Title
81392
    1CHL1    C3    1   1.093   5.940   9.945  0.0044 -0.5930 -0.1997
    1CHL1    H3    2   1.201   5.955   9.926  0.3989 -0.9158  1.6029
    1CHL1    O3    3   1.076   5.881  10.074 -0.1720 -0.2070  0.7550
    1CHL1   H3'    4   0.984   5.861  10.093 -0.1744  0.5403  1.5886
    1CHL1    C4    5   1.015   6.083   9.936 -0.0634  0.1324  0.9294
    1CHL1   H4A    6   0.916   6.082   9.987  0.1312 -1.6101  1.3344
    1CHL1   H4B    7   1.056   6.158  10.007 -0.3151 -0.8871  2.2007
    1CHL1    C5    8   1.006   6.144   9.795  0.1785  0.6077 -0.2567
    1CHL1    C6    9   1.044   6.270   9.776 -0.6496 -0.1519  0.0453
    1CHL1    H6   10   1.080   6.339   9.853  0.3953 -1.1149  0.4381
    1CHL1    C7   11   1.034   6.343   9.643 -0.3626 -0.7937 -0.3024
    1CHL1   H7A   12   1.001   6.448   9.643  0.1648 -0.5654 -2.8065
    1CHL1   H7B   13   1.140   6.345   9.607  0.5170 -1.2358  2.0804
    1CHL1    C8   14   0.950   6.270   9.533  0.1316  0.2134 -0.4755
    1CHL1    H8   15   0.842   6.286   9.554 -0.0975 -2.6742  1.0868
    1CHL1   C14   16   0.999   6.313   9.399 -0.3219  0.2942  0.0132
    1CHL1   H14   17   1.107   6.288   9.390 -0.2300  0.1127  1.3621
    1CHL1   C15   18   1.003   6.463   9.362 -0.0425  0.2630 -0.5065
    1CHL1  H15A   19   0.914   6.508   9.411 -0.4943 -1.9301  0.8198
    1CHL1  H15B   20   1.092   6.517   9.402  1.0523 -1.2811 -0.7474
    1CHL1   C16   21   1.002   6.460   9.214 -0.4490 -0.6474  0.3491
    1CHL1  H16A   22   0.926   6.533   9.178 -1.0617 -1.7824 -0.7424
    1CHL1  H16B   23   1.104   6.488   9.182  0.3518 -2.5552  1.0979
    1CHL1   C17   24   0.966   6.322   9.167 -0.1138 -0.0262 -0.6080
    1CHL1   H17   25   1.066   6.282   9.140 -0.4685 -0.4149 -1.4023
    1CHL1   C13   26   0.911   6.250   9.290 -0.4815 -0.3074  1.1501
    1CHL1   C18   27   0.761   6.297   9.306 -0.0706  0.1545 -0.5377
    1CHL1  H18A   28   0.699   6.281   9.215 -0.8401  2.3239 -0.4562
    1CHL1  H18B   29   0.714   6.231   9.382  1.1864 -0.5512 -0.3445
    1CHL1  H18C   30   0.753   6.405   9.329 -1.5129 -0.1261  0.4196
    1CHL1   C12   31   0.936   6.102   9.286  0.3089 -0.0851  0.0468
    1CHL1  H12A   32   0.885   6.046   9.205  0.3275  0.5606 -0.4199
    1CHL1  H12B   33   1.044   6.082   9.265  1.0035  0.5873  2.6238
    1CHL1   C11   34   0.899   6.044   9.422  0.2194  0.0022  0.1251
    1CHL1  H11A   35   0.789   6.034   9.438 -0.2620  2.4048 -1.1534
    1CHL1  H11B   36   0.936   5.939   9.424 -1.1380 -0.5730 -1.8764
    1CHL1    C9   37   0.975   6.116   9.537 -0.2427 -0.5514 -0.1809
    1CHL1    H9   38   1.085   6.103   9.524  0.4342  0.9303  3.1246
    1CHL1   C10   39   0.957   6.055   9.683  0.0274 -0.0723  0.3796
    1CHL1   C19   40   0.804   6.040   9.719 -0.1340 -0.8255  0.2217
    1CHL1  H19A   41   0.758   5.957   9.661  0.5094  0.5137 -2.3497
    1CHL1  H19B   42   0.784   6.036   9.828  0.8342 -2.5743  0.3709
    1CHL1  H19C   43   0.748   6.130   9.684 -3.0795 -2.5020  0.2778
    1CHL1    C1   44   1.041   5.931   9.702 -0.2717 -0.1051 -0.1904
    1CHL1   H1A   45   0.995   5.858   9.633 -0.4613  0.6566 -0.8930
    1CHL1   H1B   46   1.147   5.933   9.666 -0.0195 -1.7096  0.3849
    1CHL1    C2   47   1.035   5.855   9.838 -0.8388  0.5708 -0.0551
    1CHL1   H2A   48   1.099   5.765   9.837  1.3981  2.0544  1.0503
    1CHL1   H2B   49   0.929   5.827   9.855 -0.8138 -0.2400 -1.1655
    1CHL1   C20   50   0.890   6.312   9.034 -0.2281  0.0664 -0.5124
    1CHL1   H20   51   0.790   6.359   9.046  0.1938  0.8278  0.1152
    1CHL1   C21   52   0.874   6.168   8.980  0.1889 -0.1280  0.5716
    1CHL1  H21A   53   0.786   6.126   9.034 -0.6038 -0.8063 -1.1856
    1CHL1  H21B   54   0.964   6.105   8.996  2.3871  2.3553 -1.3052
    1CHL1  H21C   55   0.844   6.173   8.873 -1.1993 -1.8190  0.8319
    1CHL1   C22   56   0.950   6.399   8.919 -0.0007  0.1261 -0.0173
    1CHL1  H22A   57   0.897   6.367   8.826 -2.7254 -1.3308  1.9099
    1CHL1  H22B   58   0.930   6.508   8.933 -2.1021 -0.2597  0.3061
    1CHL1   C23   59   1.095   6.374   8.876 -0.0718  0.0415 -0.8344
    1CHL1  H23A   60   1.161   6.407   8.959  1.0668 -1.3175 -1.1656
    1CHL1  H23B   61   1.115   6.266   8.857  1.2599  0.2350 -0.5766
    1CHL1   C24   62   1.119   6.460   8.750 -0.1140  0.9814  0.2075
    1CHL1  H24A   63   1.050   6.434   8.667  1.4228  0.6828 -1.0319
    1CHL1  H24B   64   1.108   6.571   8.760 -1.8861  1.0726 -2.0625
    1CHL1   C25   65   1.267   6.437   8.695  0.5844  0.3150  0.1975
    1CHL1   H25   66   1.343   6.462   8.773  1.6725  0.2802 -0.8274
    1CHL1   C26   67   1.280   6.282   8.651  0.7484  0.0499 -0.9305
    1CHL1  H26A   68   1.280   6.223   8.745  1.6076  3.8323  1.6853
    1CHL1  H26B   69   1.195   6.259   8.583 -0.4308 -1.2724  0.8771
    1CHL1  H26C   70   1.385   6.279   8.617  1.9952  0.6445  2.4658
    1CHL1   C27   71   1.285   6.514   8.564  0.4302  0.2627 -0.2074
    1CHL1  H27A   72   1.207   6.477   8.495  0.1738 -0.4075  0.4246
    1CHL1  H27B   73   1.262   6.621   8.582 -0.7407  0.3545 -2.0029
    1CHL1  H27C   74   1.387   6.493   8.525  0.4056  1.2708 -0.8369
    2CHL1    C3   75   2.666   1.468   9.793 -0.1312 -0.3775 -0.1836
    2CHL1    H3   76   2.774   1.449   9.783 -0.0573  0.6059 -1.5456
    2CHL1    O3   77   2.617   1.437   9.925 -0.4880 -0.4808 -0.5767
    2CHL1   H3'   78   2.531   1.479   9.929  0.0175  0.6686 -1.3216
    2CHL1    C4   79   2.637   1.617   9.766  0.6359 -0.0510 -0.5379
    2CHL1   H4A   80   2.530   1.629   9.790  0.6592  0.2813 -0.6066
    2CHL1   H4B   81   2.687   1.677   9.845  0.6507  0.2533 -0.7800
    2CHL1    C5   82   2.680   1.666   9.633 -0.6168  0.3334 -0.2137
    2CHL1    C6   83   2.764   1.769   9.616  0.1280 -0.7104  0.2812
    2CHL1    H6   84   2.823   1.812   9.699  1.9373 -0.5787 -1.0035
    2CHL1    C7   85   2.784   1.819   9.480  0.2351  0.1083 -0.5210
    2CHL1   H7A   86   2.780   1.930   9.487  3.4895  0.3561 -0.9202
    2CHL1   H7B   87   2.891   1.803   9.455  1.1223 -0.0808  2.9005
    2CHL1    C8   88   2.700   1.770   9.357  0.3947  0.0470  0.2970
    2CHL1    H8   89   2.599   1.817   9.367  0.4405  0.7017 -1.8286
    2CHL1   C14   90   2.768   1.808   9.229  0.0267  0.4923 -0.0574
    2CHL1   H14   91   2.869   1.761   9.224  0.0000  0.5381 -1.7276
    2CHL1   C15   92   2.794   1.954   9.207 -0.2541 -0.2650 -0.3313
    2CHL1  H15A   93   2.728   2.025   9.261  1.8321  1.9535 -0.5062
    2CHL1  H15B   94   2.896   1.977   9.244  0.5459  1.2725 -3.1926
    2CHL1   C16   95   2.795   1.976   9.057 -0.4274  0.1219 -0.5723
    2CHL1  H16A   96   2.699   2.027   9.032 -1.5917 -1.0816  1.2224
    2CHL1  H16B   97   2.895   2.016   9.030  1.6613 -2.9345  1.8917
    2CHL1   C17   98   2.765   1.829   8.997 -0.1148 -0.5292 -1.5895
    2CHL1   H17   99   2.857   1.769   8.986 -1.5856 -2.6972 -2.8154
    2CHL1   C13  100   2.683   1.762   9.105 -0.1065  0.0394 -0.1091
    2CHL1   C18  101   2.539   1.816   9.099 -0.0619 -0.2609  0.0705
    2CHL1  H18A  102   2.542   1.927   9.097 -1.0480 -0.1838  1.3567
    2CHL1  H18B  103   2.487   1.791   9.004  1.3844  0.5866 -0.9863
    2CHL1  H18C  104   2.478   1.791   9.188 -0.1001  2.2071  0.8101
    2CHL1   C12  105   2.673   1.605   9.105 -0.3935 -0.3492  0.0654
    2CHL1  H12A  106   2.615   1.577   9.015 -0.7652 -0.7201  0.4157
    2CHL1  H12B  107   2.773   1.558   9.106 -0.0529  0.2464 -1.8299
    2CHL1   C11  108   2.615   1.555   9.240  0.7474 -0.2698 -0.9395
    2CHL1  H11A  109   2.507   1.580   9.243  0.8269  0.4087 -2.5686
    2CHL1  H11B  110   2.614   1.445   9.248  0.0466 -0.1042  2.6843
    2CHL1    C9  111   2.675   1.620   9.373  0.4622  0.3949 -0.6734
    2CHL1    H9  112   2.773   1.570   9.358 -0.3312 -0.6464 -2.8686
    2CHL1   C10  113   2.614   1.585   9.511  0.1202 -0.5844 -0.4893
    2CHL1   C19  114   2.464   1.616   9.509  0.4012  1.0679 -0.4817
    2CHL1  H19A  115   2.427   1.613   9.614  0.3886 -3.0976 -0.4633
    2CHL1  H19B  116   2.428   1.712   9.466 -1.2787  0.2992 -0.8885
    2CHL1  H19C  117   2.409   1.531   9.464  1.9230 -0.4584  0.4548
    2CHL1    C1  118   2.634   1.426   9.541  0.4855  0.1633  0.2165
    2CHL1   H1A  119   2.570   1.373   9.467  1.6004 -0.4401 -0.3357
    2CHL1   H1B  120   2.738   1.396   9.515 -0.0495  0.1323 -2.0872
    2CHL1    C2  121   2.598   1.384   9.682  0.4667  0.2094 -0.3089
    2CHL1   H2A  122   2.627   1.277   9.690  1.2043  0.1475 -2.9641
    2CHL1   H2B  123   2.487   1.391   9.694  0.2340 -2.2282 -0.5486
    2CHL1   C20  124   2.708   1.840   8.859 -0.8262  0.2200  0.8259
    2CHL1   H20  125   2.612   1.896   8.861  0.2174  2.0926  1.0896
    2CHL1   C21  126   2.695   1.702   8.783 -0.7764  0.3084 -0.1316
    2CHL1  H21A  127   2.767   1.631   8.830 -2.9786  0.0175  3.1336
    2CHL1  H21B  128   2.700   1.715   8.673  1.3046  0.4428 -0.0697
    2CHL1  H21C  129   2.594   1.663   8.806  0.3390 -1.6714  1.8600
    2CHL1   C22  130   2.796   1.934   8.770 -0.3262  0.3938 -0.4036
    2CHL1  H22A  131   2.744   1.932   8.672  1.1316 -1.3755 -1.2023
    2CHL1  H22B  132   2.807   2.038   8.808 -1.8851  0.7563 -0.8650
    2CHL1   C23  133   2.944   1.883   8.742  0.7936  0.4001  0.2019
    2CHL1  H23A  134   3.005   1.895   8.833 -0.8219  3.0480  1.0436
    2CHL1  H23B  135   2.939   1.775   8.715  3.6080  0.7057 -1.9783
    2CHL1   C24  136   3.004   1.956   8.624  0.0317  0.1119  0.3624
    2CHL1  H24A  137   2.944   1.944   8.532 -1.1283 -2.8469  1.3816
    2CHL1  H24B  138   3.002   2.063   8.654  1.8102 -0.0402  1.1839
    2CHL1   C25  139   3.147   1.917   8.596 -0.7849 -1.2822  0.4100
    2CHL1   H25  140   3.154   1.807   8.588 -0.4251 -1.3429  1.3984
    2CHL1   C26  141   3.196   1.977   8.467 -0.6872  0.1975  0.4120
    2CHL1  H26A  142   3.144   1.930   8.380 -0.4711 -0.6826  0.7457
    2CHL1  H26B  143   3.190   2.088   8.472 -0.4673  0.1497  3.6057
    2CHL1  H26C  144   3.306   1.981   8.458 -0.8565  2.3607 -2.0958
    2CHL1   C27  145   3.247   1.960   8.713  0.6844  0.0688 -0.1905
    2CHL1  H27A  146   3.218   1.923   8.813  0.0701 -1.0507 -0.7625
    2CHL1  H27B  147   3.351   1.922   8.700  0.8255  0.0391  0.9722
    2CHL1  H27C  148   3.248   2.070   8.721 -0.9681  0.1781 -1.0430
    3CHL1    C3  149   2.160   3.192   9.812  0.9697 -0.2568  0.1102
    3CHL1    H3  150   2.082   3.198   9.733  1.5577 -0.7841 -0.5222
    3CHL1    O3  151   2.120   3.079   9.890 -0.7903 -0.4055  0.6957
    3CHL1   H3'  152   2.042   3.108   9.938 -0.5626  1.1737  0.1879
    3CHL1    C4  153   2.304   3.173   9.767  0.1839 -0.4855  0.4816
    3CHL1   H4A  154   2.375   3.170   9.852 -1.0539  3.8425  1.9497
    3CHL1   H4B  155   2.332   3.077   9.718  1.7434  0.4043 -0.4146
    3CHL1    C5  156   2.340   3.291   9.677  0.6345  0.0079 -0.0916
    3CHL1    C6  157   2.373   3.278   9.546  0.3066 -0.3236  0.0268
    3CHL1    H6  158   2.370   3.180   9.495 -0.2010  0.4508 -1.4901
    3CHL1    C7  159   2.422   3.391   9.453  1.1859  0.3174 -0.7697
    3CHL1   H7A  160   2.522   3.374   9.409  0.8410  0.3098 -1.5721
    3CHL1   H7B  161   2.352   3.416   9.371 -0.5642  1.3887  0.9473
    3CHL1    C8  162   2.445   3.518   9.544  0.1118 -0.3443 -0.7706
    3CHL1    H8  163   2.546   3.505   9.591 -0.0796 -1.3980 -0.6161
    3CHL1   C14  164   2.472   3.645   9.464 -0.0513  1.0407  0.1657
    3CHL1   H14  165   2.379   3.654   9.404  1.6416  0.8369 -2.7094
    3CHL1   C15  166   2.577   3.639   9.350 -0.0464 -0.0495  0.5664
    3CHL1  H15A  167   2.668   3.580   9.374  0.0934 -0.7982 -1.6091
    3CHL1  H15B  168   2.541   3.612   9.249  0.1173  0.4182  0.3788
    3CHL1   C16  169   2.624   3.785   9.336 -0.6188  0.6384 -0.4460
    3CHL1  H16A  170   2.732   3.796   9.361 -0.3265 -0.4182 -1.1626
    3CHL1  H16B  171   2.614   3.811   9.229  2.0549  1.4390 -0.5857
    3CHL1   C17  172   2.533   3.872   9.423  0.2326  0.5866 -1.5790
    3CHL1   H17  173   2.441   3.880   9.361 -1.1350 -2.5446 -0.1793
    3CHL1   C13  174   2.492   3.775   9.539 -0.1078  0.8158  0.0998
    3CHL1   C18  175   2.611   3.766   9.635  0.2540 -0.4081  0.4767
    3CHL1  H18A  176   2.614   3.862   9.690 -1.1518  0.6175 -1.1262
    3CHL1  H18B  177   2.613   3.691   9.717 -0.6660 -0.6381  0.2922
    3CHL1  H18C  178   2.707   3.766   9.578  1.6535  0.2232  2.6929
    3CHL1   C12  179   2.362   3.802   9.620 -0.0456  0.1872  0.1729
    3CHL1  H12A  180   2.374   3.891   9.687 -3.1227 -0.8728  2.3706
    3CHL1  H12B  181   2.280   3.818   9.547 -0.7437 -1.1156  0.6344
    3CHL1   C11  182   2.327   3.688   9.714  0.0526  0.0547  0.1859
    3CHL1  H11A  183   2.382   3.695   9.811 -2.5868  2.5404  1.6709
    3CHL1  H11B  184   2.228   3.705   9.761  0.4341  1.0545  0.6755
    3CHL1    C9  185   2.338   3.540   9.653 -0.0382  0.1865  0.9642
    3CHL1    H9  186   2.241   3.534   9.600  0.4238 -0.3887  0.1615
    3CHL1   C10  187   2.338   3.427   9.756 -0.5824 -0.4193  0.1233
    3CHL1   C19  188   2.463   3.426   9.840 -0.2183  0.0103 -0.2626
    3CHL1  H19A  189   2.557   3.406   9.786  0.1033 -0.3676  0.4173
    3CHL1  H19B  190   2.469   3.527   9.887  0.0552  0.1476 -0.5953
    3CHL1  H19C  191   2.463   3.348   9.919  1.4162  1.8465  1.7068
    3CHL1    C1  192   2.215   3.435   9.845  0.4674  0.4198  0.1911
    3CHL1   H1A  193   2.231   3.513   9.922 -0.8474  2.0623 -1.1266
    3CHL1   H1B  194   2.136   3.482   9.783  1.1178 -1.3550 -2.1305
    3CHL1    C2  195   2.154   3.308   9.913 -0.1829 -0.8504  0.5497
    3CHL1   H2A  196   2.050   3.326   9.946  0.5937  1.6711  1.8788
    3CHL1   H2B  197   2.211   3.279  10.003 -1.9327  0.0979  2.0109
    3CHL1   C20  198   2.590   4.012   9.460  0.6609  0.8034  0.2965
    3CHL1   H20  199   2.675   3.996   9.530  1.2442 -1.2279 -0.7549
    3CHL1   C21  200   2.486   4.108   9.541  0.3294 -0.0321 -0.2752
    3CHL1  H21A  201   2.528   4.207   9.567 -0.1511 -0.4755  2.5489
    3CHL1  H21B  202   2.446   4.065   9.636  0.6620  2.1885  0.9331
    3CHL1  H21C  203   2.395   4.116   9.479 -1.7090  1.6137  2.6673
    3CHL1   C22  204   2.636   4.077   9.333  0.0507  0.4163 -0.3597
    3CHL1  H22A  205   2.700   4.016   9.266  1.7583  0.7881  0.8624
    3CHL1  H22B  206   2.551   4.090   9.263 -0.7565 -0.9434  0.3261
    3CHL1   C23  207   2.716   4.212   9.348  0.1125 -0.0833 -0.3152
    3CHL1  H23A  208   2.654   4.284   9.406 -0.6309 -1.0802  0.1536
    3CHL1  H23B  209   2.808   4.195   9.408 -0.2262 -0.3914  0.1236
    3CHL1   C24  210   2.752   4.275   9.219  0.2953  0.4953  0.6688
    3CHL1  H24A  211   2.833   4.220   9.167  0.6548  1.5492  0.0755
    3CHL1  H24B  212   2.666   4.267   9.149  1.6809  1.3531 -1.2235
    3CHL1   C25  213   2.787   4.423   9.218  0.8462 -0.2010  0.4345
    3CHL1   H25  214   2.867   4.440   9.293  0.5522  1.0480  0.4740
    3CHL1   C26  215   2.850   4.460   9.079  0.3488 -0.2790 -0.0764
    3CHL1  H26A  216   2.937   4.395   9.056  0.9776  0.9188 -1.1995
    3CHL1  H26B  217   2.779   4.469   8.995  0.2974 -3.3948 -0.4724
    3CHL1  H26C  218   2.901   4.558   9.088 -1.1735  0.4975  0.5247
    3CHL1   C27  219   2.672   4.511   9.262  0.7371 -0.0591 -0.4287
    3CHL1  H27A  220   2.701   4.618   9.254  0.3043  0.0866 -0.1018
    3CHL1  H27B  221   2.575   4.494   9.211 -0.3847  1.4517  1.0900
    3CHL1  H27C  222   2.648   4.495   9.369 -2.1997  1.3240 -0.7598
    4CHL1    C3  223   4.994   4.563  10.078  0.2801  0.1845 -0.4245
    4CHL1    H3  224   4.989   4.667  10.040 -2.6887  0.1330 -0.4084
    4CHL1    O3  225   4.978   4.555  10.215 -0.7489 -0.2654  0.5956
    4CHL1   H3'  226   5.013   4.632  10.260  0.5926  1.6139 -3.2679
    4CHL1    C4  227   4.874   4.500   9.999  0.2807  0.1907 -0.2112
    4CHL1   H4A  228   4.856   4.396  10.034 -2.9241  0.7829  0.1573
    4CHL1   H4B  229   4.782   4.552  10.032  0.4910 -0.1886  0.9935
    4CHL1    C5  230   4.907   4.505   9.849  0.1035  0.2335 -0.7150
    4CHL1    C6  231   4.832   4.567   9.761  0.1747 -0.0299 -0.3116
    4CHL1    H6  232   4.741   4.623   9.790  0.9044  2.0271 -1.7633
    4CHL1    C7  233   4.855   4.561   9.614  0.0457 -0.7834 -0.4480
    4CHL1   H7A  234   4.760   4.535   9.561 -0.2545  2.4674 -1.7403
    4CHL1   H7B  235   4.884   4.660   9.574  0.5939  0.1592  2.1047
    4CHL1    C8  236   4.957   4.458   9.565  1.4115 -0.2694  0.0092
    4CHL1    H8  237   4.909   4.358   9.575  1.2163 -0.0709  1.2743
    4CHL1   C14  238   4.997   4.490   9.422  0.6423 -0.7809  0.1906
    4CHL1   H14  239   5.047   4.589   9.426 -0.8872  0.0432 -0.2840
    4CHL1   C15  240   4.878   4.509   9.326 -0.2478  0.0381 -0.4283
    4CHL1  H15A  241   4.807   4.424   9.338 -0.6504  0.4671  0.2953
    4CHL1  H15B  242   4.818   4.601   9.338 -0.7843 -0.1737 -1.4538
    4CHL1   C16  243   4.951   4.526   9.191  0.5073  0.4756  0.3944
    4CHL1  H16A  244   4.875   4.483   9.122 -2.1929  3.2390  1.4452
    4CHL1  H16B  245   4.969   4.631   9.157 -1.8483  0.4971 -0.9741
    4CHL1   C17  246   5.088   4.455   9.205 -0.2645 -0.8219 -0.4830
    4CHL1   H17  247   5.163   4.536   9.219  0.4206 -1.6338  0.6697
    4CHL1   C13  248   5.090   4.397   9.348 -0.4328 -0.3164 -0.2350
    4CHL1   C18  249   5.027   4.254   9.341  1.1185  0.2766  0.2949
    4CHL1  H18A  250   5.099   4.179   9.302 -0.8938 -1.0645 -0.9862
    4CHL1  H18B  251   5.023   4.220   9.446 -1.0228 -1.4927 -0.3054
    4CHL1  H18C  252   4.925   4.253   9.298  1.4515 -0.7195 -0.5041
    4CHL1   C12  253   5.221   4.408   9.429 -0.6011 -0.1933 -0.7319
    4CHL1  H12A  254   5.299   4.336   9.393 -1.8670 -2.2312  0.3816
    4CHL1  H12B  255   5.268   4.508   9.418  1.9586 -0.6224  3.8706
    4CHL1   C11  256   5.204   4.385   9.588  0.0930  0.1522  0.2636
    4CHL1  H11A  257   5.184   4.276   9.601 -0.2666  0.3586  1.6588
    4CHL1  H11B  258   5.300   4.414   9.636 -0.0395  0.2265  0.4871
    4CHL1    C9  259   5.081   4.462   9.651  0.4438  0.3287 -0.4868
    4CHL1    H9  260   5.114   4.568   9.647 -0.3515  0.7603  2.3226
    4CHL1   C10  261   5.036   4.433   9.798  1.0876  0.0475 -0.5539
    4CHL1   C19  262   5.026   4.276   9.818  0.5786  0.3285  0.1562
    4CHL1  H19A  263   4.987   4.244   9.917 -0.1926 -1.3169 -0.6471
    4CHL1  H19B  264   4.965   4.225   9.740  1.5139 -2.0893  0.9319
    4CHL1  H19C  265   5.129   4.237   9.814 -0.1420 -1.5768 -1.3878
    4CHL1    C1  266   5.152   4.486   9.883 -0.6307  0.1063  0.0390
    4CHL1   H1A  267   5.248   4.435   9.861 -0.7960 -0.1373 -0.1301
    4CHL1   H1B  268   5.165   4.594   9.863 -1.5007  0.2549  0.2157
    4CHL1    C2  269   5.124   4.497  10.041 -0.3169 -0.2002  0.1158
    4CHL1   H2A  270   5.207   4.547  10.094 -0.8144  1.2916 -0.4603
    4CHL1   H2B  271   5.115   4.388  10.063  0.0563 -0.7872 -2.2487
    4CHL1   C20  272   5.140   4.375   9.084 -0.0539 -0.5603 -0.3079
    4CHL1   H20  273   5.069   4.291   9.074 -1.4563  0.4048  0.9432
    4CHL1   C21  274   5.281   4.319   9.103  0.1069  0.0604  0.3532
    4CHL1  H21A  275   5.309   4.241   9.030 -0.0584 -0.8944  1.2852
    4CHL1  H21B  276   5.294   4.272   9.203 -0.1943  0.0868  0.4060
    4CHL1  H21C  277   5.357   4.401   9.103 -0.4769  0.6081  0.2305
    4CHL1   C22  278   5.125   4.463   8.955 -0.0564 -0.0126 -0.1771
    4CHL1  H22A  279   5.030   4.472   8.899  0.3101 -2.3613 -1.3108
    4CHL1  H22B  280   5.154   4.569   8.971 -0.3287  0.2849 -1.5957
    4CHL1   C23  281   5.219   4.416   8.840  0.3684 -0.5701 -0.2502
    4CHL1  H23A  282   5.320   4.441   8.879 -0.5672  1.2900  1.1325
    4CHL1  H23B  283   5.215   4.305   8.843  0.7983 -0.5640  1.3665
    4CHL1   C24  284   5.194   4.471   8.696 -0.2897  0.1454 -0.4399
    4CHL1  H24A  285   5.109   4.417   8.649  0.0588 -1.0482  0.2463
    4CHL1  H24B  286   5.171   4.579   8.686 -1.8120 -0.3838 -4.1371
    4CHL1   C25  287   5.320   4.439   8.613 -0.5910  0.1566 -0.2182
    4CHL1   H25  288   5.330   4.330   8.632  0.0893  0.2301 -0.1191
    4CHL1   C26  289   5.303   4.443   8.455  0.5888 -0.0533 -0.7424
    4CHL1  H26A  290   5.394   4.403   8.407  0.7881 -0.2466 -0.2134
    4CHL1  H26B  291   5.216   4.377   8.431 -0.3862  1.1521 -0.6032
    4CHL1  H26C  292   5.276   4.544   8.419  1.1652 -0.6108 -2.8531
    4CHL1   C27  293   5.444   4.522   8.653 -0.9202  0.5492  0.4414
    4CHL1  H27A  294   5.429   4.632   8.658  1.3175  0.9160  0.1011
    4CHL1  H27B  295   5.486   4.486   8.749  0.9616  0.3039 -0.4288
    4CHL1  H27C  296   5.525   4.502   8.579 -1.4405  0.5773 -0.1420
    5CHL1    C3  297   4.243   2.288  10.322 -0.5412 -0.6721  0.0245
    5CHL1    H3  298   4.316   2.207  10.344 -0.0069  0.2146  1.6412
    5CHL1    O3  299   4.203   2.325  10.456 -0.0422  0.1124  0.0379
    5CHL1   H3'  300   4.148   2.403  10.441 -0.3322 -0.2919 -1.1227
    5CHL1    C4  301   4.315   2.400  10.255  0.3933  0.0617  0.1008
    5CHL1   H4A  302   4.236   2.478  10.250 -1.0751 -1.2632  1.2301
    5CHL1   H4B  303   4.400   2.439  10.316  2.3590 -1.3861 -1.5739
    5CHL1    C5  304   4.357   2.356  10.114 -0.5095  0.6773  0.6619
    5CHL1    C6  305   4.487   2.357  10.074  0.0933  0.0597  0.1308
    5CHL1    H6  306   4.561   2.395  10.146  0.2716 -0.8482  0.4339
    5CHL1    C7  307   4.540   2.329   9.935 -0.0376  0.4912 -0.8810
    5CHL1   H7A  308   4.621   2.397   9.903  1.5651 -0.8976  0.0458
    5CHL1   H7B  309   4.592   2.231   9.933 -0.0445  0.4963 -1.2213
    5CHL1    C8  310   4.428   2.323   9.834  0.2555  0.5341  0.8461
    5CHL1    H8  311   4.397   2.429   9.822 -0.7161  0.0923 -0.7109
    5CHL1   C14  312   4.480   2.261   9.706 -0.3084  0.3908 -0.6451
    5CHL1   H14  313   4.501   2.154   9.730  1.2396  0.9435  0.6858
    5CHL1   C15  314   4.613   2.310   9.640 -0.4445  0.8308 -0.0632
    5CHL1  H15A  315   4.614   2.421   9.638 -2.1350  0.8723 -1.8688
    5CHL1  H15B  316   4.709   2.278   9.685  0.8011 -0.1394 -3.1429
    5CHL1   C16  317   4.604   2.253   9.493 -0.2668 -0.3821 -0.1929
    5CHL1  H16A  318   4.631   2.331   9.419  1.5078 -0.6731  0.1071
    5CHL1  H16B  319   4.672   2.167   9.481  0.0941 -0.0945 -0.2123
    5CHL1   C17  320   4.464   2.195   9.484  0.5543 -0.0151  0.3154
    5CHL1   H17  321   4.477   2.091   9.522  1.5930  0.4856  1.4072
    5CHL1   C13  322   4.379   2.255   9.594 -0.1599  0.6396 -0.4667
    5CHL1   C18  323   4.333   2.400   9.557 -0.7299  0.2643  0.2220
    5CHL1  H18A  324   4.420   2.454   9.514 -0.3106 -2.4420 -2.7788
    5CHL1  H18B  325   4.266   2.380   9.471  0.5967 -2.7777 -0.2623
    5CHL1  H18C  326   4.286   2.439   9.650  2.5901 -1.1084  2.6739
    5CHL1   C12  327   4.262   2.164   9.643 -0.4183 -0.2548  0.0845
    5CHL1  H12A  328   4.194   2.164   9.554  0.7628  0.6968 -0.8542
    5CHL1  H12B  329   4.299   2.060   9.656  2.6596  0.3112 -2.6757
    5CHL1   C11  330   4.190   2.219   9.770 -0.3281 -0.8248  0.3149
    5CHL1  H11A  331   4.135   2.313   9.751  1.9417  0.5621  0.3604
    5CHL1  H11B  332   4.110   2.148   9.802 -1.2791 -0.0287 -0.2319
    5CHL1    C9  333   4.301   2.245   9.884  0.7448  0.3216 -0.3379
    5CHL1    H9  334   4.338   2.142   9.905 -1.4442 -0.3497  0.5246
    5CHL1   C10  335   4.244   2.304  10.017  0.2450 -0.4802 -0.9663
    5CHL1   C19  336   4.140   2.412   9.987  0.0167 -0.3521  0.3089
    5CHL1  H19A  337   4.192   2.478   9.914 -1.6084  0.8452  0.1788
    5CHL1  H19B  338   4.054   2.376   9.927 -1.2272 -0.4903  2.0993
    5CHL1  H19C  339   4.108   2.470  10.077  1.5993  3.3940 -1.3144
    5CHL1    C1  340   4.174   2.195  10.094  0.1039 -0.4723 -0.8892
    5CHL1   H1A  341   4.083   2.155  10.045 -1.4512 -2.7230  3.3440
    5CHL1   H1B  342   4.237   2.104  10.106  0.5420  0.1326  2.2617
    5CHL1    C2  343   4.123   2.236  10.239 -0.8249 -0.0321  0.2867
    5CHL1   H2A  344   4.085   2.147  10.294  0.3162  0.2720  1.6157
    5CHL1   H2B  345   4.038   2.307  10.245  1.1533  2.3924  1.1271
    5CHL1   C20  346   4.399   2.170   9.347 -0.7691  0.1834 -0.4784
    5CHL1   H20  347   4.291   2.144   9.347 -0.9313  0.8328 -0.2976
    5CHL1   C21  348   4.472   2.045   9.290 -0.4556 -0.7223 -1.0430
    5CHL1  H21A  349   4.455   1.958   9.357  1.2400 -0.0433  0.3855
    5CHL1  H21B  350   4.581   2.066   9.281 -0.2444  0.0751  2.1084
    5CHL1  H21C  351   4.444   2.028   9.184 -1.4084 -0.8999 -0.7677
    5CHL1   C22  352   4.417   2.288   9.251 -0.6183  0.0251  0.0069
    5CHL1  H22A  353   4.411   2.380   9.313 -0.3246 -0.5190  0.8644
    5CHL1  H22B  354   4.517   2.274   9.204 -1.1857 -2.4490 -0.6094
    5CHL1   C23  355   4.298   2.291   9.146 -0.2611  0.2427 -0.0206
    5CHL1  H23A  356   4.290   2.193   9.095 -0.0875  0.6493 -0.8377
    5CHL1  H23B  357   4.195   2.303   9.187 -0.2682 -0.5443  0.2005
    5CHL1   C24  358   4.322   2.403   9.045 -1.0051 -0.6781  0.0897
    5CHL1  H24A  359   4.351   2.499   9.093  2.4002 -0.9204 -1.2616
    5CHL1  H24B  360   4.415   2.376   8.991 -0.3642  1.5653 -0.0034
    5CHL1   C25  361   4.207   2.427   8.947  1.2770 -0.5287 -0.2762
    5CHL1   H25  362   4.114   2.445   9.006  0.2341  1.3235 -2.3382
    5CHL1   C26  363   4.230   2.553   8.855  0.4318  0.2240  0.5031
    5CHL1  H26A  364   4.287   2.628   8.914 -1.1837  1.3845  0.6396
    5CHL1  H26B  365   4.284   2.508   8.769  2.2906  1.1721  1.1124
    5CHL1  H26C  366   4.136   2.599   8.818 -0.4399 -1.0821  1.0084
    5CHL1   C27  367   4.176   2.314   8.858  0.7881  0.1938 -0.3721
    5CHL1  H27A  368   4.092   2.337   8.790 -1.4589  1.3645  2.5963
    5CHL1  H27B  369   4.259   2.293   8.787  1.2154 -2.2307  0.7108
    5CHL1  H27C  370   4.154   2.219   8.912 -0.7547  1.2526  0.9380
    6CHL1    C3  371   2.105   6.142  10.047  0.4814 -0.0519 -0.4468
    6CHL1    H3  372   2.179   6.224  10.055  1.6773 -1.1894  0.4834
    6CHL1    O3  373   2.077   6.086  10.175 -0.3672  0.0004 -0.1385
    6CHL1   H3'  374   2.001   6.127  10.216  0.1871  0.9476 -0.0297
    6CHL1    C4  375   1.974   6.185   9.982 -0.1783  0.7047 -0.2437
    6CHL1   H4A  376   1.896   6.106   9.986 -2.9325  3.2618  1.5887
    6CHL1   H4B  377   1.930   6.271  10.038 -1.6802 -0.7960  0.9870
    6CHL1    C5  378   1.993   6.233   9.836  0.2864  1.0117 -0.1273
    6CHL1    C6  379   1.961   6.356   9.796  0.0451  0.6647 -0.3344
    6CHL1    H6  380   1.929   6.434   9.867  0.6096  1.3785 -0.8446
    6CHL1    C7  381   1.965   6.398   9.656  0.8093  0.3992  1.0164
    6CHL1   H7A  382   1.872   6.451   9.627  0.9425  1.9560  3.1524
    6CHL1   H7B  383   2.044   6.476   9.652  0.5864  0.5734 -0.8518
    6CHL1    C8  384   1.986   6.281   9.558  0.0856 -0.3540  0.0473
    6CHL1    H8  385   1.889   6.227   9.552 -1.3165  2.1874 -1.8474
    6CHL1   C14  386   2.022   6.326   9.414 -0.9176  0.5182 -0.3355
    6CHL1   H14  387   2.120   6.374   9.434 -2.3588  2.8402  1.8423
    6CHL1   C15  388   1.945   6.435   9.338 -0.3106 -0.4081  0.1421
    6CHL1  H15A  389   1.838   6.403   9.333 -0.6612  0.1026  2.7464
    6CHL1  H15B  390   1.952   6.536   9.385  0.7812  0.1719 -1.1981
    6CHL1   C16  391   2.001   6.426   9.200 -0.5319  0.4037 -0.5782
    6CHL1  H16A  392   1.923   6.408   9.123  0.8584  0.5543 -2.0601
    6CHL1  H16B  393   2.036   6.522   9.159 -1.1739  1.0554  0.3528
    6CHL1   C17  394   2.100   6.306   9.192 -0.1158  0.2844  0.1977
    6CHL1   H17  395   2.202   6.344   9.212 -0.4383  2.6304 -2.0197
    6CHL1   C13  396   2.061   6.220   9.309 -0.9775 -0.0017 -0.0869
    6CHL1   C18  397   1.940   6.136   9.271  0.1735  0.2058  0.0570
    6CHL1  H18A  398   1.894   6.082   9.357 -1.0895 -1.9471 -1.8821
    6CHL1  H18B  399   1.861   6.189   9.214 -0.7811  1.0394  2.0542
    6CHL1  H18C  400   1.975   6.052   9.208 -0.2349  0.1614 -0.1068
    6CHL1   C12  401   2.172   6.129   9.374  0.3084 -0.7178 -0.2131
    6CHL1  H12A  402   2.198   6.041   9.312  1.4889 -0.8584  0.4474
    6CHL1  H12B  403   2.260   6.194   9.388 -2.2012  2.6077  1.7692
    6CHL1   C11  404   2.127   6.068   9.504  0.7860  0.4661 -1.1708
    6CHL1  H11A  405   2.035   6.009   9.483  1.1582 -0.4394 -0.3715
    6CHL1  H11B  406   2.204   5.994   9.535 -0.0742 -0.6714 -1.6657
    6CHL1    C9  407   2.086   6.177   9.606  0.2358  0.3947 -0.1669
    6CHL1    H9  408   2.184   6.229   9.611 -0.3880  1.4945  3.3704
    6CHL1   C10  409   2.063   6.123   9.747 -0.6175  0.0443  0.0954
    6CHL1   C19  410   1.962   6.002   9.736  0.5147  0.0976  0.2318
    6CHL1  H19A  411   1.906   5.978   9.829 -1.0543 -0.1026 -0.7230
    6CHL1  H19B  412   1.888   6.033   9.659 -2.4851 -2.3609  1.8873
    6CHL1  H19C  413   2.019   5.913   9.703  1.4104  0.4535  0.7852
    6CHL1    C1  414   2.193   6.081   9.820 -0.2530 -0.0062 -0.2243
    6CHL1   H1A  415   2.232   5.995   9.762 -0.8809  0.1823 -0.9320
    6CHL1   H1B  416   2.263   6.167   9.814 -2.0017  1.4203 -0.8441
    6CHL1    C2  417   2.174   6.035   9.962 -0.2963 -0.7257 -0.5322
    6CHL1   H2A  418   2.269   6.013  10.016  0.5350  1.9751 -0.7308
    6CHL1   H2B  419   2.105   5.949   9.971 -0.3596 -0.5255  1.1606
    6CHL1   C20  420   2.099   6.241   9.050  0.6168 -0.0162  0.0140
    6CHL1   H20  421   2.000   6.193   9.037 -0.8408  3.0171 -0.8536
    6CHL1   C21  422   2.203   6.133   9.046  0.1822 -0.2416 -0.0182
    6CHL1  H21A  423   2.180   6.038   9.098  2.9313 -2.5923 -2.7278
    6CHL1  H21B  424   2.284   6.168   9.114 -0.0615 -1.0565  0.7069
    6CHL1  H21C  425   2.240   6.109   8.945  0.2304 -0.3881  0.0342
    6CHL1   C22  426   2.126   6.347   8.935  0.3489 -0.2327  0.5486
    6CHL1  H22A  427   2.055   6.430   8.954 -0.3980 -0.7712  0.2108
    6CHL1  H22B  428   2.232   6.377   8.945  0.2252  0.4327 -0.0575
    6CHL1   C23  429   2.100   6.304   8.789 -0.1662 -0.2475 -0.3634
    6CHL1  H23A  430   2.163   6.219   8.757 -0.4259 -0.0524 -1.4329
    6CHL1  H23B  431   1.996   6.267   8.778 -1.1003  1.7412  1.0648
    6CHL1   C24  432   2.126   6.423   8.690  0.2932  0.0004 -0.0479
    6CHL1  H24A  433   2.058   6.503   8.726  0.2056 -1.0386  2.2630
    6CHL1  H24B  434   2.237   6.434   8.695  0.4761 -2.0425  2.9778
    6CHL1   C25  435   2.090   6.392   8.542  0.5541  0.7294  0.6000
    6CHL1   H25  436   2.123   6.288   8.521 -0.2769  0.5820 -0.0141
    6CHL1   C26  437   1.938   6.392   8.511  0.9923 -0.0391  0.1869
    6CHL1  H26A  438   1.913   6.408   8.404 -0.3645  1.0623  0.6447
    6CHL1  H26B  439   1.893   6.299   8.552 -2.8800  2.5178  2.3741
    6CHL1  H26C  440   1.879   6.474   8.557  0.7681 -0.3541  0.4708
    6CHL1   C27  441   2.168   6.496   8.462  0.3833  0.3291  0.4083
    6CHL1  H27A  442   2.155   6.600   8.500  2.1341  0.9218 -0.4875
    6CHL1  H27B  443   2.278   6.488   8.454  0.4703  1.6169  0.0942
    6CHL1  H27C  444   2.123   6.512   8.362  2.0660 -0.3036 -0.4946
    7CHL1    C3  445   5.435   4.841   9.745 -0.1331  0.4524  0.2093
    7CHL1    H3  446   5.381   4.932   9.778  1.4354  0.5878  2.6133
    7CHL1    O3  447   5.471   4.788   9.871 -0.6528  0.4959  0.3563
    7CHL1   H3'  448   5.386   4.787   9.915 -0.6511  1.4346  0.4030
    7CHL1    C4  449   5.335   4.751   9.662 -0.6082 -0.6592 -0.7728
    7CHL1   H4A  450   5.380   4.650   9.661 -0.6488 -0.8237  2.4346
    7CHL1   H4B  451   5.243   4.754   9.724 -0.2469 -1.3054 -0.1939
    7CHL1    C5  452   5.301   4.807   9.523  0.0357 -0.6391  0.0113
    7CHL1    C6  453   5.171   4.835   9.486  0.3410 -0.7878 -0.5909
    7CHL1    H6  454   5.090   4.815   9.557  1.9646 -2.6298  0.8587
    7CHL1    C7  455   5.136   4.890   9.349  0.1301 -0.1039 -0.4405
    7CHL1   H7A  456   5.048   4.839   9.305  0.6075  1.3905 -3.4522
    7CHL1   H7B  457   5.123   5.000   9.357 -1.3931 -0.3174  0.2340
    7CHL1    C8  458   5.257   4.869   9.252 -0.1247  0.6877  0.3109
    7CHL1    H8  459   5.273   4.761   9.229  0.7799  1.0976 -1.0660
    7CHL1   C14  460   5.228   4.929   9.114  0.1660 -0.0004 -0.4708
    7CHL1   H14  461   5.215   5.039   9.123  2.4933  0.2129  1.2059
    7CHL1   C15  462   5.107   4.876   9.035 -0.2298 -0.3507 -1.1166
    7CHL1  H15A  463   5.107   4.765   9.037 -2.6211 -0.4073 -0.9129
    7CHL1  H15B  464   5.007   4.905   9.074  0.1948 -0.7225  0.3172
    7CHL1   C16  465   5.138   4.930   8.892  0.6796  0.2749 -0.0415
    7CHL1  H16A  466   5.115   4.848   8.820 -0.7127  1.7471 -1.3219
    7CHL1  H16B  467   5.065   5.008   8.863  0.1892  0.6198  1.9529
    7CHL1   C17  468   5.283   4.981   8.883 -0.6963  0.4653  0.3017
    7CHL1   H17  469   5.288   5.091   8.902  0.5222  0.3305  0.8760
    7CHL1   C13  470   5.347   4.923   9.014 -0.5246 -0.1002  0.1272
    7CHL1   C18  471   5.386   4.772   8.980  0.1335  0.7248 -0.2000
    7CHL1  H18A  472   5.486   4.770   8.933 -0.2181 -0.9743 -0.9419
    7CHL1  H18B  473   5.398   4.708   9.070 -0.2585 -1.0262 -1.3494
    7CHL1  H18C  474   5.310   4.725   8.913 -0.7645  0.4122  0.9959
    7CHL1   C12  475   5.469   4.990   9.071 -0.5176 -0.4227 -0.0381
    7CHL1  H12A  476   5.551   4.985   8.996  0.7021  0.5873  1.1497
    7CHL1  H12B  477   5.453   5.100   9.084  0.8356 -0.0314 -1.3448
    7CHL1   C11  478   5.510   4.934   9.208 -0.2037 -0.4661  0.3038
    7CHL1  H11A  479   5.561   4.838   9.185 -0.2446 -1.3032  3.3191
    7CHL1  H11B  480   5.589   4.997   9.253 -0.4629 -0.4578  0.7447
    7CHL1    C9  481   5.389   4.925   9.310 -0.5784  0.0519  0.7914
    7CHL1    H9  482   5.369   5.032   9.330 -0.7468  0.0736  0.5113
    7CHL1   C10  483   5.425   4.853   9.444 -0.8635  0.5462 -0.6745
    7CHL1   C19  484   5.498   4.725   9.412  0.3399  0.2229  0.3287
    7CHL1  H19A  485   5.603   4.736   9.378  0.7513 -0.9534  1.1179
    7CHL1  H19B  486   5.503   4.655   9.499 -2.2216 -1.4781 -0.7638
    7CHL1  H19C  487   5.441   4.669   9.335  1.1317  1.3332 -1.0980
    7CHL1    C1  488   5.516   4.944   9.535 -0.2482  0.3480 -0.6083
    7CHL1   H1A  489   5.601   4.964   9.466  0.8941 -0.6643  0.4597
    7CHL1   H1B  490   5.458   5.037   9.553 -0.4655 -0.0079  0.6231
    7CHL1    C2  491   5.564   4.878   9.666 -0.8091 -0.1967 -0.3501
    7CHL1   H2A  492   5.612   4.959   9.725  1.0012 -0.3762 -1.5081
    7CHL1   H2B  493   5.632   4.793   9.646  0.1699  0.0978  1.5441
    7CHL1   C20  494   5.352   4.960   8.751 -0.9271  0.2757  0.5993
    7CHL1   H20  495   5.352   4.851   8.727 -0.9022  0.1055  1.3344
    7CHL1   C21  496   5.502   4.995   8.741 -0.2909 -0.7678 -0.1541
    7CHL1  H21A  497   5.573   4.932   8.801  3.3024  1.3372 -1.8433
    7CHL1  H21B  498   5.526   5.101   8.763  3.0394 -1.3664 -0.3259
    7CHL1  H21C  499   5.537   4.993   8.636 -0.7286  1.6839 -0.3877
    7CHL1   C22  500   5.279   5.032   8.634 -0.0198  0.3900 -0.1494
    7CHL1  H22A  501   5.343   5.013   8.546  0.2510 -2.5120  0.5713
    7CHL1  H22B  502   5.176   4.992   8.618  0.3663 -1.0407  0.7582
    7CHL1   C23  503   5.270   5.193   8.641  0.2501 -0.1417  0.7465
    7CHL1  H23A  504   5.222   5.232   8.733 -1.1958 -2.0537  0.8737
    7CHL1  H23B  505   5.376   5.226   8.634  0.0999  0.0766 -0.7441
    7CHL1   C24  506   5.190   5.241   8.515  0.1876 -0.0416 -0.3766
    7CHL1  H24A  507   5.239   5.206   8.422  2.1477  0.0352  0.5815
    7CHL1  H24B  508   5.094   5.186   8.502 -0.4436  0.8695  0.2767
    7CHL1   C25  509   5.166   5.395   8.518 -0.0372  0.6658 -0.2418
    7CHL1   H25  510   5.251   5.443   8.572  1.1243 -0.8211 -0.6830
    7CHL1   C26  511   5.147   5.455   8.378 -0.1234 -0.2244  0.5683
    7CHL1  H26A  512   5.171   5.563   8.375  0.4465 -0.2650  2.5887
    7CHL1  H26B  513   5.227   5.406   8.318  1.4614 -0.4635  2.7692
    7CHL1  H26C  514   5.048   5.428   8.335  0.7623 -2.9226  0.0426
    7CHL1   C27  515   5.042   5.415   8.607  0.2116  0.0894 -0.6395
    7CHL1  H27A  516   5.045   5.357   8.702  1.3548 -0.3053 -0.9039
    7CHL1  H27B  517   5.021   5.522   8.626  0.4199  0.0875 -0.3911
    7CHL1  H27C  518   4.954   5.385   8.546 -0.0121 -0.4501 -0.0639
    8CHL1    C3  519   5.464   6.792  10.463  0.1170  0.3601 -0.0486
    8CHL1    H3  520   5.538   6.865  10.423 -0.9743  1.1299 -0.6935
    8CHL1    O3  521   5.455   6.816  10.599  0.5786 -0.8846 -0.2956
    8CHL1   H3'  522   5.497   6.900  10.616  1.6727 -1.6404  0.9306
    8CHL1    C4  523   5.334   6.814  10.391  0.5785  0.3482  0.7861
    8CHL1   H4A  524   5.253   6.740  10.412  1.4886 -0.6424  0.8836
    8CHL1   H4B  525   5.294   6.912  10.425 -2.5445 -1.2466  2.2666
    8CHL1    C5  526   5.355   6.795  10.237  0.5532  0.8112 -0.4359
    8CHL1    C6  527   5.332   6.897  10.160 -0.1890 -0.4854  0.4766
    8CHL1    H6  528   5.287   6.989  10.199  1.6024  1.4480 -1.7667
    8CHL1    C7  529   5.346   6.891  10.009  0.1198  0.1770 -0.7718
    8CHL1   H7A  530   5.261   6.940   9.957  0.8978  0.0877 -2.1881
    8CHL1   H7B  531   5.435   6.946   9.972 -0.7308  0.5787 -2.3407
    8CHL1    C8  532   5.373   6.742   9.962  0.4284 -0.4324 -0.8901
    8CHL1    H8  533   5.268   6.706   9.969  0.2106  0.3951  0.5818
    8CHL1   C14  534   5.422   6.737   9.817  0.2959 -0.3076  0.2729
    8CHL1   H14  535   5.524   6.780   9.820 -0.8596  2.5859  0.8744
    8CHL1   C15  536   5.350   6.823   9.707 -0.0971 -0.7296 -0.5245
    8CHL1  H15A  537   5.242   6.832   9.731 -0.0195 -2.2868  0.5529
    8CHL1  H15B  538   5.401   6.921   9.722 -1.0839 -0.1123 -1.0719
    8CHL1   C16  539   5.387   6.764   9.572 -0.5961  0.2788 -0.4654
    8CHL1  H16A  540   5.290   6.742   9.522 -0.0653 -0.5529 -1.1763
    8CHL1  H16B  541   5.442   6.833   9.504  1.0659  0.1231  0.6650
    8CHL1   C17  542   5.471   6.633   9.609 -0.2988  0.1981  0.8507
    8CHL1   H17  543   5.577   6.663   9.620  0.9286 -1.7458 -3.6461
    8CHL1   C13  544   5.429   6.596   9.753  0.5034 -0.1845  0.1562
    8CHL1   C18  545   5.290   6.532   9.742 -0.3437  0.2369  0.2622
    8CHL1  H18A  546   5.303   6.429   9.702  1.1883 -0.0917  1.5101
    8CHL1  H18B  547   5.253   6.505   9.843  1.5719  0.3182  1.0342
    8CHL1  H18C  548   5.216   6.591   9.684 -0.8167 -1.3142 -0.7767
    8CHL1   C12  549   5.515   6.507   9.844  0.5506  0.2493 -0.3457
    8CHL1  H12A  550   5.505   6.400   9.816 -0.9606 -0.0417  1.1486
    8CHL1  H12B  551   5.620   6.527   9.815 -0.0696  0.1816 -2.8670
    8CHL1   C11  552   5.481   6.513   9.997 -1.0067  0.5056  0.8960
    8CHL1  H11A  553   5.393   6.445  10.005 -1.0401  0.3148 -0.7330
    8CHL1  H11B  554   5.566   6.468  10.052 -0.2008  2.3218  1.2231
    8CHL1    C9  555   5.466   6.656  10.046 -0.1838 -0.0668 -0.3012
    8CHL1    H9  556   5.565   6.705  10.032 -0.1349 -0.9565 -4.5126
    8CHL1   C10  557   5.413   6.660  10.193 -0.5596  0.3139  0.1071
    8CHL1   C19  558   5.294   6.556  10.204 -0.5332 -0.0213 -0.3455
    8CHL1  H19A  559   5.342   6.456  10.208  0.7503  0.5754 -0.2020
    8CHL1  H19B  560   5.229   6.566  10.293 -1.3023  2.1711 -1.0790
    8CHL1  H19C  561   5.225   6.560  10.117  0.5909  0.1044 -1.2566
    8CHL1    C1  562   5.533   6.616  10.287  0.2206  0.2285  0.1749
    8CHL1   H1A  563   5.554   6.508  10.274 -1.7512 -0.2696  0.7342
    8CHL1   H1B  564   5.615   6.685  10.256 -0.1949  0.2300 -0.9559
    8CHL1    C2  565   5.518   6.644  10.438  0.1560  0.1914 -0.5195
    8CHL1   H2A  566   5.610   6.628  10.499 -0.6134 -2.3384  0.1100
    8CHL1   H2B  567   5.442   6.572  10.475 -1.3124  2.9091  2.1378
    8CHL1   C20  568   5.475   6.525   9.505  0.3564 -0.3495  0.3156
    8CHL1   H20  569   5.396   6.449   9.525 -0.2783 -0.4030 -2.0858
    8CHL1   C21  570   5.608   6.447   9.514  0.0894  0.2559 -0.0949
    8CHL1  H21A  571   5.643   6.447   9.620  3.2955 -0.1355 -1.0487
    8CHL1  H21B  572   5.685   6.501   9.455 -0.5633  3.2364  1.5764
    8CHL1  H21C  573   5.607   6.340   9.482  0.1733  0.5872 -1.2195
    8CHL1   C22  574   5.454   6.578   9.360 -0.7707 -0.2358  0.2687
    8CHL1  H22A  575   5.349   6.610   9.345 -0.6689  0.3585  0.7853
    8CHL1  H22B  576   5.518   6.669   9.356  1.4258 -1.7361 -0.3410
    8CHL1   C23  577   5.483   6.467   9.252 -0.1690  0.1266  0.4214
    8CHL1  H23A  578   5.588   6.432   9.259 -0.2837 -0.2685  0.1863
    8CHL1  H23B  579   5.415   6.383   9.281 -1.0328  0.8625  0.5878
    8CHL1   C24  580   5.425   6.508   9.111  0.0667 -0.4865 -0.5263
    8CHL1  H24A  581   5.315   6.516   9.122  0.0713 -1.2117  0.0379
    8CHL1  H24B  582   5.468   6.606   9.081  1.1935 -1.1860 -1.2826
    8CHL1   C25  583   5.450   6.393   9.008  0.3675  0.3566 -0.2126
    8CHL1   H25  584   5.393   6.307   9.048  0.1706  0.4963 -0.1929
    8CHL1   C26  585   5.395   6.434   8.870  0.0499  0.1077  0.3367
    8CHL1  H26A  586   5.463   6.507   8.821  1.1415  1.0908  3.1222
    8CHL1  H26B  587   5.374   6.358   8.791  0.7368  0.8255 -0.5621
    8CHL1  H26C  588   5.299   6.484   8.892  0.0249 -0.3890  1.4054
    8CHL1   C27  589   5.600   6.362   8.993  0.0969  0.6777 -0.7637
    8CHL1  H27A  590   5.663   6.449   8.964 -0.9047  1.4811 -0.6112
    8CHL1  H27B  591   5.633   6.310   9.085 -2.9777 -3.1515 -1.5482
    8CHL1  H27C  592   5.617   6.280   8.920  0.9377 -1.5321  1.7953
    9CHL1    C3  593   1.661   6.639  10.309  0.0334  0.4524 -0.6039
    9CHL1    H3  594   1.550   6.634  10.320 -0.0445  0.3597 -1.4348
    9CHL1    O3  595   1.722   6.613  10.435 -0.0536 -0.8758  0.0512
    9CHL1   H3'  596   1.814   6.614  10.408 -0.1742 -0.7764 -0.3698
    9CHL1    C4  597   1.718   6.536  10.202  0.2120  0.0890 -0.3752
    9CHL1   H4A  598   1.827   6.554  10.209 -0.2350  2.5868  4.0920
    9CHL1   H4B  599   1.700   6.431  10.233  0.6959  0.5336  1.5307
    9CHL1    C5  600   1.658   6.555  10.059  0.2213 -0.5222  0.3844
    9CHL1    C6  601   1.596   6.455   9.999 -0.0812  0.4871  0.4999
    9CHL1    H6  602   1.599   6.357  10.047 -1.4450  0.5281  0.6856
    9CHL1    C7  603   1.540   6.459   9.859 -0.1230  0.3798  0.2893
    9CHL1   H7A  604   1.579   6.368   9.809  0.0941  0.3666  0.4829
    9CHL1   H7B  605   1.429   6.454   9.857 -0.1087  0.2537 -1.0419
    9CHL1    C8  606   1.586   6.589   9.782  0.3418 -0.3225 -0.0660
    9CHL1    H8  607   1.690   6.565   9.751 -0.3251 -2.2995 -0.9565
    9CHL1   C14  608   1.509   6.614   9.652 -0.3352  0.2844 -0.2173
    9CHL1   H14  609   1.402   6.631   9.678 -0.7190 -2.1988  0.0999
    9CHL1   C15  610   1.503   6.501   9.551  0.2206  0.3041  0.7106
    9CHL1  H15A  611   1.605   6.463   9.528 -0.4930 -0.9081 -0.6027
    9CHL1  H15B  612   1.443   6.417   9.592 -0.9218  0.8034  0.1152
    9CHL1   C16  613   1.442   6.573   9.427  0.5231 -0.4565 -0.1697
    9CHL1  H16A  614   1.480   6.531   9.332  0.5213 -1.2080  0.1584
    9CHL1  H16B  615   1.334   6.559   9.409  0.5872  1.5673 -2.7413
    9CHL1   C17  616   1.459   6.729   9.445 -0.3252 -0.5014 -0.6879
    9CHL1   H17  617   1.357   6.766   9.467 -0.0764 -0.6594  0.8121
    9CHL1   C13  618   1.545   6.738   9.575  0.6470  0.7953  0.0884
    9CHL1   C18  619   1.690   6.744   9.533 -0.5012 -0.0972 -0.3857
    9CHL1  H18A  620   1.716   6.834   9.474 -0.6601  0.8171  0.8889
    9CHL1  H18B  621   1.764   6.742   9.616  0.9743 -1.7889 -1.6708
    9CHL1  H18C  622   1.701   6.654   9.469 -0.1215 -0.3635  0.0429
    9CHL1   C12  623   1.511   6.861   9.672  0.4620 -0.2611 -0.0190
    9CHL1  H12A  624   1.544   6.955   9.623 -1.7085 -0.1775 -1.4481
    9CHL1  H12B  625   1.404   6.873   9.697  0.8056 -0.7773  1.8038
    9CHL1   C11  626   1.588   6.853   9.804  0.3411 -0.0635  0.3195
    9CHL1  H11A  627   1.691   6.889   9.782 -0.3976  1.7486 -0.4164
    9CHL1  H11B  628   1.541   6.928   9.871 -0.3123  0.4995 -0.7319
    9CHL1    C9  629   1.581   6.710   9.873 -0.3164  0.3878 -0.7274
    9CHL1    H9  630   1.475   6.709   9.906 -0.1006 -0.2130 -0.0121
    9CHL1   C10  631   1.676   6.699  10.000 -0.0987  0.3200 -0.2715
    9CHL1   C19  632   1.818   6.722   9.960 -0.3339 -0.4513  0.1111
    9CHL1  H19A  633   1.829   6.831   9.943 -1.1896 -0.2428  0.8487
    9CHL1  H19B  634   1.890   6.687  10.038 -0.4565  0.6216  0.7168
    9CHL1  H19C  635   1.840   6.670   9.864  1.2038  0.8516 -0.2900
    9CHL1    C1  636   1.633   6.797  10.112 -1.0520  0.1104 -0.5307
    9CHL1   H1A  637   1.679   6.896  10.090  2.7850 -0.7869  2.3352
    9CHL1   H1B  638   1.523   6.802  10.124 -0.9274  0.5613  0.6090
    9CHL1    C2  639   1.688   6.780  10.263 -0.1011 -0.4503 -0.0425
    9CHL1   H2A  640   1.647   6.858  10.330  0.6493 -0.9232  1.0008
    9CHL1   H2B  641   1.798   6.789  10.254 -0.3662  0.8050 -2.9723
    9CHL1   C20  642   1.496   6.814   9.322  0.6571 -0.2399  0.3717
    9CHL1   H20  643   1.587   6.768   9.277 -0.7377 -1.8225 -0.9823
    9CHL1   C21  644   1.505   6.966   9.355 -0.2055  0.7273 -0.5319
    9CHL1  H21A  645   1.522   7.026   9.263  0.2260  1.7313  0.1866
    9CHL1  H21B  646   1.598   6.982   9.414  0.7923 -0.6968 -1.6300
    9CHL1  H21C  647   1.418   6.995   9.418 -0.5131  0.8551 -1.0113
    9CHL1   C22  648   1.395   6.798   9.198 -0.6169  0.5147 -0.3977
    9CHL1  H22A  649   1.341   6.701   9.202 -2.4773  1.5252  0.3809
    9CHL1  H22B  650   1.308   6.867   9.208  0.6052  2.5546 -2.7081
    9CHL1   C23  651   1.454   6.836   9.057 -0.3186  0.3344  0.0922
    9CHL1  H23A  652   1.496   6.939   9.054  1.3169 -0.3157 -1.6589
    9CHL1  H23B  653   1.532   6.761   9.036  0.2498  1.3163 -1.4974
    9CHL1   C24  654   1.347   6.833   8.947 -0.0617  0.3650  0.3415
    9CHL1  H24A  655   1.297   6.735   8.935 -2.1127  1.5459 -1.4237
    9CHL1  H24B  656   1.271   6.911   8.968 -1.4641 -0.6237 -0.8679
    9CHL1   C25  657   1.397   6.862   8.807 -0.5383 -0.0485 -0.6947
    9CHL1   H25  658   1.476   6.786   8.787 -1.9453 -1.6873 -0.2676
    9CHL1   C26  659   1.288   6.851   8.703  0.1834 -0.1165 -0.4090
    9CHL1  H26A  660   1.330   6.858   8.601  2.8324 -0.5188  0.5700
    9CHL1  H26B  661   1.235   6.753   8.714  0.7290 -0.2957  0.8019
    9CHL1  H26C  662   1.212   6.932   8.708 -0.7933 -0.7249 -3.3327
    9CHL1   C27  663   1.456   7.006   8.802  0.3715 -0.2487 -0.4996
    9CHL1  H27A  664   1.548   7.000   8.864  0.3173  1.0472 -0.2664
    9CHL1  H27B  665   1.480   7.025   8.695  0.9318 -0.7522 -0.4679
    9CHL1  H27C  666   1.390   7.086   8.841 -0.3492 -0.0864 -1.9888
   10CHL1    C3  667   0.223   3.345   9.776  0.0343  0.5239  0.5562
   10CHL1    H3  668   0.137   3.276   9.783 -1.0936  1.9733  1.8453
   10CHL1    O3  669   0.234   3.417   9.896  0.3149  0.0305  0.3167
   10CHL1   H3'  670   0.305   3.481   9.883 -1.5172  2.0244 -0.4835
   10CHL1    C4  671   0.346   3.254   9.756  0.0405 -0.3554 -0.1047
   10CHL1   H4A  672   0.431   3.321   9.780 -0.6482  0.4631  0.1185
   10CHL1   H4B  673   0.348   3.177   9.836  2.1291  1.0883  1.3441
   10CHL1    C5  674   0.353   3.195   9.615 -0.5177 -0.1191 -0.5122
   10CHL1    C6  675   0.369   3.069   9.596 -0.5196  0.1601 -0.5099
   10CHL1    H6  676   0.381   2.995   9.676 -0.7922  1.1559  0.4775
   10CHL1    C7  677   0.390   3.010   9.454  0.9144 -0.2102 -1.1323
   10CHL1   H7A  678   0.473   2.936   9.457  1.8125  0.7311  2.3589
   10CHL1   H7B  679   0.300   2.953   9.425  0.6250 -0.2013 -0.2796
   10CHL1    C8  680   0.405   3.113   9.344 -0.6823  0.7586  0.0456
   10CHL1    H8  681   0.510   3.137   9.372 -0.2251 -2.2493  1.2643
   10CHL1   C14  682   0.397   3.060   9.203  0.2769 -0.5525 -0.6230
   10CHL1   H14  683   0.300   3.012   9.177  1.6636 -2.0407 -3.4842
   10CHL1   C15  684   0.486   2.941   9.172 -0.1832  0.0743 -0.0559
   10CHL1  H15A  685   0.588   2.971   9.204 -1.0742  1.1823  1.8698
   10CHL1  H15B  686   0.468   2.842   9.220  1.1987  0.3871  1.1749
   10CHL1   C16  687   0.479   2.944   9.013 -0.2749 -0.3687 -0.1589
   10CHL1  H16A  688   0.584   2.937   8.979  0.0653  1.3914  0.4244
   10CHL1  H16B  689   0.413   2.864   8.973 -0.2370 -0.6352  0.3119
   10CHL1   C17  690   0.420   3.078   8.968  0.0078  0.1936 -0.1461
   10CHL1   H17  691   0.311   3.060   8.951  0.1090  1.6508 -2.8608
   10CHL1   C13  692   0.426   3.167   9.098  0.0573  0.0401 -0.6331
   10CHL1   C18  693   0.565   3.229   9.119 -0.1678  0.3707 -0.2735
   10CHL1  H18A  694   0.589   3.301   9.038  0.7469 -1.9008 -2.1568
   10CHL1  H18B  695   0.584   3.273   9.219  1.2991 -0.1527 -0.2984
   10CHL1  H18C  696   0.640   3.147   9.117  0.0201  0.4699 -4.0679
   10CHL1   C12  697   0.310   3.271   9.114  0.0637  0.8387  0.6355
   10CHL1  H12A  698   0.323   3.354   9.041 -0.1385  0.5983  0.3278
   10CHL1  H12B  699   0.221   3.212   9.086  1.3401 -0.5555 -0.6357
   10CHL1   C11  700   0.306   3.328   9.252  0.2417 -0.2102 -0.3269
   10CHL1  H11A  701   0.379   3.411   9.264  1.1907 -0.8668 -1.4448
   10CHL1  H11B  702   0.207   3.380   9.258  1.2533  1.7781  0.0818
   10CHL1    C9  703   0.318   3.231   9.365  0.0447 -0.2999  0.3775
   10CHL1    H9  704   0.220   3.178   9.370 -2.1114  3.3843  0.9532
   10CHL1   C10  705   0.329   3.295   9.503  0.5978 -0.3810  0.0610
   10CHL1   C19  706   0.456   3.392   9.503 -0.3713 -0.1051 -1.1316
   10CHL1  H19A  707   0.541   3.341   9.451  1.7191  1.3476  0.7082
   10CHL1  H19B  708   0.422   3.483   9.450  0.5871 -1.5857 -4.5917
   10CHL1  H19C  709   0.493   3.420   9.603  0.9930  1.4364 -2.0216
   10CHL1    C1  710   0.196   3.372   9.534  0.2050  0.4482  0.6746
   10CHL1   H1A  711   0.183   3.452   9.458 -2.5427 -2.7835 -2.6258
   10CHL1   H1B  712   0.114   3.298   9.522 -0.2424  0.5385  2.8873
   10CHL1    C2  713   0.206   3.441   9.665 -0.3119 -0.5241 -0.0839
   10CHL1   H2A  714   0.122   3.510   9.688  1.2743  0.7198  2.4244
   10CHL1   H2B  715   0.296   3.506   9.665  0.5466 -1.6660  0.7112
   10CHL1   C20  716   0.483   3.130   8.837  0.3358 -0.0398 -1.3833
   10CHL1   H20  717   0.589   3.149   8.865  0.2440 -2.3517  0.8948
   10CHL1   C21  718   0.401   3.257   8.797  0.3804  0.2997  0.1535
   10CHL1  H21A  719   0.292   3.238   8.796  0.5356 -0.6601  0.1462
   10CHL1  H21B  720   0.433   3.283   8.694  0.3006 -2.3215 -0.6022
   10CHL1  H21C  721   0.420   3.335   8.873 -3.0517  1.2972  0.1487
   10CHL1   C22  722   0.485   3.050   8.709  0.1093 -0.3044 -0.4142
   10CHL1  H22A  723   0.469   2.941   8.726 -0.8133 -0.0212  0.6374
   10CHL1  H22B  724   0.394   3.070   8.649 -0.5777  0.5282  0.8491
   10CHL1   C23  725   0.613   3.081   8.619 -0.3274 -0.1930 -1.0048
   10CHL1  H23A  726   0.627   3.191   8.615 -0.1503 -0.2359 -1.6073
   10CHL1  H23B  727   0.692   3.019   8.667 -0.5357  1.6151  1.9316
   10CHL1   C24  728   0.605   3.024   8.474  0.0192 -0.5625  0.0645
   10CHL1  H24A  729   0.591   2.915   8.486  3.0187 -0.8249  2.2624
   10CHL1  H24B  730   0.514   3.069   8.428  0.6150  1.9624  1.1854
   10CHL1   C25  731   0.730   3.061   8.392  0.3991  0.2731 -0.2936
   10CHL1   H25  732   0.754   3.170   8.400  1.0918  0.2564 -1.6907
   10CHL1   C26  733   0.854   2.993   8.446 -0.1248  0.0650  0.2132
   10CHL1  H26A  734   0.943   3.031   8.392  0.0749 -0.5921  0.0718
   10CHL1  H26B  735   0.881   3.030   8.548 -0.2638  0.1813  0.2086
   10CHL1  H26C  736   0.843   2.883   8.441  0.0895  0.0242  0.5649
   10CHL1   C27  737   0.706   3.012   8.249  0.1241 -0.0535  0.3413
   10CHL1  H27A  738   0.697   2.901   8.242 -0.8917  0.0352  0.0983
   10CHL1  H27B  739   0.613   3.050   8.202  0.6057  1.4112  0.5135
   10CHL1  H27C  740   0.797   3.039   8.191  0.6177  0.3980  1.3066
   11CHL1    C3  741   4.652   1.380  10.180  0.0369 -0.1823  0.2274
   11CHL1    H3  742   4.560   1.317  10.182  0.1791 -0.5142 -1.6727
   11CHL1    O3  743   4.708   1.388  10.311  0.8620  0.0908 -0.0753
   11CHL1   H3'  744   4.698   1.297  10.340  0.0112  0.4198  0.6824
   11CHL1    C4  745   4.746   1.302  10.095 -0.0860 -0.8417 -0.7879
   11CHL1   H4A  746   4.839   1.362  10.108 -0.6982  0.0221 -0.3236
   11CHL1   H4B  747   4.758   1.201  10.139  0.3239 -0.3586  0.2535
   11CHL1    C5  748   4.707   1.295   9.948 -0.3220 -0.1495  1.3084
   11CHL1    C6  749   4.695   1.183   9.876  0.1948  0.0480  0.5653
   11CHL1    H6  750   4.711   1.087   9.927 -2.4205 -1.2805 -0.8956
   11CHL1    C7  751   4.652   1.189   9.728  0.4732 -0.6154 -0.0764
   11CHL1   H7A  752   4.714   1.117   9.671 -0.0722  0.0682 -1.5861
   11CHL1   H7B  753   4.550   1.144   9.729  0.4441 -0.5539 -0.2704
   11CHL1    C8  754   4.653   1.327   9.660  0.1562 -0.1145 -0.2204
   11CHL1    H8  755   4.758   1.354   9.635  0.9487  0.1166  2.9974
   11CHL1   C14  756   4.569   1.328   9.537 -0.2559  0.6872  0.0916
   11CHL1   H14  757   4.462   1.305   9.560  0.5554 -1.0939  2.4695
   11CHL1   C15  758   4.585   1.213   9.431 -0.3417  0.3925 -0.0022
   11CHL1  H15A  759   4.689   1.189   9.400 -0.9987 -3.6947  0.4081
   11CHL1  H15B  760   4.554   1.114   9.472  1.5413 -0.3029 -0.1909
   11CHL1   C16  761   4.516   1.261   9.303  0.5463  0.0246  0.0983
   11CHL1  H16A  762   4.580   1.268   9.212  0.6487  0.0911  0.1743
   11CHL1  H16B  763   4.429   1.198   9.277  0.6456  0.0229 -0.2329
   11CHL1   C17  764   4.473   1.409   9.340  0.2915  0.6167  0.2433
   11CHL1   H17  765   4.372   1.410   9.384  1.0005  0.5124  1.9418
   11CHL1   C13  766   4.563   1.458   9.455 -0.6959  0.4276  0.4195
   11CHL1   C18  767   4.701   1.504   9.398  0.0410 -0.3176 -0.4585
   11CHL1  H18A  768   4.691   1.596   9.337 -1.3360 -0.3196 -0.2675
   11CHL1  H18B  769   4.765   1.522   9.487  0.5252 -0.7321 -0.7201
   11CHL1  H18C  770   4.742   1.424   9.332 -2.1838 -0.7318 -1.4245
   11CHL1   C12  771   4.501   1.564   9.553  0.5803 -0.4205 -0.2636
   11CHL1  H12A  772   4.491   1.659   9.495 -0.6141 -0.2298  0.2252
   11CHL1  H12B  773   4.397   1.529   9.567  0.4014  0.3077  0.2871
   11CHL1   C11  774   4.567   1.569   9.686  0.1210 -0.8180 -0.1713
   11CHL1  H11A  775   4.658   1.632   9.676  0.2122 -1.2624 -2.6154
   11CHL1  H11B  776   4.498   1.628   9.751  0.2687  0.7447 -1.3745
   11CHL1    C9  777   4.594   1.433   9.753  0.2832  0.4283  0.4528
   11CHL1    H9  778   4.494   1.390   9.774  1.0585 -1.5381  0.3142
   11CHL1   C10  779   4.666   1.432   9.886  0.4377  0.1218 -0.5666
   11CHL1   C19  780   4.801   1.499   9.860 -0.0891 -0.5408 -0.0596
   11CHL1  H19A  781   4.806   1.604   9.825 -0.1773  0.0077  1.4795
   11CHL1  H19B  782   4.864   1.501   9.952 -0.0390 -3.4452  0.0642
   11CHL1  H19C  783   4.856   1.444   9.781  0.5602  2.9381 -2.2118
   11CHL1    C1  784   4.576   1.509   9.986 -0.6267  0.7015 -0.7475
   11CHL1   H1A  785   4.567   1.616   9.960 -1.1143  0.7679 -0.3367
   11CHL1   H1B  786   4.473   1.466   9.989 -0.0981 -1.0429 -3.8837
   11CHL1    C2  787   4.629   1.522  10.126 -0.0101  0.5708  0.3890
   11CHL1   H2A  788   4.546   1.562  10.188  0.0069 -0.2928  0.9890
   11CHL1   H2B  789   4.721   1.584  10.137  1.0323 -0.7462 -0.5715
   11CHL1   C20  790   4.457   1.493   9.212  0.5385 -0.5988 -0.2595
   11CHL1   H20  791   4.549   1.479   9.151  1.4676 -1.6914  1.3170
   11CHL1   C21  792   4.434   1.642   9.235  0.2591  0.5287  0.2920
   11CHL1  H21A  793   4.404   1.707   9.149  1.5294  0.4534 -0.2174
   11CHL1  H21B  794   4.520   1.691   9.285 -0.5004  0.6614  1.5230
   11CHL1  H21C  795   4.346   1.652   9.302 -0.2511  0.1018 -0.2998
   11CHL1   C22  796   4.348   1.434   9.115  0.1532  0.1036 -0.3647
   11CHL1  H22A  797   4.354   1.323   9.110  1.1572  0.1858 -4.4251
   11CHL1  H22B  798   4.250   1.451   9.164  0.5679 -0.1689  0.5827
   11CHL1   C23  799   4.350   1.494   8.966  0.2200 -0.0085 -0.4730
   11CHL1  H23A  800   4.247   1.489   8.927  0.2478  0.4624 -0.6116
   11CHL1  H23B  801   4.373   1.602   8.977  1.1941 -0.2426 -0.0746
   11CHL1   C24  802   4.459   1.419   8.878 -0.0631  0.2700 -0.1610
   11CHL1  H24A  803   4.553   1.428   8.937  0.0622  0.8174 -0.4399
   11CHL1  H24B  804   4.426   1.313   8.885 -0.7651  0.5363  0.7804
   11CHL1   C25  805   4.480   1.486   8.737 -0.1247 -0.2959 -0.3439
   11CHL1   H25  806   4.541   1.412   8.681 -0.2926 -1.0062  0.3934
   11CHL1   C26  807   4.344   1.506   8.674 -0.3123 -0.9732  0.5831
   11CHL1  H26A  808   4.295   1.588   8.731 -1.3405 -1.8227  0.9613
   11CHL1  H26B  809   4.366   1.540   8.570  0.1003 -0.2162  0.9133
   11CHL1  H26C  810   4.283   1.413   8.674 -1.6579 -0.2730  4.4175
   11CHL1   C27  811   4.557   1.619   8.751 -0.2550 -0.0430 -0.1648
   11CHL1  H27A  812   4.664   1.601   8.776 -0.5891 -0.0680  1.2973
   11CHL1  H27B  813   4.539   1.678   8.658 -0.7443  1.1318  0.6472
   11CHL1  H27C  814   4.512   1.674   8.836  1.2883 -1.3656  1.5896
   12CHL1    C3  815   6.542   2.974   9.744  0.6670 -0.0388  0.3138
   12CHL1    H3  816   6.443   3.023   9.728  0.2817  0.5354  3.7017
   12CHL1    O3  817   6.550   2.930   9.878 -0.1649 -0.2077  0.2040
   12CHL1   H3'  818   6.597   3.001   9.923  4.1679 -1.4982 -1.7494
   12CHL1    C4  819   6.562   2.848   9.660  0.3726  0.2199  0.1462
   12CHL1   H4A  820   6.653   2.796   9.696  1.1483  1.8620  0.6162
   12CHL1   H4B  821   6.474   2.782   9.679 -1.2124  1.4217 -2.4987
   12CHL1    C5  822   6.563   2.886   9.515  0.3370  0.1375 -0.1209
   12CHL1    C6  823   6.478   2.831   9.426 -0.1297 -0.1028  0.6564
   12CHL1    H6  824   6.402   2.761   9.465  0.7162 -2.0719 -1.0823
   12CHL1    C7  825   6.477   2.857   9.281 -0.6031  0.4037  0.2944
   12CHL1   H7A  826   6.462   2.767   9.218  1.4410  0.3533 -0.1969
   12CHL1   H7B  827   6.399   2.936   9.271 -1.6446 -0.6270  0.1248
   12CHL1    C8  828   6.605   2.934   9.227  0.2294 -0.2289  0.5519
   12CHL1    H8  829   6.685   2.856   9.226  0.9537  0.5079 -0.2593
   12CHL1   C14  830   6.582   2.990   9.094  0.3371  0.3754 -0.4545
   12CHL1   H14  831   6.501   3.066   9.104 -1.4620 -1.6805  1.8968
   12CHL1   C15  832   6.537   2.889   8.986 -0.0736 -0.3746  0.2274
   12CHL1  H15A  833   6.596   2.796   8.996 -1.9958 -1.4500  2.7607
   12CHL1  H15B  834   6.429   2.862   8.984 -0.2659  0.2508 -2.9661
   12CHL1   C16  835   6.553   2.965   8.849  1.3872  0.3331  0.0930
   12CHL1  H16A  836   6.608   2.908   8.771  1.7490  0.8431 -0.0302
   12CHL1  H16B  837   6.454   2.998   8.811  1.2305  0.6730  0.7865
   12CHL1   C17  838   6.636   3.091   8.884  0.5998  1.0327 -0.6441
   12CHL1   H17  839   6.555   3.167   8.894 -0.0674  0.0539  2.2230
   12CHL1   C13  840   6.691   3.070   9.028 -0.4175  0.2100 -0.3156
   12CHL1   C18  841   6.812   2.974   9.015  0.3829  0.4634 -0.3826
   12CHL1  H18A  842   6.798   2.888   8.947  2.0010 -0.8061  0.8107
   12CHL1  H18B  843   6.903   3.022   8.972  0.7186  1.4851  1.3579
   12CHL1  H18C  844   6.829   2.925   9.113 -0.0845  1.5385  0.2555
   12CHL1   C12  845   6.730   3.185   9.122 -0.2116 -0.3256 -0.6360
   12CHL1  H12A  846   6.822   3.229   9.078 -0.7336 -1.0804 -2.5724
   12CHL1  H12B  847   6.646   3.258   9.127  0.8394  0.9635 -1.0274
   12CHL1   C11  848   6.758   3.147   9.268 -0.4028  0.2212  0.3729
   12CHL1  H11A  849   6.859   3.100   9.270 -0.3789  0.2941  1.2060
   12CHL1  H11B  850   6.765   3.237   9.334  0.0546  0.1990  0.3574
   12CHL1    C9  851   6.648   3.047   9.327 -0.9605 -0.2287 -0.7161
   12CHL1    H9  852   6.555   3.108   9.327  0.2525  1.7049  0.8512
   12CHL1   C10  853   6.669   2.993   9.475 -0.2798  0.1271  0.2820
   12CHL1   C19  854   6.807   2.917   9.491  0.8826 -0.4701  0.6541
   12CHL1  H19A  855   6.889   2.987   9.467 -0.8408  1.5306  0.3126
   12CHL1  H19B  856   6.810   2.891   9.599  1.1588  3.6245  1.8120
   12CHL1  H19C  857   6.804   2.826   9.428  0.6131  0.4071 -0.6361
   12CHL1    C1  858   6.655   3.112   9.570  0.4200 -0.6681  0.3940
   12CHL1   H1A  859   6.731   3.190   9.551 -3.2632  2.8482 -1.6774
   12CHL1   H1B  860   6.566   3.171   9.538  0.2934  0.2182  2.2363
   12CHL1    C2  861   6.661   3.071   9.720  0.4115 -0.6230  0.5125
   12CHL1   H2A  862   6.649   3.164   9.779 -0.5201 -0.4884  0.1308
   12CHL1   H2B  863   6.753   3.017   9.752  0.7023 -1.3300 -1.4056
   12CHL1   C20  864   6.737   3.138   8.772 -0.4289 -0.9233  0.0625
   12CHL1   H20  865   6.800   3.051   8.743 -1.3621 -1.7640  0.5033
   12CHL1   C21  866   6.825   3.260   8.804  0.3626  0.2759 -0.0680
   12CHL1  H21A  867   6.903   3.236   8.879  0.9299 -1.2807 -1.1060
   12CHL1  H21B  868   6.768   3.353   8.826  2.7117  1.5197  1.0962
   12CHL1  H21C  869   6.890   3.282   8.717 -0.1250  1.0258 -0.2501
   12CHL1   C22  870   6.652   3.172   8.647 -0.1934  0.3795 -0.2464
   12CHL1  H22A  871   6.585   3.085   8.632 -0.0213  0.2087 -0.0259
   12CHL1  H22B  872   6.592   3.261   8.674 -2.9196 -0.7548 -2.1002
   12CHL1   C23  873   6.726   3.199   8.513 -0.5543  0.3326 -0.3484
   12CHL1  H23A  874   6.779   3.296   8.525 -1.1256  0.5127  0.9224
   12CHL1  H23B  875   6.807   3.124   8.498  0.5537  1.7908 -2.0209
   12CHL1   C24  876   6.646   3.205   8.385 -0.2843 -0.6464  0.2310
   12CHL1  H24A  877   6.585   3.113   8.375 -1.2551  0.2210 -3.3509
   12CHL1  H24B  878   6.567   3.284   8.388 -1.5933 -1.9394  0.8590
   12CHL1   C25  879   6.725   3.217   8.253  0.3805 -0.4098 -0.7971
   12CHL1   H25  880   6.790   3.128   8.257  1.8437  0.5954 -1.3016
   12CHL1   C26  881   6.641   3.218   8.124  0.1369  0.6988  0.2349
   12CHL1  H26A  882   6.583   3.125   8.108  1.6503  0.0231 -1.6791
   12CHL1  H26B  883   6.570   3.303   8.114  1.2756  1.5476 -0.9112
   12CHL1  H26C  884   6.707   3.227   8.035 -0.9436 -1.3625 -0.8510
   12CHL1   C27  885   6.832   3.329   8.248 -0.6662  0.2549 -0.2113
   12CHL1  H27A  886   6.911   3.321   8.171 -0.1113  2.6131  0.0273
   12CHL1  H27B  887   6.787   3.426   8.215  0.7584  0.4211 -1.7769
   12CHL1  H27C  888   6.872   3.352   8.350 -0.4700  0.3156 -0.3016
   13CHL1    C3  889   6.182   5.091  10.117  0.0296  0.8932  0.0611
   13CHL1    H3  890   6.269   5.025  10.093 -2.1535 -2.3930  0.4314
   13CHL1    O3  891   6.155   5.086  10.264 -0.1119  0.2544 -0.9721
   13CHL1   H3'  892   6.210   5.153  10.306  0.4130  0.5865 -2.1515
   13CHL1    C4  893   6.226   5.225  10.068 -0.5489 -0.1274  0.4184
   13CHL1   H4A  894   6.149   5.300  10.095 -2.2104 -1.4075 -0.5908
   13CHL1   H4B  895   6.326   5.256  10.107  0.5016 -1.3863 -1.1651
   13CHL1    C5  896   6.229   5.235   9.915  0.0907 -0.3520  0.5602
   13CHL1    C6  897   6.345   5.273   9.863  0.8222  0.7152  0.0532
   13CHL1    H6  898   6.435   5.298   9.922  0.6763  0.2987  0.4494
   13CHL1    C7  899   6.365   5.284   9.718 -0.0825  0.2632  0.2107
   13CHL1   H7A  900   6.419   5.380   9.703  0.9105  0.0191  1.9473
   13CHL1   H7B  901   6.413   5.190   9.683 -2.8125 -0.7040 -1.1808
   13CHL1    C8  902   6.232   5.297   9.643  1.2986 -0.1212 -0.6482
   13CHL1    H8  903   6.180   5.390   9.677 -0.4918 -1.1516 -0.4443
   13CHL1   C14  904   6.249   5.285   9.488  0.0256 -0.1833  0.6857
   13CHL1   H14  905   6.297   5.186   9.475  1.2814  0.4880  0.1391
   13CHL1   C15  906   6.342   5.384   9.415  0.1316 -0.2567  0.0962
   13CHL1  H15A  907   6.326   5.491   9.441 -2.7992 -1.1366  2.4191
   13CHL1  H15B  908   6.447   5.363   9.446  1.1686  0.6691 -2.5199
   13CHL1   C16  909   6.309   5.360   9.264 -0.0992 -0.3203 -0.4413
   13CHL1  H16A  910   6.306   5.462   9.219  1.0691  0.8764  1.9850
   13CHL1  H16B  911   6.393   5.306   9.215  0.8714  0.1114  0.6927
   13CHL1   C17  912   6.174   5.276   9.260 -0.2348 -0.3094  0.3223
   13CHL1   H17  913   6.206   5.172   9.240 -1.8726 -0.6676 -0.5954
   13CHL1   C13  914   6.120   5.281   9.407  0.0923 -0.2037  0.9693
   13CHL1   C18  915   6.044   5.410   9.415  0.8862 -0.3843  0.3187
   13CHL1  H18A  916   6.049   5.450   9.518 -0.2978  1.4365 -0.2647
   13CHL1  H18B  917   6.094   5.488   9.354  0.6310  0.6118  1.3552
   13CHL1  H18C  918   5.941   5.386   9.381  0.1242 -1.0438  2.8700
   13CHL1   C12  919   6.039   5.159   9.463  0.2868 -0.0425 -0.6277
   13CHL1  H12A  920   5.938   5.158   9.415 -0.3643 -1.8950  0.6582
   13CHL1  H12B  921   6.089   5.063   9.440 -1.0605 -1.1913  1.0025
   13CHL1   C11  922   6.009   5.174   9.609 -0.1465  0.4794 -0.1122
   13CHL1  H11A  923   5.948   5.267   9.621 -0.9551  0.4538 -3.1810
   13CHL1  H11B  924   5.969   5.078   9.647 -2.9743  1.0849 -1.3156
   13CHL1    C9  925   6.137   5.185   9.689  0.0666 -0.0886 -0.3553
   13CHL1    H9  926   6.203   5.097   9.671 -0.9715 -0.9858  0.0954
   13CHL1   C10  927   6.110   5.189   9.834 -0.5319 -0.2784  0.6051
   13CHL1   C19  928   5.994   5.294   9.861  0.2418 -0.0838 -0.1957
   13CHL1  H19A  929   5.895   5.251   9.834  1.6495 -3.3983 -0.6057
   13CHL1  H19B  930   5.983   5.317   9.969 -0.3168  3.8716 -0.9361
   13CHL1  H19C  931   6.007   5.388   9.803  0.7927 -0.2042 -0.2734
   13CHL1    C1  932   6.070   5.047   9.892 -0.2079 -0.4474  0.0093
   13CHL1   H1A  933   5.973   5.013   9.850 -2.1854  0.7844  3.1914
   13CHL1   H1B  934   6.147   4.976   9.854 -0.6669 -1.0508  0.2039
   13CHL1    C2  935   6.062   5.030  10.044  0.2650  0.2647 -0.1616
   13CHL1   H2A  936   6.041   4.929  10.086 -0.7528  0.0014 -1.2540
   13CHL1   H2B  937   5.976   5.090  10.080  1.0256  0.8663  0.6781
   13CHL1   C20  938   6.090   5.314   9.135 -0.1310 -0.0990 -0.6488
   13CHL1   H20  939   6.032   5.407   9.155  0.0573 -0.1422  0.1474
   13CHL1   C21  940   5.974   5.216   9.120 -0.0219 -0.3561  0.0979
   13CHL1  H21A  941   5.914   5.205   9.213 -0.7468  1.5159 -0.0984
   13CHL1  H21B  942   6.013   5.115   9.094 -0.7939 -1.3811  2.5922
   13CHL1  H21C  943   5.914   5.238   9.029  3.3321 -2.0955 -2.8115
   13CHL1   C22  944   6.160   5.335   9.001 -0.4687  0.1750  0.8479
   13CHL1  H22A  945   6.081   5.354   8.925  1.8711 -0.6540 -1.9711
   13CHL1  H22B  946   6.226   5.424   8.999  0.9960 -0.8853 -0.1345
   13CHL1   C23  947   6.234   5.208   8.950 -0.5465  0.5545 -0.1585
   13CHL1  H23A  948   6.315   5.185   9.022 -0.6471  0.7489  0.0202
   13CHL1  H23B  949   6.168   5.119   8.962 -1.6580  1.1600 -1.4580
   13CHL1   C24  950   6.258   5.223   8.803  0.1460  0.1800  0.8698
   13CHL1  H24A  951   6.164   5.250   8.751  0.3574  3.2263  1.8752
   13CHL1  H24B  952   6.325   5.311   8.795 -0.8714  1.0273  1.4753
   13CHL1   C25  953   6.320   5.095   8.733  1.0883  0.1349  0.5177
   13CHL1   H25  954   6.270   5.000   8.762 -1.0199  0.7007 -1.0194
   13CHL1   C26  955   6.296   5.112   8.577  0.0456 -0.1785  0.9156
   13CHL1  H26A  956   6.343   5.024   8.529  0.2697  0.6444 -0.4319
   13CHL1  H26B  957   6.187   5.113   8.556  0.0840  1.6168  0.6011
   13CHL1  H26C  958   6.339   5.207   8.538 -1.9723  0.5512  0.2825
   13CHL1   C27  959   6.468   5.092   8.749  0.4369 -0.8804  0.3612
   13CHL1  H27A  960   6.489   5.112   8.856 -1.6072  1.5439  0.4196
   13CHL1  H27B  961   6.489   4.992   8.705 -1.3194 -0.5539 -1.4159
   13CHL1  H27C  962   6.514   5.170   8.684  0.5268  0.3437  1.8315
   14CHL1    C3  963   4.146   1.513  10.114 -0.1445  0.5013 -0.1280
   14CHL1    H3  964   4.255   1.531  10.127 -0.1138 -0.4509  1.0947
   14CHL1    O3  965   4.102   1.483  10.244  0.1812  0.4361 -0.0020
   14CHL1   H3'  966   4.156   1.406  10.265  0.6043  0.2748 -1.6051
   14CHL1    C4  967   4.067   1.629  10.071 -0.2534 -0.0645  0.4153
   14CHL1   H4A  968   3.957   1.615  10.084 -0.0001  0.4629  4.6612
   14CHL1   H4B  969   4.092   1.701  10.151  0.2899 -0.2984  0.4609
   14CHL1    C5  970   4.083   1.667   9.924 -0.4506 -0.6021 -0.4258
   14CHL1    C6  971   4.121   1.792   9.886 -0.8277  0.3883 -0.2389
   14CHL1    H6  972   4.147   1.865   9.964 -3.1854  0.5246  0.4782
   14CHL1    C7  973   4.137   1.841   9.741  0.2412 -0.4502  0.2868
   14CHL1   H7A  974   4.086   1.936   9.714 -0.2364  0.1601  3.0821
   14CHL1   H7B  975   4.244   1.840   9.713 -0.4347  0.3245 -2.7338
   14CHL1    C8  976   4.064   1.745   9.646  0.4347 -0.3176  0.8361
   14CHL1    H8  977   3.955   1.762   9.657  0.5950  2.8600 -1.3245
   14CHL1   C14  978   4.101   1.771   9.499 -0.8313 -0.0657 -0.2791
   14CHL1   H14  979   4.203   1.727   9.490 -0.8576 -0.2326  0.2340
   14CHL1   C15  980   4.114   1.917   9.449  0.7890  0.3280  0.2615
   14CHL1  H15A  981   4.032   1.979   9.489  1.2307  0.2047  1.4116
   14CHL1  H15B  982   4.220   1.947   9.466  2.3968 -3.2173 -2.1966
   14CHL1   C16  983   4.093   1.910   9.296 -0.3023 -0.3586  0.1171
   14CHL1  H16A  984   4.013   1.973   9.252  1.3377  1.4516 -0.3975
   14CHL1  H16B  985   4.191   1.941   9.253  1.1225 -1.2179  2.5255
   14CHL1   C17  986   4.069   1.766   9.264 -0.8040  0.4978  0.4243
   14CHL1   H17  987   4.170   1.722   9.249 -1.7411 -2.3685  1.8505
   14CHL1   C13  988   4.017   1.700   9.394  0.8337 -0.2656  0.0750
   14CHL1   C18  989   3.868   1.748   9.412 -0.2009  0.0139  0.1162
   14CHL1  H18A  990   3.808   1.702   9.330  1.7116 -1.3281 -0.6208
   14CHL1  H18B  991   3.817   1.713   9.504 -0.7710  0.1109 -0.1562
   14CHL1  H18C  992   3.851   1.856   9.390  0.6783 -0.4108 -3.2088
   14CHL1   C12  993   4.029   1.551   9.416  0.2870  0.2886  0.1272
   14CHL1  H12A  994   3.960   1.493   9.351  0.7742 -0.6751  0.4413
   14CHL1  H12B  995   4.135   1.518   9.403  0.5022  1.0917 -0.2166
   14CHL1   C11  996   4.007   1.510   9.566  0.2708  0.1226 -0.2115
   14CHL1  H11A  997   3.898   1.519   9.586  0.2672 -0.1431 -0.1150
   14CHL1  H11B  998   4.038   1.404   9.575 -1.7502 -0.6801 -1.9103
   14CHL1    C9  999   4.077   1.594   9.676 -0.0168 -0.2099  0.3603
   14CHL1    H9 1000   4.185   1.567   9.670 -0.4755 -2.1092 -0.1654
   14CHL1   C10 1001   4.050   1.553   9.826  0.5076  0.2612 -0.0071
   14CHL1   C19 1002   3.898   1.512   9.836  0.1304  0.3902  0.4840
   14CHL1  H19A 1003   3.863   1.431   9.768 -0.6775  2.9470 -2.3533
   14CHL1  H19B 1004   3.865   1.486   9.939  0.8868 -1.6749  0.2653
   14CHL1  H19C 1005   3.836   1.596   9.798  1.7814 -0.4623 -5.0483
   14CHL1    C1 1006   4.138   1.434   9.870  0.0927 -0.5717 -0.0815
   14CHL1   H1A 1007   4.105   1.343   9.815  0.8149 -1.3502  0.7453
   14CHL1   H1B 1008   4.246   1.443   9.848  0.4091 -1.3207  1.0736
   14CHL1    C2 1009   4.119   1.394  10.020 -0.6839  1.0831  0.5446
   14CHL1   H2A 1010   4.182   1.307  10.048 -0.1646  1.1377 -0.4309
   14CHL1   H2B 1011   4.011   1.378  10.040 -1.0161  0.3125 -1.6379
   14CHL1   C20 1012   3.998   1.739   9.122  0.1442 -0.3333 -0.1457
   14CHL1   H20 1013   3.900   1.791   9.123 -1.1525 -2.6076 -1.0125
   14CHL1   C21 1014   3.978   1.589   9.090  0.3345  0.5486 -0.2437
   14CHL1  H21A 1015   3.918   1.537   9.168  1.3852  0.7170  0.6988
   14CHL1  H21B 1016   4.069   1.530   9.067 -1.5861 -1.9576 -1.9998
   14CHL1  H21C 1017   3.914   1.571   9.001 -0.6853  0.0792  0.5532
   14CHL1   C22 1018   4.083   1.799   9.003  0.7834 -0.4481 -1.0467
   14CHL1  H22A 1019   4.105   1.906   9.027  1.0284 -0.5234 -0.9318
   14CHL1  H22B 1020   4.176   1.741   8.988  2.0195  1.0774  0.2943
   14CHL1   C23 1021   4.007   1.799   8.869  0.3501 -0.1653 -0.2945
   14CHL1  H23A 1022   3.978   1.697   8.838  2.6970 -0.1017 -3.1538
   14CHL1  H23B 1023   3.906   1.846   8.871 -0.3419 -1.6527  0.9878
   14CHL1   C24 1024   4.081   1.865   8.752  0.4965  0.0668  0.4574
   14CHL1  H24A 1025   4.049   1.972   8.758 -3.1555 -0.9663  2.4925
   14CHL1  H24B 1026   4.191   1.856   8.762  0.8112  1.5712 -1.0937
   14CHL1   C25 1027   4.049   1.796   8.617 -0.5173  0.3511  0.6961
   14CHL1   H25 1028   4.073   1.687   8.614 -2.5490 -0.1529  1.0707
   14CHL1   C26 1029   3.902   1.822   8.579  0.6222  0.0414 -0.6440
   14CHL1  H26A 1030   3.886   1.773   8.480  3.1433 -1.9193 -0.1801
   14CHL1  H26B 1031   3.847   1.781   8.667 -2.0670  0.9765 -1.7927
   14CHL1  H26C 1032   3.888   1.932   8.582  1.6273  0.1506  1.3705
   14CHL1   C27 1033   4.142   1.857   8.503 -0.6595 -0.3232 -0.3272
   14CHL1  H27A 1034   4.122   1.806   8.407 -0.2505 -0.8299 -0.1466
   14CHL1  H27B 1035   4.113   1.963   8.517 -1.6586 -0.7481  1.1139
   14CHL1  H27C 1036   4.247   1.859   8.538 -1.2649 -1.9809  1.8164
   15CHL1    C3 1037   4.164   0.872  10.141  0.4525  0.0178 -0.1623
   15CHL1    H3 1038   4.253   0.816  10.107  0.0981 -0.2612 -0.6331
   15CHL1    O3 1039   4.168   0.866  10.282  0.3874  0.5034 -0.5175
   15CHL1   H3' 1040   4.258   0.836  10.301 -0.2175 -1.0736  0.0755
   15CHL1    C4 1041   4.165   1.013  10.093  0.5168 -0.7268  0.0852
   15CHL1   H4A 1042   4.079   1.064  10.142 -0.4104 -2.8517  0.7766
   15CHL1   H4B 1043   4.249   1.071  10.135 -0.3473 -1.1407  2.5200
   15CHL1    C5 1044   4.160   1.016   9.940  0.6466 -0.7360  0.5807
   15CHL1    C6 1045   4.257   1.080   9.874 -0.2811  0.6540  0.5385
   15CHL1    H6 1046   4.339   1.137   9.919  2.0068 -0.9996 -1.2932
   15CHL1    C7 1047   4.253   1.088   9.723 -0.4583  0.5774  0.7591
   15CHL1   H7A 1048   4.274   1.192   9.688 -0.6098  0.1253 -0.7596
   15CHL1   H7B 1049   4.328   1.019   9.679  0.2281 -1.0328  4.1298
   15CHL1    C8 1050   4.111   1.074   9.664 -1.7742  0.5451 -0.0860
   15CHL1    H8 1051   4.052   1.163   9.696 -1.6515  0.6737 -0.2126
   15CHL1   C14 1052   4.122   1.061   9.510  0.6667 -0.6890 -0.1468
   15CHL1   H14 1053   4.181   0.969   9.486 -0.5065 -1.5046  0.0092
   15CHL1   C15 1054   4.197   1.173   9.429  0.9004  0.1654 -0.1682
   15CHL1  H15A 1055   4.177   1.262   9.492  2.5512  0.9792 -0.7525
   15CHL1  H15B 1056   4.305   1.150   9.415  0.4146 -2.5351 -0.0496
   15CHL1   C16 1057   4.136   1.172   9.287  0.7889  0.0107  0.0223
   15CHL1  H16A 1058   4.095   1.274   9.272  2.7520  1.0794  1.5349
   15CHL1  H16B 1059   4.204   1.147   9.203  1.4636  1.1097  0.2265
   15CHL1   C17 1060   4.015   1.070   9.291  0.4095  0.9971  0.0440
   15CHL1   H17 1061   4.057   0.975   9.250  0.4825  1.5596 -1.2468
   15CHL1   C13 1062   3.988   1.046   9.437  0.1668  0.0651 -0.4497
   15CHL1   C18 1063   3.887   1.153   9.494  0.1209  0.3323 -0.3857
   15CHL1  H18A 1064   3.793   1.173   9.439 -2.0952 -0.2676  2.9443
   15CHL1  H18B 1065   3.864   1.135   9.601  0.9080  1.5457  0.0118
   15CHL1  H18C 1066   3.938   1.251   9.502  1.1821 -0.3230  1.4185
   15CHL1   C12 1067   3.940   0.906   9.485 -0.6462 -0.2852  0.7443
   15CHL1  H12A 1068   3.838   0.882   9.449 -0.2411  0.3676 -0.9535
   15CHL1  H12B 1069   4.012   0.825   9.458  1.5060  0.2159  4.2937
   15CHL1   C11 1070   3.931   0.892   9.632 -0.1944  0.1246  0.5864
   15CHL1  H11A 1071   3.835   0.940   9.663 -0.1618  0.1684  0.6183
   15CHL1  H11B 1072   3.911   0.786   9.660  1.5761 -0.0590  1.2403
   15CHL1    C9 1073   4.055   0.936   9.714  0.0861 -0.1803  0.4724
   15CHL1    H9 1074   4.134   0.862   9.689 -1.6133 -2.2433  1.0216
   15CHL1   C10 1075   4.038   0.942   9.872  0.1645  0.8025  0.3151
   15CHL1   C19 1076   3.903   1.020   9.901 -0.0559  0.1500 -0.0377
   15CHL1  H19A 1077   3.908   1.127   9.870  1.2193 -0.0118 -0.4533
   15CHL1  H19B 1078   3.813   0.974   9.855  0.9718 -0.7151 -1.2443
   15CHL1  H19C 1079   3.883   1.024  10.010 -3.3663 -0.3755 -0.5439
   15CHL1    C1 1080   4.023   0.800   9.938 -0.6271  0.2292 -0.2057
   15CHL1   H1A 1081   3.921   0.766   9.909 -1.1752  0.2626  1.5817
   15CHL1   H1B 1082   4.094   0.738   9.880 -0.4785  1.2203 -1.1137
   15CHL1    C2 1083   4.044   0.801  10.088  0.0667 -0.1587  0.1479
   15CHL1   H2A 1084   4.038   0.694  10.117 -0.8291 -0.4186 -0.9120
   15CHL1   H2B 1085   3.951   0.848  10.127  0.0569  0.7684 -0.9376
   15CHL1   C20 1086   3.893   1.115   9.201 -0.3164 -0.1179 -0.1676
   15CHL1   H20 1087   3.852   1.206   9.249 -3.4388 -1.3079 -0.3721
   15CHL1   C21 1088   3.783   1.008   9.218 -0.0344 -0.3889  0.4648
   15CHL1  H21A 1089   3.725   1.030   9.310  0.8982 -0.4925  1.0950
   15CHL1  H21B 1090   3.832   0.909   9.210  1.4308  0.2554  1.0442
   15CHL1  H21C 1091   3.707   1.014   9.138 -0.7994  1.2433  1.2655
   15CHL1   C22 1092   3.920   1.136   9.053  0.2060 -0.0679 -0.2666
   15CHL1  H22A 1093   4.013   1.197   9.049 -2.5863  4.8509  0.6132
   15CHL1  H22B 1094   3.931   1.041   8.998  1.3223  1.4162 -2.7792
   15CHL1   C23 1095   3.811   1.225   8.988 -0.5674 -0.4622 -0.1774
   15CHL1  H23A 1096   3.707   1.200   9.018 -0.0239 -0.6199  1.7085
   15CHL1  H23B 1097   3.806   1.333   9.014  0.2420 -0.6263  0.7232
   15CHL1   C24 1098   3.831   1.219   8.836 -0.0665  0.3211  0.1865
   15CHL1  H24A 1099   3.931   1.260   8.812 -0.1465 -0.3194 -1.4116
   15CHL1  H24B 1100   3.833   1.112   8.805 -0.0433  0.1057  0.9086
   15CHL1   C25 1101   3.732   1.300   8.748 -0.3672 -0.1690  0.6196
   15CHL1   H25 1102   3.725   1.400   8.796 -0.1583  0.0675  0.1741
   15CHL1   C26 1103   3.779   1.323   8.598 -0.1619 -0.1938 -0.6456
   15CHL1  H26A 1104   3.874   1.381   8.600 -0.1016 -0.3273  1.0888
   15CHL1  H26B 1105   3.810   1.224   8.559  4.2845  0.6163  0.2914
   15CHL1  H26C 1106   3.698   1.367   8.536 -0.1197  1.0229  0.1416
   15CHL1   C27 1107   3.597   1.242   8.744  0.3664  0.5929 -0.4053
   15CHL1  H27A 1108   3.578   1.206   8.847 -0.6342 -0.0424 -0.8028
   15CHL1  H27B 1109   3.532   1.328   8.719  0.9879  1.1012 -0.2912
   15CHL1  H27C 1110   3.581   1.160   8.672 -1.4182 -1.3696  2.0547
   16CHL1    C3 1111   6.687   2.298   9.877 -0.4496 -0.6542  0.6095
   16CHL1    H3 1112   6.618   2.214   9.902 -1.6935  0.8301  2.4837
   16CHL1    O3 1113   6.756   2.318   9.995  0.6379  0.0430  0.2469
   16CHL1   H3' 1114   6.781   2.231  10.029  1.4643 -0.0883 -0.6397
   16CHL1    C4 1115   6.800   2.267   9.772 -0.2068  0.0485  0.4017
   16CHL1   H4A 1116   6.875   2.347   9.786 -0.6107  0.3914  0.6267
   16CHL1   H4B 1117   6.853   2.175   9.806 -1.7637 -0.9527  0.2629
   16CHL1    C5 1118   6.762   2.264   9.630 -0.1169  0.2837  0.2648
   16CHL1    C6 1119   6.776   2.156   9.555  0.5586  0.1827 -0.2716
   16CHL1    H6 1120   6.823   2.064   9.592  0.8165 -0.7575 -2.7389
   16CHL1    C7 1121   6.724   2.158   9.412  0.9155  0.0553  0.0645
   16CHL1   H7A 1122   6.781   2.099   9.338 -0.0354  0.6210 -1.1469
   16CHL1   H7B 1123   6.630   2.099   9.410  1.4926 -0.8867 -2.6081
   16CHL1    C8 1124   6.699   2.295   9.350  0.1175  0.3849  0.2237
   16CHL1    H8 1125   6.791   2.355   9.339 -0.0511  0.3239 -2.0935
   16CHL1   C14 1126   6.629   2.275   9.211  0.7871  0.0662  0.7996
   16CHL1   H14 1127   6.540   2.218   9.247  0.0239  0.5930 -0.1833
   16CHL1   C15 1128   6.687   2.186   9.106  0.3883  0.5636  0.5843
   16CHL1  H15A 1129   6.796   2.209   9.105  1.1172 -2.4909  0.6041
   16CHL1  H15B 1130   6.681   2.076   9.118 -0.8296  0.5370 -0.1187
   16CHL1   C16 1131   6.618   2.224   8.978  0.3153 -0.5554  0.1758
   16CHL1  H16A 1132   6.694   2.265   8.907  0.3896 -0.9449  0.0302
   16CHL1  H16B 1133   6.569   2.138   8.929  0.2180  1.0032 -2.7005
   16CHL1   C17 1134   6.512   2.335   9.015  0.2516 -0.3297  0.1005
   16CHL1   H17 1135   6.420   2.281   9.047  0.2857 -0.1738  0.4586
   16CHL1   C13 1136   6.576   2.399   9.142 -0.2979 -0.3803 -0.1274
   16CHL1   C18 1137   6.692   2.492   9.103 -0.1776 -0.1402  0.3705
   16CHL1  H18A 1138   6.752   2.439   9.025 -2.8132 -0.8718 -1.3045
   16CHL1  H18B 1139   6.650   2.585   9.058 -2.0834 -0.6657  0.9955
   16CHL1  H18C 1140   6.763   2.515   9.185  1.1333 -1.0365 -0.4630
   16CHL1   C12 1141   6.475   2.464   9.245 -0.6714  0.3265  0.5200
   16CHL1  H12A 1142   6.447   2.562   9.202  1.4291  0.8091  0.1168
   16CHL1  H12B 1143   6.385   2.400   9.253  1.5675 -2.9822  1.6607
   16CHL1   C11 1144   6.540   2.487   9.380 -0.0334 -0.0889  0.0314
   16CHL1  H11A 1145   6.604   2.575   9.356 -1.7078  1.7543  1.8416
   16CHL1  H11B 1146   6.457   2.528   9.441 -0.9310 -0.6555 -0.8002
   16CHL1    C9 1147   6.606   2.368   9.448  0.3131 -0.1760  0.2159
   16CHL1    H9 1148   6.524   2.295   9.468 -1.7401  1.9295 -0.0627
   16CHL1   C10 1149   6.671   2.385   9.586  0.2691 -0.5093 -0.4182
   16CHL1   C19 1150   6.770   2.502   9.591 -0.1361  0.2574 -1.0092
   16CHL1  H19A 1151   6.733   2.606   9.580  2.6875  1.7786  1.9117
   16CHL1  H19B 1152   6.816   2.523   9.690 -3.4704  1.7905  0.3562
   16CHL1  H19C 1153   6.852   2.487   9.518  0.1927 -1.1522 -0.3979
   16CHL1    C1 1154   6.562   2.406   9.689  0.0449 -0.2964 -1.0150
   16CHL1   H1A 1155   6.504   2.497   9.662  0.2139 -0.1916 -1.0309
   16CHL1   H1B 1156   6.499   2.315   9.683 -0.6893  0.1219  0.1205
   16CHL1    C2 1157   6.608   2.424   9.836  0.2754  0.2272 -0.3142
   16CHL1   H2A 1158   6.521   2.438   9.903 -1.6904 -1.3553 -2.4047
   16CHL1   H2B 1159   6.665   2.519   9.847 -1.3050  1.0378  1.2984
   16CHL1   C20 1160   6.466   2.422   8.891 -0.3086  0.0185 -0.6556
   16CHL1   H20 1161   6.553   2.469   8.841  1.9490 -1.4051  1.6658
   16CHL1   C21 1162   6.365   2.534   8.936  0.1743  0.6771 -0.4182
   16CHL1  H21A 1163   6.295   2.487   9.007 -0.9917 -0.1452 -2.0412
   16CHL1  H21B 1164   6.311   2.576   8.848 -0.2192 -0.7554 -0.8717
   16CHL1  H21C 1165   6.432   2.606   8.988 -0.8176 -0.1051  2.0322
   16CHL1   C22 1166   6.393   2.340   8.776  0.4198 -0.6967 -0.7212
   16CHL1  H22A 1167   6.470   2.266   8.746 -0.1562 -2.0131  0.8846
   16CHL1  H22B 1168   6.301   2.284   8.804 -1.4824  2.0938 -0.9023
   16CHL1   C23 1169   6.374   2.421   8.648 -0.2556 -0.5022 -0.2420
   16CHL1  H23A 1170   6.283   2.486   8.651 -0.2710 -0.5376  2.5420
   16CHL1  H23B 1171   6.463   2.486   8.636 -1.0428  0.2675 -2.3520
   16CHL1   C24 1172   6.354   2.320   8.539 -0.2134 -0.1400  0.3608
   16CHL1  H24A 1173   6.449   2.264   8.542  0.0788  0.3794  3.2742
   16CHL1  H24B 1174   6.277   2.244   8.565  1.2256 -2.0742 -0.7823
   16CHL1   C25 1175   6.328   2.368   8.394  0.6222  0.8035  0.2869
   16CHL1   H25 1176   6.413   2.430   8.356  1.5318 -1.4899 -1.6938
   16CHL1   C26 1177   6.328   2.249   8.294  0.0285  0.7505  0.2841
   16CHL1  H26A 1178   6.313   2.275   8.187  1.9796 -1.0503 -0.5103
   16CHL1  H26B 1179   6.419   2.185   8.300 -0.4794  0.0941  1.3995
   16CHL1  H26C 1180   6.261   2.170   8.335 -0.8265  1.7409  0.8156
   16CHL1   C27 1181   6.195   2.437   8.378  0.5084 -0.1790  0.0069
   16CHL1  H27A 1182   6.204   2.483   8.277 -0.6008  0.1273  0.0310
   16CHL1  H27B 1183   6.108   2.368   8.373 -0.9727  1.6884 -1.4919
   16CHL1  H27C 1184   6.183   2.521   8.450  3.7927  1.1191 -0.8055
   17CHL1    C3 1185   0.744   0.371  10.320 -0.2744 -0.0708  0.6083
   17CHL1    H3 1186   0.643   0.418  10.319 -1.0667 -1.6875 -0.0300
   17CHL1    O3 1187   0.801   0.339  10.450 -0.1240  0.3080  0.3008
   17CHL1   H3' 1188   0.867   0.272  10.433 -0.5237 -0.1060  0.3495
   17CHL1    C4 1189   0.734   0.244  10.231 -0.2273 -0.2094 -0.3601
   17CHL1   H4A 1190   0.827   0.183  10.236  1.1694  1.7081 -1.6672
   17CHL1   H4B 1191   0.652   0.185  10.278  0.6568 -1.3033 -0.1442
   17CHL1    C5 1192   0.699   0.271  10.086 -0.1923  0.2040  0.2392
   17CHL1    C6 1193   0.598   0.202  10.026 -0.3782 -0.5507  0.4660
   17CHL1    H6 1194   0.538   0.129  10.083  0.2654  0.6655  2.8463
   17CHL1    C7 1195   0.560   0.230   9.888 -0.1076 -0.3699  0.8743
   17CHL1   H7A 1196   0.529   0.136   9.837  1.5109 -0.8370  0.6965
   17CHL1   H7B 1197   0.461   0.280   9.881 -0.5209 -1.4018 -2.1990
   17CHL1    C8 1198   0.665   0.299   9.804 -0.1893  0.8896  0.2855
   17CHL1    H8 1199   0.743   0.220   9.800  1.0871  2.1347 -0.3475
   17CHL1   C14 1200   0.617   0.338   9.664  0.6885 -0.0676  0.0489
   17CHL1   H14 1201   0.532   0.407   9.681  0.8426  0.1000  0.1417
   17CHL1   C15 1202   0.560   0.215   9.581 -0.1888  0.4283 -0.2369
   17CHL1  H15A 1203   0.639   0.136   9.579 -1.7774 -1.2024 -1.3662
   17CHL1  H15B 1204   0.464   0.168   9.611 -1.5455  3.2666  0.1745
   17CHL1   C16 1205   0.551   0.274   9.437 -0.1285 -0.8245 -0.4514
   17CHL1  H16A 1206   0.594   0.208   9.358  4.0161  0.5391  0.3882
   17CHL1  H16B 1207   0.453   0.319   9.409  0.8390  1.8833  0.1332
   17CHL1   C17 1208   0.640   0.411   9.445 -0.3133 -0.6864  0.5240
   17CHL1   H17 1209   0.560   0.485   9.465 -0.7728 -0.7357 -1.0434
   17CHL1   C13 1210   0.723   0.405   9.576 -0.2066  0.2112 -0.1132
   17CHL1   C18 1211   0.848   0.318   9.548 -0.1411 -0.0708  0.2107
   17CHL1  H18A 1212   0.821   0.235   9.480  0.9164  0.8909 -1.4490
   17CHL1  H18B 1213   0.935   0.372   9.504 -1.0581  1.1075 -0.2345
   17CHL1  H18C 1214   0.892   0.290   9.646  0.5839 -0.4625 -0.2210
   17CHL1   C12 1215   0.754   0.541   9.644 -0.5581 -0.0032  0.0202
   17CHL1  H12A 1216   0.827   0.606   9.593 -1.2812  1.3106  0.6025
   17CHL1  H12B 1217   0.664   0.604   9.661 -0.8114  0.3082 -2.2160
   17CHL1   C11 1218   0.802   0.517   9.794  0.5810 -0.0356  0.8041
   17CHL1  H11A 1219   0.910   0.491   9.797  0.1697 -2.2257 -0.5667
   17CHL1  H11B 1220   0.794   0.619   9.838 -0.4860 -0.9492  2.8925
   17CHL1    C9 1221   0.720   0.417   9.881 -0.2396  1.1241 -0.2560
   17CHL1    H9 1222   0.624   0.472   9.893 -0.0571  1.7794 -1.6977
   17CHL1   C10 1223   0.781   0.377  10.018 -0.8638 -0.4701 -0.3490
   17CHL1   C19 1224   0.925   0.324  10.003  0.1274 -0.1088  0.6106
   17CHL1  H19A 1225   0.997   0.404   9.976  1.5078 -1.9888 -1.6799
   17CHL1  H19B 1226   0.961   0.271  10.094 -0.8778 -0.5268  0.7831
   17CHL1  H19C 1227   0.934   0.243   9.927 -0.1826  1.4136 -1.1092
   17CHL1    C1 1228   0.788   0.503  10.114 -0.4168  0.3548 -0.1965
   17CHL1   H1A 1229   0.845   0.582  10.060 -0.2678 -0.6587 -1.5876
   17CHL1   H1B 1230   0.688   0.547  10.131  0.2676  3.2126 -2.6494
   17CHL1    C2 1231   0.841   0.470  10.258  0.1042 -0.4638  0.0995
   17CHL1   H2A 1232   0.833   0.566  10.313  1.5223 -0.9602  1.2252
   17CHL1   H2B 1233   0.947   0.438  10.249  0.5827 -0.3602  3.8036
   17CHL1   C20 1234   0.716   0.436   9.312  0.2477  0.0457 -0.0133
   17CHL1   H20 1235   0.786   0.352   9.292  0.1810  0.1993 -0.9282
   17CHL1   C21 1236   0.806   0.565   9.328 -0.1208 -0.0717  0.2322
   17CHL1  H21A 1237   0.846   0.591   9.228 -1.5771  1.0295 -0.0925
   17CHL1  H21B 1238   0.890   0.538   9.395 -2.5178 -0.4445  3.3007
   17CHL1  H21C 1239   0.746   0.651   9.365 -1.9461 -1.0674 -0.2602
   17CHL1   C22 1240   0.612   0.449   9.195 -0.0842  0.6252 -0.3511
   17CHL1  H22A 1241   0.548   0.359   9.194 -1.0619  1.2918  0.1562
   17CHL1  H22B 1242   0.544   0.536   9.212 -0.5328 -0.0262  1.3654
   17CHL1   C23 1243   0.671   0.462   9.049  0.5261  0.2683 -0.3775
   17CHL1  H23A 1244   0.743   0.546   9.041  0.1975  0.3579 -3.1864
   17CHL1  H23B 1245   0.725   0.365   9.039 -0.8813 -0.4581 -1.2351
   17CHL1   C24 1246   0.559   0.459   8.943  0.3103  0.4021 -1.1662
   17CHL1  H24A 1247   0.528   0.353   8.933 -0.4135  0.6291 -1.4298
   17CHL1  H24B 1248   0.476   0.518   8.988 -0.0421 -1.8684  1.3782
   17CHL1   C25 1249   0.607   0.501   8.807  0.7453  0.8049  0.2149
   17CHL1   H25 1250   0.696   0.442   8.775  1.1595  1.2213  0.5816
   17CHL1   C26 1251   0.499   0.473   8.698  0.2448  0.1080  0.6935
   17CHL1  H26A 1252   0.530   0.509   8.597 -0.2858  1.9695  1.1617
   17CHL1  H26B 1253   0.468   0.366   8.700 -3.3386  0.9841 -0.6417
   17CHL1  H26C 1254   0.405   0.531   8.707 -0.5460 -0.4588 -2.6413
   17CHL1   C27 1255   0.641   0.652   8.804  0.3941 -0.2280  0.4558
   17CHL1  H27A 1256   0.558   0.721   8.830  0.0490  0.3645 -1.9030
   17CHL1  H27B 1257   0.730   0.686   8.860 -0.6295 -1.0887  2.7013
   17CHL1  H27C 1258   0.664   0.667   8.696  1.9340  0.1879  0.8275
   18CHL1    C3 1259   6.608   3.646   9.812  0.1842  0.1078 -0.7957
   18CHL1    H3 1260   6.697   3.712   9.804  0.7380 -0.3432  1.0963
   18CHL1    O3 1261   6.594   3.597   9.946  0.2220  0.2551 -0.1817
   18CHL1   H3' 1262   6.674   3.548   9.966  0.7154  1.6269  1.4886
   18CHL1    C4 1263   6.486   3.720   9.763 -0.0802 -0.0961  0.0985
   18CHL1   H4A 1264   6.398   3.662   9.798 -0.9557 -0.0593 -1.9047
   18CHL1   H4B 1265   6.480   3.816   9.818  1.0856 -1.8125  3.4914
   18CHL1    C5 1266   6.482   3.738   9.611 -0.1623 -0.6311  0.7597
   18CHL1    C6 1267   6.451   3.860   9.563  0.3072  0.4132  0.9014
   18CHL1    H6 1268   6.421   3.935   9.638  1.1940  0.3682  1.3251
   18CHL1    C7 1269   6.447   3.889   9.414  0.1087 -0.2835 -0.5443
   18CHL1   H7A 1270   6.361   3.956   9.391  1.2179  1.1502 -0.6703
   18CHL1   H7B 1271   6.533   3.949   9.378  0.4161 -0.2894  0.1579
   18CHL1    C8 1272   6.443   3.764   9.324 -0.1755  0.7725  0.2803
   18CHL1    H8 1273   6.339   3.725   9.330  0.5522 -1.0349  2.5472
   18CHL1   C14 1274   6.477   3.795   9.179 -1.0299 -0.0770  0.1268
   18CHL1   H14 1275   6.586   3.819   9.180 -1.0288 -0.0742  1.3323
   18CHL1   C15 1276   6.418   3.917   9.115 -0.1728  0.7218 -1.4414
   18CHL1  H15A 1277   6.315   3.922   9.156 -0.9247  3.2383 -3.3569
   18CHL1  H15B 1278   6.466   4.011   9.149  0.5788  0.1090 -0.7764
   18CHL1   C16 1279   6.434   3.891   8.972  0.0903 -0.0373  0.1681
   18CHL1  H16A 1280   6.334   3.871   8.929  0.5046  0.0187 -0.8511
   18CHL1  H16B 1281   6.473   3.977   8.914  0.4454 -0.4318 -0.1818
   18CHL1   C17 1282   6.505   3.756   8.953 -0.0765 -0.3516  0.0561
   18CHL1   H17 1283   6.615   3.772   8.960 -0.1876 -0.1497  1.8510
   18CHL1   C13 1284   6.463   3.686   9.081 -0.3961  0.5302 -0.6830
   18CHL1   C18 1285   6.313   3.638   9.080  0.0877 -0.1977 -0.3345
   18CHL1  H18A 1286   6.305   3.566   8.995  0.4241  1.2719 -1.6616
   18CHL1  H18B 1287   6.286   3.585   9.174  1.4822  2.8722  1.9478
   18CHL1  H18C 1288   6.239   3.719   9.068  0.7906  0.5080  0.0154
   18CHL1   C12 1289   6.564   3.576   9.125  1.0530  0.5184  0.4849
   18CHL1  H12A 1290   6.553   3.478   9.074  2.1913  1.6056 -1.9648
   18CHL1  H12B 1291   6.670   3.589   9.094  1.7308  0.8076  2.7290
   18CHL1   C11 1292   6.544   3.538   9.275 -0.4443  0.0965  0.0093
   18CHL1  H11A 1293   6.453   3.475   9.274 -0.1279 -0.3589 -0.3571
   18CHL1  H11B 1294   6.626   3.471   9.307 -3.2662 -2.0441  3.4871
   18CHL1    C9 1295   6.541   3.656   9.375 -0.1992 -0.6487  0.5110
   18CHL1    H9 1296   6.638   3.709   9.383 -1.2212  1.3893  0.0791
   18CHL1   C10 1297   6.516   3.619   9.523  0.0448  0.3861 -0.0204
   18CHL1   C19 1298   6.396   3.515   9.539 -0.2143 -0.0713 -0.9254
   18CHL1  H19A 1299   6.305   3.566   9.502  0.6785  2.4665  0.1775
   18CHL1  H19B 1300   6.404   3.423   9.476  1.7174  1.1518 -2.6121
   18CHL1  H19C 1301   6.384   3.493   9.647 -2.8438  1.1127 -0.9078
   18CHL1    C1 1302   6.647   3.553   9.578  0.3518  0.2672  1.2100
   18CHL1   H1A 1303   6.666   3.461   9.519  0.9390  0.8621  0.4462
   18CHL1   H1B 1304   6.726   3.626   9.552 -0.9051  1.5299  0.7545
   18CHL1    C2 1305   6.637   3.522   9.732  1.0191  0.2884 -0.6870
   18CHL1   H2A 1306   6.723   3.462   9.769 -1.0086 -2.7138 -0.5035
   18CHL1   H2B 1307   6.559   3.444   9.745  2.7209 -1.0538  2.4103
   18CHL1   C20 1308   6.473   3.693   8.819 -0.6496  0.5365 -0.3942
   18CHL1   H20 1309   6.365   3.694   8.793 -0.4623  0.9757 -1.1761
   18CHL1   C21 1310   6.526   3.547   8.812  0.8075  0.6896 -1.0478
   18CHL1  H21A 1311   6.506   3.500   8.713  0.2616  0.4670 -0.8378
   18CHL1  H21B 1312   6.470   3.481   8.881 -0.0526  0.0833 -2.2676
   18CHL1  H21C 1313   6.631   3.544   8.848  0.9829 -1.5449 -1.5982
   18CHL1   C22 1314   6.526   3.784   8.706 -0.0517  0.4146  0.2061
   18CHL1  H22A 1315   6.498   3.891   8.717  0.2520  0.3161  2.5205
   18CHL1  H22B 1316   6.636   3.781   8.715 -0.0855  0.0738  0.5051
   18CHL1   C23 1317   6.470   3.754   8.562  0.2628 -0.0334 -0.4471
   18CHL1  H23A 1318   6.486   3.644   8.558 -1.7363 -0.5420  2.2153
   18CHL1  H23B 1319   6.359   3.763   8.561  0.0933 -1.1217  1.6570
   18CHL1   C24 1320   6.546   3.842   8.458 -0.2085  1.0013 -0.1759
   18CHL1  H24A 1321   6.505   3.945   8.450 -4.3761 -0.3801  0.6538
   18CHL1  H24B 1322   6.653   3.829   8.485  0.1264  0.8447 -1.5186
   18CHL1   C25 1323   6.527   3.791   8.309  0.0666 -0.0308  0.0816
   18CHL1   H25 1324   6.559   3.871   8.239 -2.8881  0.3199 -1.0362
   18CHL1   C26 1325   6.612   3.669   8.287  0.3176  0.1871 -0.7110
   18CHL1  H26A 1326   6.720   3.695   8.294  0.1905  0.2206  4.2967
   18CHL1  H26B 1327   6.578   3.600   8.366 -1.3779  2.1551  0.3745
   18CHL1  H26C 1328   6.582   3.626   8.189 -0.8376  2.0971 -1.2504
   18CHL1   C27 1329   6.378   3.768   8.271  0.1535 -0.7244  0.1334
   18CHL1  H27A 1330   6.369   3.744   8.163  0.0928  3.2415 -0.9160
   18CHL1  H27B 1331   6.323   3.685   8.320 -0.7001 -0.9214 -1.1109
   18CHL1  H27C 1332   6.323   3.862   8.294  0.6064 -0.4273  0.0166
   19CHL1    C3 1333   2.779   5.844  10.175 -0.1433 -0.6874  0.4054
   19CHL1    H3 1334   2.867   5.783  10.145 -0.1835 -0.3663 -0.3730
   19CHL1    O3 1335   2.763   5.853  10.314  0.2789  0.0892 -0.0802
   19CHL1   H3' 1336   2.672   5.874  10.338  0.0788 -1.0093  0.2154
   19CHL1    C4 1337   2.798   5.987  10.115 -0.5034  0.0741 -0.6853
   19CHL1   H4A 1338   2.714   6.052  10.147 -0.7851 -0.4134 -0.4258
   19CHL1   H4B 1339   2.893   6.033  10.150 -1.4180  1.4584  0.0913
   19CHL1    C5 1340   2.787   5.978   9.966  0.5924  0.1880 -0.3269
   19CHL1    C6 1341   2.887   6.030   9.894  0.3820  0.9688 -0.3481
   19CHL1    H6 1342   2.968   6.079   9.950  1.0335  0.7535 -1.1035
   19CHL1    C7 1343   2.897   6.042   9.745 -0.2467 -0.1992 -0.0004
   19CHL1   H7A 1344   2.925   6.141   9.702  0.7316 -0.8293 -0.8432
   19CHL1   H7B 1345   2.966   5.967   9.702 -0.8063 -0.9242  0.3413
   19CHL1    C8 1346   2.752   6.010   9.684 -0.7891 -0.3936  0.8914
   19CHL1    H8 1347   2.703   6.109   9.697  0.5379  1.2253 -3.9783
   19CHL1   C14 1348   2.761   5.991   9.537 -0.4589 -0.2929  0.3102
   19CHL1   H14 1349   2.815   5.896   9.519 -0.0892  0.2289 -1.5637
   19CHL1   C15 1350   2.838   6.096   9.466 -0.0789 -0.2553 -0.3581
   19CHL1  H15A 1351   2.805   6.199   9.493  0.6771 -0.6510  2.3630
   19CHL1  H15B 1352   2.948   6.078   9.471 -0.2166 -0.7483  2.0215
   19CHL1   C16 1353   2.799   6.067   9.315  0.0978  0.6751  0.2105
   19CHL1  H16A 1354   2.771   6.168   9.277  0.2226  0.4050 -0.6121
   19CHL1  H16B 1355   2.888   6.028   9.261  1.4040 -2.5371  4.1174
   19CHL1   C17 1356   2.676   5.969   9.319 -0.4213  0.3818  0.4216
   19CHL1   H17 1357   2.716   5.866   9.306 -0.9833  0.0912  0.9475
   19CHL1   C13 1358   2.628   5.970   9.462  0.1662 -0.7091 -0.8149
   19CHL1   C18 1359   2.528   6.084   9.482  0.3533 -0.4535 -0.3695
   19CHL1  H18A 1360   2.481   6.094   9.582  1.1278  1.7950 -0.1773
   19CHL1  H18B 1361   2.559   6.185   9.447 -4.1335  0.6190 -1.9647
   19CHL1  H18C 1362   2.439   6.067   9.418 -0.8632  1.2533  0.7898
   19CHL1   C12 1363   2.564   5.845   9.519 -0.1837 -0.3357 -0.2759
   19CHL1  H12A 1364   2.461   5.818   9.487 -0.1113  0.3652 -1.1542
   19CHL1  H12B 1365   2.638   5.766   9.492 -0.8564 -1.1467  0.2298
   19CHL1   C11 1366   2.549   5.852   9.669  0.3679  0.2737  0.0677
   19CHL1  H11A 1367   2.474   5.931   9.689 -0.2769 -0.8058  2.2935
   19CHL1  H11B 1368   2.503   5.758   9.707 -0.5027  0.2117 -1.1006
   19CHL1    C9 1369   2.678   5.893   9.747 -0.5359 -0.2212  0.0830
   19CHL1    H9 1370   2.749   5.808   9.739  0.5177  0.5286  1.1537
   19CHL1   C10 1371   2.669   5.909   9.900  0.2640 -0.0279  0.6622
   19CHL1   C19 1372   2.547   5.993   9.922  0.5978 -0.2492  0.1212
   19CHL1  H19A 1373   2.527   6.038  10.022 -0.5204 -3.6140  1.5604
   19CHL1  H19B 1374   2.553   6.078   9.850 -2.9406 -0.3766 -0.5105
   19CHL1  H19C 1375   2.455   5.931   9.912  2.0244 -3.1207  3.0113
   19CHL1    C1 1376   2.660   5.772   9.964 -0.9001 -1.1905  0.4245
   19CHL1   H1A 1377   2.561   5.738   9.926 -3.1890  4.8834 -0.2331
   19CHL1   H1B 1378   2.751   5.710   9.947  2.6188  2.1029  4.8483
   19CHL1    C2 1379   2.657   5.783  10.111 -0.2807 -0.7010 -0.0806
   19CHL1   H2A 1380   2.641   5.686  10.162  1.1608 -0.7838  0.2685
   19CHL1   H2B 1381   2.567   5.844  10.135  0.3538  0.8058 -1.3882
   19CHL1   C20 1382   2.577   5.998   9.207 -0.3548 -0.0093  0.3777
   19CHL1   H20 1383   2.539   6.102   9.223 -0.9457 -0.3631  1.3993
   19CHL1   C21 1384   2.466   5.895   9.198  0.8254 -0.3838  0.0646
   19CHL1  H21A 1385   2.395   5.908   9.283  0.2191 -0.2193 -0.4630
   19CHL1  H21B 1386   2.506   5.792   9.195  2.5009  0.2475 -0.1066
   19CHL1  H21C 1387   2.399   5.919   9.113  1.5356 -0.1944 -0.4429
   19CHL1   C22 1388   2.648   6.005   9.066 -0.5916  0.3725 -0.0771
   19CHL1  H22A 1389   2.753   6.043   9.068 -0.8026  1.0027 -0.6872
   19CHL1  H22B 1390   2.650   5.898   9.039  1.8873  0.2644  0.3155
   19CHL1   C23 1391   2.584   6.095   8.957  0.3283  0.4402 -0.2364
   19CHL1  H23A 1392   2.480   6.065   8.934 -0.1779  0.7924  1.4281
   19CHL1  H23B 1393   2.584   6.193   9.009  1.2327  0.7181 -0.7433
   19CHL1   C24 1394   2.657   6.098   8.813 -0.0190 -0.3837 -0.1450
   19CHL1  H24A 1395   2.762   6.122   8.839  0.4108 -1.7081 -0.5672
   19CHL1  H24B 1396   2.660   6.005   8.753 -1.2670  0.7835 -2.1593
   19CHL1   C25 1397   2.608   6.215   8.717 -0.2293  0.3528 -0.9064
   19CHL1   H25 1398   2.637   6.317   8.748 -1.1531  1.1130 -2.4209
   19CHL1   C26 1399   2.671   6.192   8.582  0.8657  0.1065  0.4728
   19CHL1  H26A 1400   2.652   6.090   8.543  0.9320 -0.0049  0.7297
   19CHL1  H26B 1401   2.630   6.259   8.503  0.4917 -1.1321 -0.4189
   19CHL1  H26C 1402   2.782   6.196   8.584  0.8650  0.5729  2.9162
   19CHL1   C27 1403   2.459   6.210   8.707  0.0412 -0.4137 -0.1707
   19CHL1  H27A 1404   2.426   6.281   8.629 -1.3292  1.2939  1.8453
   19CHL1  H27B 1405   2.428   6.108   8.676 -2.0786  0.6768 -1.8926
   19CHL1  H27C 1406   2.413   6.238   8.804  3.4926  1.8965  1.0049
   20CHL1    C3 1407   5.572   2.771  10.281  0.6527  0.1071  0.6537
   20CHL1    H3 1408   5.672   2.724  10.267  0.7818  0.7691 -0.8560
   20CHL1    O3 1409   5.549   2.782  10.426 -0.7493 -0.5993  0.7801
   20CHL1   H3' 1410   5.453   2.773  10.432 -1.0918  1.8673  0.3129
   20CHL1    C4 1411   5.576   2.910  10.222 -0.4059  0.5699 -0.4365
   20CHL1   H4A 1412   5.482   2.964  10.245 -1.2534 -0.9366 -0.1901
   20CHL1   H4B 1413   5.661   2.962  10.270  1.4779 -0.2905 -2.6415
   20CHL1    C5 1414   5.595   2.887  10.070  0.2624 -0.2748 -1.0905
   20CHL1    C6 1415   5.706   2.925  10.014 -0.5412 -0.0450 -0.1614
   20CHL1    H6 1416   5.787   2.979  10.066 -2.6787  2.5152  0.6749
   20CHL1    C7 1417   5.739   2.918   9.861  0.5458  0.2051  0.3653
   20CHL1   H7A 1418   5.784   3.013   9.825 -0.0955 -0.3333 -2.0182
   20CHL1   H7B 1419   5.816   2.840   9.840  0.4002  0.2976 -0.5455
   20CHL1    C8 1420   5.611   2.880   9.779 -0.0847  0.3237 -0.2424
   20CHL1    H8 1421   5.543   2.968   9.783 -2.4272 -1.3914 -0.2212
   20CHL1   C14 1422   5.649   2.839   9.638 -0.1091  0.1049 -0.1039
   20CHL1   H14 1423   5.706   2.744   9.643 -0.2058 -0.0655 -1.6720
   20CHL1   C15 1424   5.748   2.923   9.558  0.3697  0.0116  0.8635
   20CHL1  H15A 1425   5.714   3.028   9.564 -0.1115 -0.1493  1.0449
   20CHL1  H15B 1426   5.853   2.915   9.594 -0.0202  2.9998  3.0255
   20CHL1   C16 1427   5.723   2.879   9.407 -0.1467  0.2862  0.1312
   20CHL1  H16A 1428   5.711   2.964   9.337  2.2894 -0.5328 -1.3767
   20CHL1  H16B 1429   5.815   2.830   9.371  0.6116  2.1483 -0.5887
   20CHL1   C17 1430   5.609   2.777   9.408 -0.1899  0.4187 -0.0447
   20CHL1   H17 1431   5.653   2.675   9.409  3.5060  1.8507  1.6259
   20CHL1   C13 1432   5.532   2.802   9.544 -1.2841  0.1171 -0.3547
   20CHL1   C18 1433   5.446   2.927   9.533  0.4602 -0.2131  0.2209
   20CHL1  H18A 1434   5.505   3.017   9.504  0.9415 -0.4204  0.5398
   20CHL1  H18B 1435   5.370   2.904   9.456  0.3601  0.0652  0.2385
   20CHL1  H18C 1436   5.394   2.972   9.620 -0.0908 -0.0334 -0.1978
   20CHL1   C12 1437   5.454   2.690   9.607  0.9237 -0.4622 -0.0139
   20CHL1  H12A 1438   5.362   2.660   9.552  0.6921  0.8589 -0.3786
   20CHL1  H12B 1439   5.518   2.599   9.611  2.1610  0.4178  1.4948
   20CHL1   C11 1440   5.413   2.725   9.757  0.0868  0.1105  0.7019
   20CHL1  H11A 1441   5.331   2.799   9.747  0.8610  1.1096  1.4412
   20CHL1  H11B 1442   5.369   2.635   9.804 -0.5659 -0.2636 -0.5939
   20CHL1    C9 1443   5.536   2.772   9.849  0.1196  0.1788 -0.0286
   20CHL1    H9 1444   5.604   2.685   9.859 -0.4380 -0.3966 -1.0484
   20CHL1   C10 1445   5.482   2.813   9.991 -0.6365 -0.0430 -0.5305
   20CHL1   C19 1446   5.354   2.902   9.982 -0.2588 -0.2751 -0.0121
   20CHL1  H19A 1447   5.257   2.849   9.980 -1.1971  1.3005  1.4150
   20CHL1  H19B 1448   5.344   2.968  10.071 -0.1565  2.1557 -1.6778
   20CHL1  H19C 1449   5.347   2.969   9.894  0.5579 -0.0125  0.1155
   20CHL1    C1 1450   5.457   2.679  10.074 -0.1811 -0.5649 -0.9918
   20CHL1   H1A 1451   5.373   2.618  10.034 -1.3066  0.0274  0.4031
   20CHL1   H1B 1452   5.548   2.615  10.067 -0.8189 -2.0982  2.4834
   20CHL1    C2 1453   5.455   2.688  10.225 -0.0517  0.4638 -0.2946
   20CHL1   H2A 1454   5.463   2.593  10.282 -1.7404 -0.1350 -1.0025
   20CHL1   H2B 1455   5.362   2.745  10.248  0.1411  1.4250 -1.8015
   20CHL1   C20 1456   5.530   2.781   9.276  0.0085  0.0503 -0.9417
   20CHL1   H20 1457   5.489   2.884   9.261 -1.2506 -0.4062 -0.7592
   20CHL1   C21 1458   5.416   2.681   9.287  0.6425 -0.1110 -0.8457
   20CHL1  H21A 1459   5.351   2.693   9.197 -0.7264  1.6165  0.3093
   20CHL1  H21B 1460   5.349   2.713   9.370  0.5141 -2.4759  0.0165
   20CHL1  H21C 1461   5.438   2.573   9.297 -1.8812 -0.8106 -1.9382
   20CHL1   C22 1462   5.624   2.743   9.151 -1.0903 -0.0996 -0.8610
   20CHL1  H22A 1463   5.707   2.816   9.155 -1.8955  0.8678 -1.2873
   20CHL1  H22B 1464   5.672   2.643   9.154  0.9862  0.8531 -0.8018
   20CHL1   C23 1465   5.555   2.743   9.016 -0.0351 -0.3721  0.1895
   20CHL1  H23A 1466   5.471   2.670   9.016 -1.6363  1.3952  0.5765
   20CHL1  H23B 1467   5.516   2.846   9.000  0.4542 -0.3923 -1.3311
   20CHL1   C24 1468   5.648   2.726   8.893 -0.0471  0.1404  0.3746
   20CHL1  H24A 1469   5.747   2.770   8.916 -0.4733  1.8000 -0.8237
   20CHL1  H24B 1470   5.657   2.616   8.882  0.2160  0.3164 -1.4864
   20CHL1   C25 1471   5.600   2.798   8.768 -0.4521  0.3246  0.4888
   20CHL1   H25 1472   5.490   2.787   8.759 -0.4790 -2.3875  2.8693
   20CHL1   C26 1473   5.635   2.949   8.776 -0.0577  0.1230 -0.1846
   20CHL1  H26A 1474   5.614   2.985   8.673  0.0379 -2.6532 -1.2489
   20CHL1  H26B 1475   5.572   2.998   8.854  1.9596 -0.9839  2.2810
   20CHL1  H26C 1476   5.745   2.960   8.788  0.0223 -1.9725  1.9181
   20CHL1   C27 1477   5.659   2.725   8.638 -0.0571 -0.5751  0.0046
   20CHL1  H27A 1478   5.769   2.743   8.639 -0.2167  0.5375  2.0374
   20CHL1  H27B 1479   5.647   2.615   8.625  2.9411 -1.2120  1.7781
   20CHL1  H27C 1480   5.607   2.768   8.550  1.3826  0.4234 -0.3833
   21CHL1    C3 1481   5.696   3.793  10.171  0.3551 -0.0372  0.0843
   21CHL1    H3 1482   5.756   3.717  10.117 -0.9326 -0.3235 -1.0371
   21CHL1    O3 1483   5.739   3.817  10.298 -0.3097 -0.1416 -0.3172
   21CHL1   H3' 1484   5.703   3.743  10.348  0.5330 -2.4140 -2.8181
   21CHL1    C4 1485   5.692   3.931  10.097 -0.3096 -0.2603 -0.5142
   21CHL1   H4A 1486   5.632   4.013  10.142  4.2670  1.3347  3.5013
   21CHL1   H4B 1487   5.793   3.971  10.118 -1.2841  1.7962  0.5779
   21CHL1    C5 1488   5.656   3.914   9.953  0.1062  0.1292  0.3108
   21CHL1    C6 1489   5.743   3.947   9.854 -0.0845 -0.2667 -0.0768
   21CHL1    H6 1490   5.833   3.994   9.896 -1.7830  0.1804  3.3731
   21CHL1    C7 1491   5.716   3.943   9.709 -0.2098 -0.1144  0.1002
   21CHL1   H7A 1492   5.767   4.025   9.653 -1.0105 -0.8240 -1.7367
   21CHL1   H7B 1493   5.752   3.845   9.670  1.0158  0.5888 -0.6355
   21CHL1    C8 1494   5.558   3.939   9.688 -0.6742 -0.2459  0.8941
   21CHL1    H8 1495   5.511   4.034   9.722 -0.3260 -0.2113  1.2851
   21CHL1   C14 1496   5.530   3.918   9.537  0.2869  0.2595  0.0139
   21CHL1   H14 1497   5.586   3.823   9.526 -0.8717 -0.8014  2.4299
   21CHL1   C15 1498   5.600   4.020   9.443  0.1038 -0.1905 -0.0682
   21CHL1  H15A 1499   5.573   4.123   9.475  3.6689  1.7647 -2.6651
   21CHL1  H15B 1500   5.710   4.017   9.429  0.4486  1.5606  1.7563
   21CHL1   C16 1501   5.511   3.986   9.319 -0.9799  0.8622 -0.3518
   21CHL1  H16A 1502   5.464   4.082   9.291 -2.5556  1.3287  3.2810
   21CHL1  H16B 1503   5.567   3.946   9.232 -0.4117 -1.3694  0.9420
   21CHL1   C17 1504   5.396   3.888   9.357  0.7337  0.3819  0.4190
   21CHL1   H17 1505   5.424   3.783   9.336 -3.4681 -0.9124  0.3976
   21CHL1   C13 1506   5.388   3.909   9.504  0.1132  0.1162 -0.1775
   21CHL1   C18 1507   5.301   4.036   9.534  0.4909  0.1149  0.2972
   21CHL1  H18A 1508   5.326   4.123   9.470 -1.4805 -0.1760 -0.9534
   21CHL1  H18B 1509   5.192   4.019   9.542  0.6797 -1.7050 -0.4200
   21CHL1  H18C 1510   5.330   4.070   9.636 -0.3344 -0.5664  0.7746
   21CHL1   C12 1511   5.334   3.782   9.578 -0.7192 -0.1027 -0.3528
   21CHL1  H12A 1512   5.229   3.763   9.548 -0.7229  0.2887 -0.5981
   21CHL1  H12B 1513   5.406   3.711   9.532 -0.9307 -0.0791 -0.7237
   21CHL1   C11 1514   5.358   3.775   9.729  0.7045  0.5845  0.3988
   21CHL1  H11A 1515   5.294   3.851   9.780  0.4846  1.5225 -1.2006
   21CHL1  H11B 1516   5.349   3.674   9.774  0.4133  0.6150  0.4099
   21CHL1    C9 1517   5.500   3.819   9.777 -0.7057  0.2437  0.3967
   21CHL1    H9 1518   5.568   3.735   9.753 -0.8158  0.0290  0.8220
   21CHL1   C10 1519   5.514   3.852   9.927 -0.4314  0.1688 -0.5659
   21CHL1   C19 1520   5.396   3.948   9.974  0.8159  0.1731  0.8073
   21CHL1  H19A 1521   5.420   3.990  10.074  0.5510 -0.3802  1.1089
   21CHL1  H19B 1522   5.390   4.028   9.897 -2.9670 -3.0061 -2.6786
   21CHL1  H19C 1523   5.300   3.894   9.990  0.3276  0.1851 -1.7521
   21CHL1    C1 1524   5.513   3.722  10.012  0.3769  0.3500 -0.1814
   21CHL1   H1A 1525   5.409   3.685  10.005  0.1945  0.8095  0.0828
   21CHL1   H1B 1526   5.564   3.638   9.959 -1.3802 -0.8760 -0.0013
   21CHL1    C2 1527   5.547   3.734  10.163 -0.3481  0.2385 -0.2433
   21CHL1   H2A 1528   5.550   3.635  10.213 -0.6656 -0.1204 -0.9110
   21CHL1   H2B 1529   5.478   3.806  10.211 -0.6262 -0.9656  1.2318
   21CHL1   C20 1530   5.276   3.911   9.261 -0.5217 -0.0910  0.5151
   21CHL1   H20 1531   5.243   4.016   9.280  1.2876  0.3616  1.3787
   21CHL1   C21 1532   5.155   3.825   9.300  0.1895  0.3915  0.6404
   21CHL1  H21A 1533   5.102   3.846   9.395  0.2683  0.2912  0.7061
   21CHL1  H21B 1534   5.178   3.716   9.303 -1.5387  0.0045  1.2801
   21CHL1  H21C 1535   5.078   3.833   9.220  0.2408  1.9265  0.7158
   21CHL1   C22 1536   5.309   3.890   9.112  0.4766 -0.4147 -0.1439
   21CHL1  H22A 1537   5.396   3.953   9.082  0.8756 -0.6000  0.6034
   21CHL1  H22B 1538   5.332   3.783   9.092  1.2721 -0.2459 -0.1904
   21CHL1   C23 1539   5.194   3.927   9.013  0.5626  0.0535  0.3677
   21CHL1  H23A 1540   5.106   3.861   9.031  1.5250 -1.6844 -0.9015
   21CHL1  H23B 1541   5.151   4.024   9.045 -0.9863 -1.0990  2.0215
   21CHL1   C24 1542   5.238   3.929   8.864  0.5198  0.0257  0.4941
   21CHL1  H24A 1543   5.295   4.022   8.843 -1.8886  1.1919 -1.2423
   21CHL1  H24B 1544   5.302   3.840   8.845  0.4060 -0.0353  0.3958
   21CHL1   C25 1545   5.115   3.932   8.777 -0.5226 -0.8871  0.3230
   21CHL1   H25 1546   5.062   4.022   8.815  0.4540 -0.8202  1.6290
   21CHL1   C26 1547   5.144   3.948   8.627  0.6518 -0.6037  0.0223
   21CHL1  H26A 1548   5.180   3.851   8.588  3.1377  0.5158 -0.6499
   21CHL1  H26B 1549   5.054   3.992   8.581  1.2975 -1.3133 -1.9953
   21CHL1  H26C 1550   5.228   4.021   8.615  0.5606 -0.6141 -0.6967
   21CHL1   C27 1551   5.007   3.821   8.796 -0.2393 -0.7813 -0.5188
   21CHL1  H27A 1552   4.965   3.849   8.895  0.8389 -1.0231  0.0248
   21CHL1  H27B 1553   4.928   3.825   8.719 -1.5291  0.7336  0.8220
   21CHL1  H27C 1554   5.056   3.721   8.788 -0.2938 -0.9035  0.5567
   22CHL1    C3 1555   6.766   0.723  10.077 -0.7623 -0.0176  0.6934
   22CHL1    H3 1556   6.851   0.665  10.036 -0.1869  2.0835 -1.2736
   22CHL1    O3 1557   6.758   0.711  10.218  0.1492  0.3844  0.6728
   22CHL1   H3' 1558   6.695   0.640  10.228 -2.1226  1.9807 -1.3793
   22CHL1    C4 1559   6.813   0.863  10.044  0.2464  0.2562  0.6314
   22CHL1   H4A 1560   6.744   0.934  10.094  0.8007 -0.0642  1.8972
   22CHL1   H4B 1561   6.909   0.894  10.090  0.2771  2.6351 -0.8483
   22CHL1    C5 1562   6.807   0.896   9.890 -0.7524  0.5565 -0.7264
   22CHL1    C6 1563   6.914   0.934   9.821  0.3278  0.1662 -0.3759
   22CHL1    H6 1564   7.011   0.966   9.864  1.5558  0.9023 -3.4613
   22CHL1    C7 1565   6.912   0.958   9.675 -0.2106 -0.6561  0.0533
   22CHL1   H7A 1566   6.969   1.047   9.641  1.4109 -1.7978 -0.3506
   22CHL1   H7B 1567   6.958   0.869   9.627 -0.5108 -0.3373 -0.8313
   22CHL1    C8 1568   6.773   0.978   9.614 -0.1238  0.0474  0.5610
   22CHL1    H8 1569   6.725   1.072   9.651 -1.1166 -0.7838  1.4428
   22CHL1   C14 1570   6.767   0.981   9.458  0.0287  0.5229  0.7049
   22CHL1   H14 1571   6.815   0.887   9.421 -1.4829  0.4888 -1.3404
   22CHL1   C15 1572   6.852   1.088   9.389 -0.2422  0.0070 -0.9724
   22CHL1  H15A 1573   6.830   1.186   9.437 -0.2880 -0.2654 -0.4253
   22CHL1  H15B 1574   6.960   1.072   9.404 -0.8404 -1.3304  3.3290
   22CHL1   C16 1575   6.801   1.093   9.244  0.3951  0.0104  0.8267
   22CHL1  H16A 1576   6.766   1.194   9.215 -0.4980 -0.6094 -0.3441
   22CHL1  H16B 1577   6.884   1.064   9.177  0.2996  0.0388  0.6955
   22CHL1   C17 1578   6.683   0.994   9.239  0.2545  0.1442 -0.0061
   22CHL1   H17 1579   6.737   0.900   9.212  1.6866  0.7606  0.5996
   22CHL1   C13 1580   6.629   0.983   9.388 -0.5245 -0.1372 -0.4531
   22CHL1   C18 1581   6.560   1.120   9.418  0.5415  0.3795 -0.2124
   22CHL1  H18A 1582   6.598   1.201   9.353  1.2501  0.4989  0.3340
   22CHL1  H18B 1583   6.453   1.109   9.389  0.2038 -2.3135  1.6546
   22CHL1  H18C 1584   6.579   1.147   9.525  0.3715 -3.1705  0.8523
   22CHL1   C12 1585   6.549   0.856   9.436  0.7189 -0.4026 -0.6469
   22CHL1  H12A 1586   6.445   0.844   9.399  0.7506  0.6082 -1.0979
   22CHL1  H12B 1587   6.610   0.769   9.404 -0.2108 -1.6861  0.8883
   22CHL1   C11 1588   6.550   0.861   9.587  0.3393 -0.1665 -0.2648
   22CHL1  H11A 1589   6.495   0.953   9.619  0.0535 -0.5487  0.3539
   22CHL1  H11B 1590   6.499   0.773   9.631  0.8844 -0.1544  0.3988
   22CHL1    C9 1591   6.686   0.864   9.662 -0.6187 -0.5484 -0.3490
   22CHL1    H9 1592   6.736   0.770   9.631  0.4376 -0.0620 -0.1930
   22CHL1   C10 1593   6.680   0.860   9.821 -0.3384  0.3949  0.6636
   22CHL1   C19 1594   6.584   0.966   9.870  0.5752  0.1398 -0.0453
   22CHL1  H19A 1595   6.485   0.949   9.822  0.5265  1.4564 -0.4448
   22CHL1  H19B 1596   6.569   0.969   9.980  0.7320 -0.2733 -0.0104
   22CHL1  H19C 1597   6.613   1.068   9.838 -1.6013  0.2328 -1.9905
   22CHL1    C1 1598   6.637   0.711   9.865  0.3844 -0.1887  0.2967
   22CHL1   H1A 1599   6.539   0.681   9.823  0.0052  1.9060 -0.4082
   22CHL1   H1B 1600   6.711   0.640   9.822  0.7945  0.9904 -0.9878
   22CHL1    C2 1601   6.631   0.683  10.012 -0.9709 -0.5427 -0.2843
   22CHL1   H2A 1602   6.602   0.577  10.031  0.0026 -0.5684  1.2551
   22CHL1   H2B 1603   6.548   0.736  10.063 -1.9471 -2.6686  0.4333
   22CHL1   C20 1604   6.584   1.007   9.122  0.3221 -0.0055  0.1456
   22CHL1   H20 1605   6.514   1.091   9.139 -1.0215 -1.1109  0.2281
   22CHL1   C21 1606   6.507   0.873   9.115  0.5457 -0.0585 -0.4010
   22CHL1  H21A 1607   6.440   0.861   9.203 -0.3034 -0.9977 -1.1410
   22CHL1  H21B 1608   6.581   0.791   9.110 -0.0354 -0.6645  0.6829
   22CHL1  H21C 1609   6.445   0.865   9.023 -0.0074 -0.9333  0.0390
   22CHL1   C22 1610   6.649   1.031   8.986 -0.2781 -0.9029 -0.6719
   22CHL1  H22A 1611   6.716   1.120   8.992  0.4362 -1.4924  0.5828
   22CHL1  H22B 1612   6.717   0.947   8.961  1.0938 -0.1994  0.5530
   22CHL1   C23 1613   6.564   1.052   8.859  1.2662 -0.0112  0.6401
   22CHL1  H23A 1614   6.494   0.966   8.855  1.2924  0.0189 -1.7692
   22CHL1  H23B 1615   6.511   1.149   8.872 -3.0647 -2.0093 -0.1417
   22CHL1   C24 1616   6.632   1.049   8.724 -0.8216  0.0226  0.1958
   22CHL1  H24A 1617   6.692   1.142   8.718 -2.5757  1.1729 -0.6255
   22CHL1  H24B 1618   6.708   0.969   8.720 -2.6065 -1.7343 -2.5754
   22CHL1   C25 1619   6.543   1.030   8.609  0.2342  0.2020  0.2122
   22CHL1   H25 1620   6.592   1.073   8.520 -3.0312  4.4136  0.1289
   22CHL1   C26 1621   6.504   0.880   8.575  0.2738 -0.1560 -0.2265
   22CHL1  H26A 1622   6.442   0.850   8.662  0.6713  0.7443  0.3711
   22CHL1  H26B 1623   6.450   0.884   8.478  4.0202 -0.1526 -2.5301
   22CHL1  H26C 1624   6.592   0.812   8.567  0.1895 -0.5294  1.5322
   22CHL1   C27 1625   6.421   1.113   8.603  0.0351 -0.2589 -0.8843
   22CHL1  H27A 1626   6.347   1.071   8.675  1.1084 -0.9613 -0.1754
   22CHL1  H27B 1627   6.427   1.220   8.633 -2.5344 -0.9359  2.7536
   22CHL1  H27C 1628   6.363   1.099   8.509 -0.3469 -1.1455 -0.5288
   23CHL1    C3 1629   2.889   5.450  10.064 -0.0682  0.1601 -0.0222
   23CHL1    H3 1630   2.862   5.558  10.065 -0.7964  0.0135 -1.2269
   23CHL1    O3 1631   2.881   5.395  10.193 -0.2340  0.2504 -0.1781
   23CHL1   H3' 1632   2.946   5.439  10.249 -0.7974 -0.3895  1.0168
   23CHL1    C4 1633   2.798   5.369   9.970  0.2340 -0.7091 -0.0477
   23CHL1   H4A 1634   2.813   5.259   9.979 -0.7404 -0.8379  0.0867
   23CHL1   H4B 1635   2.697   5.397  10.007  1.5992 -1.3904  4.8941
   23CHL1    C5 1636   2.814   5.411   9.826 -0.3078  0.2396 -0.6717
   23CHL1    C6 1637   2.705   5.452   9.759 -0.4286 -0.1586 -0.1885
   23CHL1    H6 1638   2.613   5.467   9.818  0.1655 -2.7295  1.5675
   23CHL1    C7 1639   2.704   5.496   9.615 -0.5816  0.3754 -0.2787
   23CHL1   H7A 1640   2.620   5.447   9.562 -1.1248  1.5191 -0.5127
   23CHL1   H7B 1641   2.698   5.607   9.618 -1.2764  0.3678 -1.1333
   23CHL1    C8 1642   2.837   5.461   9.544  0.1067  0.0948 -0.7362
   23CHL1    H8 1643   2.821   5.356   9.512  0.2107 -0.1219 -0.0899
   23CHL1   C14 1644   2.850   5.554   9.424  0.0636  0.3743 -0.1741
   23CHL1   H14 1645   2.852   5.662   9.447  1.4092 -0.0167  1.8064
   23CHL1   C15 1646   2.735   5.545   9.323  0.1619  0.4995  0.0595
   23CHL1  H15A 1647   2.699   5.444   9.296  3.8411 -1.0142  0.1448
   23CHL1  H15B 1648   2.641   5.590   9.362 -0.6493 -0.1084 -1.1300
   23CHL1   C16 1649   2.802   5.615   9.197 -0.1786 -0.1377 -0.2356
   23CHL1  H16A 1650   2.784   5.556   9.104  0.2290 -0.5492 -0.0576
   23CHL1  H16B 1651   2.752   5.713   9.184 -1.4714 -0.8099 -0.4978
   23CHL1   C17 1652   2.957   5.630   9.233  0.8514 -0.4553  0.4889
   23CHL1   H17 1653   2.968   5.733   9.271  0.6887  0.5649 -2.0363
   23CHL1   C13 1654   2.982   5.533   9.348  0.2205 -0.2742 -0.6319
   23CHL1   C18 1655   2.993   5.391   9.287  0.0215 -0.5385  0.5652
   23CHL1  H18A 1656   2.911   5.372   9.214  3.1412  0.7250 -3.6076
   23CHL1  H18B 1657   3.096   5.375   9.249  0.5144  2.4296  0.4125
   23CHL1  H18C 1658   2.976   5.312   9.364 -1.1659 -0.7910  0.0671
   23CHL1   C12 1659   3.099   5.571   9.442  0.1949 -0.6548 -0.3281
   23CHL1  H12A 1660   3.190   5.571   9.378  0.9905 -0.2239  0.7869
   23CHL1  H12B 1661   3.085   5.672   9.485  0.1505 -0.8451  0.1085
   23CHL1   C11 1662   3.092   5.476   9.566  0.2076 -0.7118 -0.2003
   23CHL1  H11A 1663   3.109   5.372   9.530 -3.7567 -1.8754  0.7766
   23CHL1  H11B 1664   3.177   5.501   9.633 -0.4317 -4.7012  2.4322
   23CHL1    C9 1665   2.959   5.489   9.639  0.2843 -0.5454 -1.2172
   23CHL1    H9 1666   2.952   5.598   9.659  1.8383 -0.3253 -1.7776
   23CHL1   C10 1667   2.956   5.409   9.772 -0.2340  0.0634  0.5984
   23CHL1   C19 1668   2.992   5.254   9.754  0.7141 -0.9029  0.1133
   23CHL1  H19A 1669   2.917   5.211   9.685 -1.9734  1.0279  1.6385
   23CHL1  H19B 1670   3.097   5.250   9.717  0.5557 -0.3479 -0.4225
   23CHL1  H19C 1671   2.977   5.199   9.849 -0.1486 -0.1422  0.4350
   23CHL1    C1 1672   3.049   5.481   9.873 -0.2853  0.2053  0.2302
   23CHL1   H1A 1673   3.154   5.471   9.837  0.7025  0.8575  2.7223
   23CHL1   H1B 1674   3.011   5.586   9.874 -4.1278 -1.0232 -0.4931
   23CHL1    C2 1675   3.023   5.432  10.016  0.3465  0.3077  0.0717
   23CHL1   H2A 1676   3.089   5.489  10.085 -0.6274 -0.5733  1.7892
   23CHL1   H2B 1677   3.056   5.326  10.015 -1.2541 -0.2135 -0.3242
   23CHL1   C20 1678   3.044   5.619   9.101  0.4125 -1.3786  0.0289
   23CHL1   H20 1679   3.032   5.518   9.055  0.6609 -0.5120 -2.0540
   23CHL1   C21 1680   3.193   5.643   9.118 -0.1839  0.3184  0.1671
   23CHL1  H21A 1681   3.250   5.643   9.023  1.8519 -0.2181  1.3277
   23CHL1  H21B 1682   3.232   5.554   9.172  1.3802  1.6082  1.2601
   23CHL1  H21C 1683   3.209   5.737   9.176 -1.4109  1.3098 -1.0327
   23CHL1   C22 1684   3.001   5.727   8.990 -0.0597 -0.6437  0.3225
   23CHL1  H22A 1685   2.935   5.800   9.041  0.2023  0.2290 -0.5718
   23CHL1  H22B 1686   3.079   5.775   8.928 -1.3246  2.0578  0.7100
   23CHL1   C23 1687   2.915   5.649   8.887 -0.2085  0.1881  0.4797
   23CHL1  H23A 1688   2.960   5.552   8.855  0.8487  0.3568  1.3988
   23CHL1  H23B 1689   2.815   5.612   8.916 -0.4556  1.7480  1.7224
   23CHL1   C24 1690   2.877   5.737   8.771  0.2866 -0.2724 -0.1648
   23CHL1  H24A 1691   2.799   5.812   8.797  2.6810  2.5049 -0.5509
   23CHL1  H24B 1692   2.960   5.802   8.737  0.9483 -0.6269  0.7281
   23CHL1   C25 1693   2.832   5.662   8.647  0.1187 -0.8979  0.6062
   23CHL1   H25 1694   2.917   5.604   8.604  0.3065 -0.7738  0.8052
   23CHL1   C26 1695   2.719   5.561   8.676 -0.2565  0.6888 -0.6227
   23CHL1  H26A 1696   2.631   5.620   8.709 -0.4145  0.6253 -0.9295
   23CHL1  H26B 1697   2.678   5.503   8.591 -2.1133  0.7325  0.2037
   23CHL1  H26C 1698   2.752   5.496   8.760  0.9341 -0.4494 -1.9223
   23CHL1   C27 1699   2.790   5.771   8.547 -0.5460  0.2309 -0.1565
   23CHL1  H27A 1700   2.862   5.855   8.544 -1.0383  0.7600  1.7869
   23CHL1  H27B 1701   2.773   5.717   8.451  1.1517 -2.0640  0.7512
   23CHL1  H27C 1702   2.692   5.810   8.581 -0.2561  1.0728 -0.2648
   24CHL1    C3 1703   3.711   1.991  10.391 -0.0002 -0.3137  0.1285
   24CHL1    H3 1704   3.691   2.101  10.385  2.0232  0.2649  2.2514
   24CHL1    O3 1705   3.740   1.952  10.521  0.2446  0.0929  0.1387
   24CHL1   H3' 1706   3.835   1.958  10.528  0.2499  2.9495 -1.1111
   24CHL1    C4 1707   3.583   1.909  10.346 -0.3289 -0.6049  0.1369
   24CHL1   H4A 1708   3.611   1.803  10.360 -2.2678 -0.9867  1.4360
   24CHL1   H4B 1709   3.500   1.930  10.417 -0.1400 -0.8960  0.4412
   24CHL1    C5 1710   3.544   1.946  10.207 -0.4464  0.8176  0.6110
   24CHL1    C6 1711   3.427   1.992  10.172  0.3197  0.3525 -1.3068
   24CHL1    H6 1712   3.355   2.021  10.251  1.5081 -0.4191  0.1139
   24CHL1    C7 1713   3.369   2.008  10.030 -0.7945  0.3507 -0.5536
   24CHL1   H7A 1714   3.264   1.974  10.014 -0.1257 -1.0621 -2.1855
   24CHL1   H7B 1715   3.370   2.117  10.011  1.9576  0.2518 -1.3089
   24CHL1    C8 1716   3.466   1.947   9.924  0.1748  0.5954  0.3794
   24CHL1    H8 1717   3.459   1.837   9.919 -0.6634  0.5034  2.3558
   24CHL1   C14 1718   3.439   1.996   9.787  0.8069  0.6359  0.5913
   24CHL1   H14 1719   3.457   2.106   9.788  0.8112  0.8276 -3.5494
   24CHL1   C15 1720   3.291   1.999   9.746  0.3174 -0.1863 -0.3140
   24CHL1  H15A 1721   3.241   1.904   9.776 -0.3470 -0.2891 -1.6376
   24CHL1  H15B 1722   3.241   2.086   9.792  2.3325 -0.8092  3.4829
   24CHL1   C16 1723   3.292   2.005   9.594  0.1078  0.1090 -0.1708
   24CHL1  H16A 1724   3.237   1.918   9.553  0.8843 -0.1252 -0.7417
   24CHL1  H16B 1725   3.242   2.092   9.547  0.3506 -0.4987 -1.5839
   24CHL1   C17 1726   3.437   2.011   9.545  0.2370  0.2045  0.5275
   24CHL1   H17 1727   3.478   2.113   9.554 -0.7099  0.6848 -0.3699
   24CHL1   C13 1728   3.514   1.937   9.666  0.2620 -0.6386  0.1199
   24CHL1   C18 1729   3.503   1.785   9.658  0.1010 -0.0854  0.3923
   24CHL1  H18A 1730   3.397   1.753   9.665 -0.0056  0.1450 -0.1318
   24CHL1  H18B 1731   3.560   1.761   9.565 -0.2818  0.7106 -0.0584
   24CHL1  H18C 1732   3.561   1.748   9.745 -0.0227  0.4324  0.6968
   24CHL1   C12 1733   3.660   1.983   9.701 -0.2599 -0.1386  0.0280
   24CHL1  H12A 1734   3.738   1.957   9.626  1.0725 -1.2226  1.7072
   24CHL1  H12B 1735   3.659   2.094   9.706  0.3447 -0.1257 -0.0054
   24CHL1   C11 1736   3.710   1.941   9.848  0.0915  0.1657 -0.2248
   24CHL1  H11A 1737   3.733   1.833   9.833 -1.7746 -0.3238  0.2756
   24CHL1  H11B 1738   3.806   1.995   9.863 -0.1241  0.4162  0.2796
   24CHL1    C9 1739   3.610   1.975   9.960  0.2066  0.1969 -0.0324
   24CHL1    H9 1740   3.624   2.085   9.967  1.3872  0.1133 -0.7974
   24CHL1   C10 1741   3.652   1.913  10.096  0.8072 -0.2391 -0.4882
   24CHL1   C19 1742   3.682   1.763  10.075 -0.1497  0.4074  0.0360
   24CHL1  H19A 1743   3.700   1.704  10.167  3.0604  1.6591  0.3320
   24CHL1  H19B 1744   3.605   1.708  10.017  1.1575 -0.5111 -0.8778
   24CHL1  H19C 1745   3.773   1.749  10.012 -0.3798  3.5440 -1.1642
   24CHL1    C1 1746   3.783   1.978  10.141 -0.8656 -0.9612  0.4524
   24CHL1   H1A 1747   3.865   1.943  10.075  0.1899 -0.4529  1.4576
   24CHL1   H1B 1748   3.788   2.087  10.124 -0.9505 -1.0418 -0.0945
   24CHL1    C2 1749   3.826   1.941  10.287 -0.0880 -0.1920 -0.0516
   24CHL1   H2A 1750   3.913   2.008  10.309 -1.8684  1.5558  2.3194
   24CHL1   H2B 1751   3.846   1.836  10.317 -0.3673 -0.7738 -1.8208
   24CHL1   C20 1752   3.461   1.959   9.398  0.1837  0.5362 -0.5451
   24CHL1   H20 1753   3.450   1.849   9.389  5.3459 -0.5683  2.3478
   24CHL1   C21 1754   3.607   1.970   9.384 -0.3295  0.0357  0.6050
   24CHL1  H21A 1755   3.649   1.886   9.442  1.3100 -0.2996 -0.9825
   24CHL1  H21B 1756   3.651   2.071   9.397 -1.2550  0.9544 -2.5866
   24CHL1  H21C 1757   3.635   1.942   9.281  1.0368 -0.8346  1.1893
   24CHL1   C22 1758   3.368   2.041   9.297 -0.7675 -0.4887 -0.2378
   24CHL1  H22A 1759   3.390   2.013   9.192 -0.5850  2.0967 -0.9475
   24CHL1  H22B 1760   3.265   2.015   9.328 -0.5825  1.4145  2.3684
   24CHL1   C23 1761   3.400   2.192   9.287 -0.5149 -1.0631 -0.1877
   24CHL1  H23A 1762   3.380   2.236   9.387 -0.7500 -3.0210  0.6721
   24CHL1  H23B 1763   3.508   2.204   9.263 -1.0320  2.6193 -1.1844
   24CHL1   C24 1764   3.305   2.266   9.188  0.6701  0.5181 -0.8130
   24CHL1  H24A 1765   3.326   2.219   9.090 -1.2497  0.0597 -1.0451
   24CHL1  H24B 1766   3.204   2.238   9.224  1.3592 -2.3801 -0.9180
   24CHL1   C25 1767   3.316   2.424   9.175  0.6810 -0.0755  0.7759
   24CHL1   H25 1768   3.414   2.442   9.128  0.5003  0.5757  0.6377
   24CHL1   C26 1769   3.197   2.471   9.087 -0.4151 -0.0209 -0.4557
   24CHL1  H26A 1770   3.210   2.570   9.038 -1.6036 -0.0406 -0.8491
   24CHL1  H26B 1771   3.179   2.400   9.003 -2.4924  0.2720 -0.3210
   24CHL1  H26C 1772   3.107   2.462   9.151 -0.8709 -0.2766 -1.1206
   24CHL1   C27 1773   3.314   2.494   9.308 -0.2469  0.1251  0.9133
   24CHL1  H27A 1774   3.223   2.471   9.367 -1.0187  0.1242 -0.2476
   24CHL1  H27B 1775   3.396   2.463   9.375  0.5456 -0.8300 -0.4554
   24CHL1  H27C 1776   3.328   2.603   9.291  0.9768 -0.1588 -0.0042
   25CHL1    C3 1777   5.220   2.396  10.329  0.2085  0.6243  0.2554
   25CHL1    H3 1778   5.315   2.433  10.285  1.4639 -2.1099  0.4506
   25CHL1    O3 1779   5.226   2.407  10.468  0.2208  0.1287 -0.1329
   25CHL1   H3' 1780   5.171   2.338  10.505  1.5094  0.2305  2.1294
   25CHL1    C4 1781   5.098   2.480  10.283 -0.3823 -0.2041  0.6668
   25CHL1   H4A 1782   5.011   2.436  10.335 -1.2432 -0.4516 -0.9359
   25CHL1   H4B 1783   5.093   2.584  10.324 -1.6201  0.4383 -1.0052
   25CHL1    C5 1784   5.101   2.475  10.129  0.5913  0.0723  0.6622
   25CHL1    C6 1785   5.083   2.592  10.061  0.7101  0.4831 -0.3372
   25CHL1    H6 1786   5.057   2.681  10.120  1.2047 -0.9669  2.2106
   25CHL1    C7 1787   5.070   2.589   9.908  0.3406 -0.4039 -0.4184
   25CHL1   H7A 1788   4.980   2.651   9.891 -1.1808 -1.9850  1.4223
   25CHL1   H7B 1789   5.151   2.639   9.849 -0.5128 -1.6677 -2.7840
   25CHL1    C8 1790   5.065   2.447   9.838 -0.3567  0.4473  0.4471
   25CHL1    H8 1791   4.958   2.421   9.824 -0.5980  2.0613 -0.9942
   25CHL1   C14 1792   5.118   2.463   9.700 -0.5613  0.2460  0.2050
   25CHL1   H14 1793   5.224   2.492   9.717 -1.2144  2.3999  1.0187
   25CHL1   C15 1794   5.063   2.584   9.613  0.1870 -0.2148 -0.2590
   25CHL1  H15A 1795   4.956   2.612   9.624  0.3954  0.5353 -0.0599
   25CHL1  H15B 1796   5.131   2.672   9.616  0.8077 -0.7082  0.4449
   25CHL1   C16 1797   5.085   2.525   9.471 -0.1148  0.1485  0.3438
   25CHL1  H16A 1798   4.988   2.519   9.419  1.7932  0.8743 -3.6886
   25CHL1  H16B 1799   5.144   2.601   9.415 -0.5299  1.0890  1.1601
   25CHL1   C17 1800   5.163   2.398   9.476  0.0640  0.0318 -0.8100
   25CHL1   H17 1801   5.273   2.417   9.477  0.4913 -2.1006 -1.6500
   25CHL1   C13 1802   5.114   2.339   9.615 -0.4099 -0.0074 -0.4409
   25CHL1   C18 1803   4.968   2.293   9.594 -0.4401 -0.3628 -0.6535
   25CHL1  H18A 1804   4.951   2.237   9.499  1.2701  0.9719 -1.8343
   25CHL1  H18B 1805   4.950   2.217   9.673  2.5228  0.3273  0.8430
   25CHL1  H18C 1806   4.895   2.376   9.597  0.1969  0.1688  0.8041
   25CHL1   C12 1807   5.208   2.237   9.686  0.2794  0.2259  0.1734
   25CHL1  H12A 1808   5.196   2.135   9.644 -0.7902 -0.0993  1.2284
   25CHL1  H12B 1809   5.314   2.270   9.680 -0.4035  2.1784 -3.5095
   25CHL1   C11 1810   5.172   2.220   9.833  0.0735  0.2051 -0.4331
   25CHL1  H11A 1811   5.092   2.144   9.834  2.5461 -2.6086 -1.1128
   25CHL1  H11B 1812   5.253   2.160   9.881 -0.7026  0.5118  1.3219
   25CHL1    C9 1813   5.155   2.344   9.913 -0.1718  0.0221 -0.0076
   25CHL1    H9 1814   5.257   2.390   9.915 -0.6511  1.1433 -0.2924
   25CHL1   C10 1815   5.122   2.333  10.058  0.8879 -0.2807 -0.1057
   25CHL1   C19 1816   4.977   2.266  10.061  0.2400 -0.2197  0.1408
   25CHL1  H19A 1817   4.899   2.332  10.018  2.3438  1.7984 -0.7778
   25CHL1  H19B 1818   4.971   2.171  10.004 -0.4956  0.4739 -0.9854
   25CHL1  H19C 1819   4.955   2.234  10.165 -2.3427 -1.4743 -0.6821
   25CHL1    C1 1820   5.231   2.246  10.128  0.0805  0.1838  0.2042
   25CHL1   H1A 1821   5.224   2.140  10.096  0.0428  0.4188 -0.6134
   25CHL1   H1B 1822   5.334   2.279  10.103 -0.2637  0.5183 -0.8466
   25CHL1    C2 1823   5.219   2.251  10.287  0.8373  0.3015  1.1441
   25CHL1   H2A 1824   5.308   2.198  10.326  2.0142  0.5646 -1.0344
   25CHL1   H2B 1825   5.123   2.208  10.323  1.1398  0.0628  1.6656
   25CHL1   C20 1826   5.156   2.324   9.341 -0.5594 -0.1018  1.0496
   25CHL1   H20 1827   5.052   2.295   9.314 -0.6002  1.4858 -0.6495
   25CHL1   C21 1828   5.222   2.184   9.350  0.1095  0.1909 -0.6721
   25CHL1  H21A 1829   5.151   2.118   9.403  0.1194  0.9304  0.2869
   25CHL1  H21B 1830   5.315   2.194   9.410 -0.0986  0.5804 -0.4102
   25CHL1  H21C 1831   5.258   2.138   9.256  1.0871  0.4618 -0.4461
   25CHL1   C22 1832   5.218   2.405   9.216 -0.0790  0.2802 -0.7310
   25CHL1  H22A 1833   5.166   2.500   9.192 -1.5710 -0.9010 -2.3854
   25CHL1  H22B 1834   5.323   2.425   9.249  0.0864 -1.9967  0.3201
   25CHL1   C23 1835   5.232   2.335   9.083  0.3891  1.1203  0.2461
   25CHL1  H23A 1836   5.300   2.248   9.081 -1.5282 -0.5748  2.6160
   25CHL1  H23B 1837   5.134   2.294   9.051 -0.6998  1.8548  2.4174
   25CHL1   C24 1838   5.277   2.441   8.983 -0.3778  0.4870 -0.1818
   25CHL1  H24A 1839   5.220   2.536   8.990 -0.0902  0.5510  1.7200
   25CHL1  H24B 1840   5.382   2.473   8.999  0.0373 -0.3554 -1.1197
   25CHL1   C25 1841   5.270   2.400   8.841  0.0725  0.3202 -1.1925
   25CHL1   H25 1842   5.316   2.299   8.838  0.1170 -0.0070  3.3488
   25CHL1   C26 1843   5.130   2.406   8.787  0.0362 -0.0781 -0.9564
   25CHL1  H26A 1844   5.142   2.374   8.682 -1.9389 -0.6047 -1.0730
   25CHL1  H26B 1845   5.054   2.334   8.826 -0.3188  0.0469 -1.4081
   25CHL1  H26C 1846   5.082   2.506   8.790 -1.6859 -0.8677  0.5979
   25CHL1   C27 1847   5.362   2.492   8.760  0.4734 -0.3940  0.3504
   25CHL1  H27A 1848   5.347   2.600   8.780  0.7413 -0.0834 -1.0103
   25CHL1  H27B 1849   5.470   2.477   8.782  0.5593 -2.6956 -1.3078
   25CHL1  H27C 1850   5.349   2.490   8.650 -1.7625  1.9168  0.4691
   26CHL1    C3 1851   3.463   4.595   7.119 -0.1301 -0.4059  0.0199
   26CHL1    H3 1852   3.399   4.677   7.158 -0.8487 -0.7265 -0.4589
   26CHL1    O3 1853   3.414   4.552   6.992 -0.2189  0.0150 -0.2960
   26CHL1   H3' 1854   3.480   4.493   6.955 -2.5050 -2.1153 -1.2461
   26CHL1    C4 1855   3.595   4.654   7.095 -0.7482  0.1660  0.1496
   26CHL1   H4A 1856   3.660   4.576   7.050  0.1230  0.6046  0.6378
   26CHL1   H4B 1857   3.591   4.737   7.021  0.5776 -1.2328 -1.5843
   26CHL1    C5 1858   3.666   4.700   7.219 -0.3843 -0.6742 -0.1318
   26CHL1    C6 1859   3.709   4.827   7.232 -0.0443  0.6160 -0.3854
   26CHL1    H6 1860   3.713   4.881   7.137  3.0485 -1.8938 -1.8549
   26CHL1    C7 1861   3.772   4.887   7.354  0.4728  0.1714  0.4989
   26CHL1   H7A 1862   3.861   4.937   7.311 -0.5629  0.7900 -1.0154
   26CHL1   H7B 1863   3.722   4.972   7.404  1.4833  0.9204  0.2677
   26CHL1    C8 1864   3.813   4.780   7.460 -0.1613  0.2286  0.1257
   26CHL1    H8 1865   3.908   4.738   7.422 -0.1235  0.4816 -0.0629
   26CHL1   C14 1866   3.833   4.850   7.592  0.5520 -0.3649 -0.5974
   26CHL1   H14 1867   3.745   4.916   7.606  1.1660  0.2607  0.4997
   26CHL1   C15 1868   3.954   4.956   7.584  0.4052  0.7856 -0.1548
   26CHL1  H15A 1869   4.033   4.912   7.520  0.3737  0.6523 -0.1012
   26CHL1  H15B 1870   3.916   5.051   7.541  0.3682  1.1061  0.5649
   26CHL1   C16 1871   3.984   4.975   7.728 -0.9320 -0.7489 -0.0076
   26CHL1  H16A 1872   4.094   4.979   7.747 -1.0910  0.8061  0.7492
   26CHL1  H16B 1873   3.952   5.073   7.769 -0.6690 -0.4781 -0.4369
   26CHL1   C17 1874   3.906   4.866   7.813  0.6334 -0.0253 -0.4956
   26CHL1   H17 1875   3.811   4.916   7.842 -2.4664 -3.2597 -3.9229
   26CHL1   C13 1876   3.863   4.763   7.714 -0.2543 -0.5192  0.4332
   26CHL1   C18 1877   3.972   4.671   7.678 -0.8673  0.4887  0.5383
   26CHL1  H18A 1878   4.057   4.737   7.650 -1.8164  1.6111  0.2461
   26CHL1  H18B 1879   4.014   4.597   7.750 -0.2592 -1.7626 -1.9693
   26CHL1  H18C 1880   3.948   4.604   7.593 -0.2872  1.3756 -0.3503
   26CHL1   C12 1881   3.738   4.670   7.733  0.0552  0.0394  0.3896
   26CHL1  H12A 1882   3.752   4.607   7.824  0.3544  0.4909  0.6585
   26CHL1  H12B 1883   3.654   4.739   7.756  0.9921  1.0590  0.8136
   26CHL1   C11 1884   3.702   4.592   7.607 -1.5305 -1.1538  0.0125
   26CHL1  H11A 1885   3.775   4.509   7.598  0.1599  0.3447 -0.6535
   26CHL1  H11B 1886   3.608   4.541   7.636 -1.1727 -0.7989  1.9287
   26CHL1    C9 1887   3.701   4.683   7.479  0.9645 -0.1242 -0.1393
   26CHL1    H9 1888   3.611   4.746   7.500  1.2034 -0.1566  1.1002
   26CHL1   C10 1889   3.668   4.607   7.343 -0.2576  0.5897 -0.4308
   26CHL1   C19 1890   3.772   4.494   7.320 -0.0267 -0.0086 -0.2451
   26CHL1  H19A 1891   3.785   4.436   7.414  1.9757  1.8426  0.7178
   26CHL1  H19B 1892   3.735   4.424   7.243 -1.6037 -0.3854  0.8151
   26CHL1  H19C 1893   3.867   4.539   7.284 -0.2161  0.9821  0.4299
   26CHL1    C1 1894   3.522   4.541   7.356 -0.1478  0.3649  0.0332
   26CHL1   H1A 1895   3.527   4.460   7.433 -1.4390 -0.8913 -1.1352
   26CHL1   H1B 1896   3.450   4.617   7.393 -2.4492 -1.8566  0.3940
   26CHL1    C2 1897   3.455   4.483   7.225  0.0036 -0.0438 -0.0374
   26CHL1   H2A 1898   3.350   4.456   7.248  0.2194 -0.5788  0.3451
   26CHL1   H2B 1899   3.500   4.397   7.169 -1.5958 -0.7292 -0.3133
   26CHL1   C20 1900   3.968   4.812   7.938  0.2907  0.4979 -0.0917
   26CHL1   H20 1901   3.940   4.705   7.940 -0.6942  0.7319 -0.9107
   26CHL1   C21 1902   3.905   4.881   8.055 -0.1668  0.1110 -0.4345
   26CHL1  H21A 1903   3.956   4.842   8.145 -1.7407 -2.0052 -0.3938
   26CHL1  H21B 1904   3.794   4.870   8.059 -0.2751  1.1245 -0.3121
   26CHL1  H21C 1905   3.925   4.990   8.046 -3.2027  0.9958  1.9355
   26CHL1   C22 1906   4.125   4.833   7.951  0.2551  0.3229 -0.0944
   26CHL1  H22A 1907   4.160   4.786   7.857 -1.0648  0.2205 -0.5466
   26CHL1  H22B 1908   4.166   4.934   7.972  2.4790 -0.4331 -0.5675
   26CHL1   C23 1909   4.196   4.752   8.069  0.5788  0.2055  0.6105
   26CHL1  H23A 1910   4.306   4.768   8.070  0.4956  0.7501  1.2902
   26CHL1  H23B 1911   4.162   4.790   8.167  0.0002 -3.6429  2.0563
   26CHL1   C24 1912   4.152   4.601   8.072  0.4851  0.1987 -0.3448
   26CHL1  H24A 1913   4.050   4.589   8.115  0.2218  1.4037 -0.5784
   26CHL1  H24B 1914   4.154   4.563   7.967  1.6079 -1.4130  0.2339
   26CHL1   C25 1915   4.244   4.511   8.154 -0.4262  0.9305  0.2699
   26CHL1   H25 1916   4.348   4.509   8.115 -1.0331 -0.1120 -1.4201
   26CHL1   C26 1917   4.247   4.553   8.301  0.6274 -0.1456 -0.5245
   26CHL1  H26A 1918   4.275   4.659   8.314  1.1412 -0.3050 -0.2834
   26CHL1  H26B 1919   4.151   4.528   8.351  1.0615 -0.9460 -0.0571
   26CHL1  H26C 1920   4.324   4.494   8.355 -0.7981 -0.6034  1.1127
   26CHL1   C27 1921   4.208   4.367   8.148  0.0033 -0.1932 -0.0500
   26CHL1  H27A 1922   4.269   4.309   8.221  0.2906 -0.7743 -0.7511
   26CHL1  H27B 1923   4.100   4.353   8.169 -0.5202  0.7193 -1.9639
   26CHL1  H27C 1924   4.229   4.320   8.050  1.9297 -0.4987  0.4682
   27CHL1    C3 1925   4.968   3.947  10.065 -0.5372 -0.4541 -0.5836
   27CHL1    H3 1926   5.032   4.028  10.025  1.4676 -0.7718  1.7653
   27CHL1    O3 1927   4.997   3.916  10.204  0.1013 -0.1643  0.5941
   27CHL1   H3' 1928   4.931   3.854  10.238  0.7213 -2.1667 -1.6341
   27CHL1    C4 1929   4.827   3.985  10.057  0.2879 -0.4596 -0.0452
   27CHL1   H4A 1930   4.762   3.914  10.112  0.1785  1.6658  2.7816
   27CHL1   H4B 1931   4.812   4.072  10.124  1.3291  0.1730 -0.6138
   27CHL1    C5 1932   4.770   4.007   9.919  0.5922 -0.1303  0.4669
   27CHL1    C6 1933   4.714   4.126   9.889  0.1805 -0.0352 -0.3905
   27CHL1    H6 1934   4.698   4.201   9.968  0.0690 -0.7599  0.2965
   27CHL1    C7 1935   4.683   4.169   9.749  0.0048  0.1677 -0.2141
   27CHL1   H7A 1936   4.589   4.227   9.756 -1.0965 -1.5937  0.1149
   27CHL1   H7B 1937   4.763   4.238   9.713 -0.7465  0.8923 -0.5050
   27CHL1    C8 1938   4.667   4.055   9.647  0.4596  0.1424  0.1655
   27CHL1    H8 1939   4.579   3.994   9.676  0.8962 -1.2663 -1.3196
   27CHL1   C14 1940   4.669   4.110   9.507  0.8420 -0.2573  0.0383
   27CHL1   H14 1941   4.769   4.157   9.494  1.3842 -0.9926  1.4312
   27CHL1   C15 1942   4.552   4.204   9.463 -0.2859  0.1652 -1.0505
   27CHL1  H15A 1943   4.459   4.168   9.512  0.5447  1.4090  1.5878
   27CHL1  H15B 1944   4.566   4.312   9.487 -0.4245 -0.2362  0.9691
   27CHL1   C16 1945   4.542   4.200   9.304  0.1134  0.4710 -1.4915
   27CHL1  H16A 1946   4.437   4.177   9.276 -0.1369 -0.0239 -0.2274
   27CHL1  H16B 1947   4.552   4.299   9.254 -3.4339  1.0499 -1.2935
   27CHL1   C17 1948   4.649   4.090   9.263  0.3100 -0.6048  0.4163
   27CHL1   H17 1949   4.746   4.143   9.249  1.1631 -1.9004  1.2647
   27CHL1   C13 1950   4.672   4.004   9.392 -0.3698  1.0205 -0.4020
   27CHL1   C18 1951   4.550   3.910   9.404  0.5545 -0.1803 -0.3800
   27CHL1  H18A 1952   4.454   3.964   9.396  0.6904  0.1637  0.1943
   27CHL1  H18B 1953   4.558   3.832   9.326 -0.1048  0.5645 -1.2181
   27CHL1  H18C 1954   4.553   3.854   9.500  1.1261  1.0568  0.3540
   27CHL1   C12 1955   4.801   3.919   9.404  0.8496  0.1562 -0.5565
   27CHL1  H12A 1956   4.791   3.835   9.332 -2.8897  1.0921 -1.3395
   27CHL1  H12B 1957   4.889   3.980   9.375  0.2500  1.3815  0.1474
   27CHL1   C11 1958   4.812   3.857   9.552 -0.2938 -0.3714 -0.0539
   27CHL1  H11A 1959   4.734   3.778   9.558 -0.1741 -0.5637 -0.9572
   27CHL1  H11B 1960   4.904   3.796   9.566 -1.3701 -1.4734  3.1032
   27CHL1    C9 1961   4.792   3.961   9.665  0.2765 -0.5625 -0.3307
   27CHL1    H9 1962   4.876   4.033   9.657 -0.0249 -0.2778 -0.9632
   27CHL1   C10 1963   4.810   3.911   9.807  0.1359  0.2435 -0.0736
   27CHL1   C19 1964   4.717   3.788   9.824 -0.0611 -0.3369  0.1868
   27CHL1  H19A 1965   4.611   3.813   9.801  0.1232  0.3020  0.0087
   27CHL1  H19B 1966   4.749   3.705   9.758  0.3697  1.9322 -2.6432
   27CHL1  H19C 1967   4.719   3.747   9.927 -1.0686 -0.9494 -0.0266
   27CHL1    C1 1968   4.956   3.859   9.830  1.1954  0.1437 -0.2082
   27CHL1   H1A 1969   4.966   3.762   9.777 -0.8300 -0.7724  0.9409
   27CHL1   H1B 1970   5.032   3.933   9.797  0.0851  2.3911  1.9204
   27CHL1    C2 1971   4.988   3.821   9.976  0.0137 -0.3613 -0.4619
   27CHL1   H2A 1972   5.095   3.792   9.974 -0.3032 -1.7125  0.9859
   27CHL1   H2B 1973   4.923   3.734  10.000  1.8226 -1.7477 -0.4445
   27CHL1   C20 1974   4.617   4.025   9.135  1.2477 -0.6000  0.1679
   27CHL1   H20 1975   4.512   3.989   9.134  1.8526 -2.6100  1.7978
   27CHL1   C21 1976   4.714   3.913   9.106 -0.9157  0.4444  0.1967
   27CHL1  H21A 1977   4.815   3.960   9.114 -1.3177  1.2475  0.6932
   27CHL1  H21B 1978   4.698   3.877   9.002  2.0120 -0.1030 -0.1476
   27CHL1  H21C 1979   4.708   3.823   9.169 -1.3942  0.5511  0.3070
   27CHL1   C22 1980   4.620   4.123   9.015  0.0189 -0.8632 -0.2986
   27CHL1  H22A 1981   4.613   4.066   8.920 -0.2349 -0.3373 -0.6052
   27CHL1  H22B 1982   4.536   4.197   9.019  0.5343 -0.2839 -0.0683
   27CHL1   C23 1983   4.747   4.214   8.993 -0.4872  0.0899 -0.0109
   27CHL1  H23A 1984   4.758   4.273   9.087 -4.1774  0.3060  0.4039
   27CHL1  H23B 1985   4.836   4.149   8.977 -0.4002  0.1880  0.0686
   27CHL1   C24 1986   4.741   4.319   8.877  0.4546  0.2793 -0.7604
   27CHL1  H24A 1987   4.647   4.374   8.899  0.6166  0.2078  0.1601
   27CHL1  H24B 1988   4.832   4.382   8.881  1.1815 -0.5817 -2.5145
   27CHL1   C25 1989   4.733   4.254   8.734 -0.8217 -0.6135 -0.3503
   27CHL1   H25 1990   4.642   4.192   8.720 -1.4163  0.6009 -2.4095
   27CHL1   C26 1991   4.722   4.373   8.631  0.3587 -0.1566  0.5758
   27CHL1  H26A 1992   4.642   4.442   8.665 -0.7392 -1.0874 -0.0458
   27CHL1  H26B 1993   4.823   4.418   8.619  1.2275 -1.9364  0.7609
   27CHL1  H26C 1994   4.695   4.327   8.533 -2.4028 -1.3070  1.7645
   27CHL1   C27 1995   4.862   4.172   8.703 -0.1552 -0.0097  0.3162
   27CHL1  H27A 1996   4.859   4.080   8.765 -0.7770 -0.6176 -0.5805
   27CHL1  H27B 1997   4.865   4.154   8.593 -0.7936  1.6026  0.0171
   27CHL1  H27C 1998   4.954   4.224   8.737 -0.5424 -0.7867  2.7344
   28CHL1    C3 1999   3.727   6.615  10.284 -0.0337  0.2510  0.0661
   28CHL1    H3 2000   3.725   6.517  10.232 -1.3719 -0.2505  0.9741
   28CHL1    O3 2001   3.734   6.600  10.422 -0.1480 -0.6953  0.0653
   28CHL1   H3' 2002   3.643   6.601  10.451 -0.0251 -3.8161  0.9058
   28CHL1    C4 2003   3.851   6.688  10.229  0.3394  0.8425 -0.3133
   28CHL1   H4A 2004   3.875   6.786  10.276  0.7393  1.1147 -1.0618
   28CHL1   H4B 2005   3.936   6.628  10.267  0.2508  0.7815 -0.2110
   28CHL1    C5 2006   3.847   6.695  10.081  0.4944  0.1918 -0.3341
   28CHL1    C6 2007   3.954   6.666  10.005  0.4727  0.2926 -0.1850
   28CHL1    H6 2008   4.045   6.632  10.057 -0.2764  0.4673  1.2748
   28CHL1    C7 2009   3.971   6.684   9.860  0.6369  0.3850 -0.2670
   28CHL1   H7A 2010   4.075   6.713   9.834  0.5943  1.1676  0.3884
   28CHL1   H7B 2011   3.958   6.594   9.796  1.2407  1.4300 -1.9359
   28CHL1    C8 2012   3.862   6.783   9.807 -0.1932  0.5582 -0.3391
   28CHL1    H8 2013   3.900   6.884   9.835  2.0554  0.2420 -1.9240
   28CHL1   C14 2014   3.857   6.781   9.660 -0.3010  0.7878 -0.5601
   28CHL1   H14 2015   3.847   6.674   9.634  3.9572 -0.0742  0.6333
   28CHL1   C15 2016   3.982   6.829   9.591 -0.2670  0.2363  0.2581
   28CHL1  H15A 2017   4.028   6.921   9.634  0.2889 -0.8941  2.2147
   28CHL1  H15B 2018   4.057   6.747   9.599 -0.9250 -0.6254 -1.8230
   28CHL1   C16 2019   3.940   6.840   9.447  0.4747 -0.4335 -0.1192
   28CHL1  H16A 2020   3.977   6.930   9.394  0.0264 -0.8125 -1.1038
   28CHL1  H16B 2021   3.981   6.757   9.386 -1.3034 -0.6100 -1.1666
   28CHL1   C17 2022   3.781   6.829   9.443  0.0428 -0.2676  0.4180
   28CHL1   H17 2023   3.757   6.720   9.433 -0.3863 -0.2010  0.6776
   28CHL1   C13 2024   3.744   6.854   9.589  0.1205 -0.1014 -0.0411
   28CHL1   C18 2025   3.762   7.007   9.612 -0.4951  0.2954  0.5101
   28CHL1  H18A 2026   3.834   7.059   9.545  1.7531 -0.2462  2.3765
   28CHL1  H18B 2027   3.660   7.049   9.625 -0.2932  1.3453 -0.9821
   28CHL1  H18C 2028   3.792   7.031   9.716 -3.5920 -0.1996  1.6161
   28CHL1   C12 2029   3.607   6.801   9.644  0.1220 -0.0551 -0.1703
   28CHL1  H12A 2030   3.518   6.854   9.604  1.5841  2.2122 -0.5866
   28CHL1  H12B 2031   3.587   6.695   9.619 -1.1455 -0.7207  3.1758
   28CHL1   C11 2032   3.597   6.818   9.798  0.4818  0.8061 -1.0103
   28CHL1  H11A 2033   3.605   6.927   9.817  0.8215  0.7537 -0.8314
   28CHL1  H11B 2034   3.511   6.761   9.841  1.6782  0.2543  0.7978
   28CHL1    C9 2035   3.722   6.751   9.866  0.1600  0.4399  0.1279
   28CHL1    H9 2036   3.712   6.641   9.857 -0.9105  0.5456 -0.0709
   28CHL1   C10 2037   3.719   6.759  10.028  0.3295 -0.2253  0.6559
   28CHL1   C19 2038   3.722   6.908  10.069 -0.1956  0.2086  0.0565
   28CHL1  H19A 2039   3.650   6.980  10.024  0.7558 -0.1633 -2.2220
   28CHL1  H19B 2040   3.732   6.914  10.179  1.0160 -2.1896  0.1386
   28CHL1  H19C 2041   3.815   6.952  10.027 -0.1686  3.1558  2.8537
   28CHL1    C1 2042   3.587   6.693  10.089 -1.0290  0.0555 -0.1373
   28CHL1   H1A 2043   3.504   6.762  10.064 -1.0442 -0.1348 -0.6169
   28CHL1   H1B 2044   3.580   6.602  10.025 -3.5812  0.6945 -0.8718
   28CHL1    C2 2045   3.595   6.680  10.238  0.4018 -0.1791  0.0522
   28CHL1   H2A 2046   3.503   6.634  10.278  0.5493 -0.1881  0.3922
   28CHL1   H2B 2047   3.598   6.783  10.281  1.3631 -1.5772  3.7305
   28CHL1   C20 2048   3.714   6.913   9.328  0.4072 -0.2046 -0.0198
   28CHL1   H20 2049   3.743   7.017   9.352 -1.3394  0.3453 -0.0877
   28CHL1   C21 2050   3.558   6.889   9.327 -0.3814 -0.9051 -0.4000
   28CHL1  H21A 2051   3.535   6.783   9.306  1.7562 -1.2151 -1.4809
   28CHL1  H21B 2052   3.524   6.954   9.244 -1.2111  0.1875  0.7621
   28CHL1  H21C 2053   3.512   6.923   9.422  2.3951  1.0369  0.3808
   28CHL1   C22 2054   3.763   6.877   9.183 -0.1724  0.2566  0.2291
   28CHL1  H22A 2055   3.871   6.853   9.187  0.4463  2.3390 -2.0379
   28CHL1  H22B 2056   3.710   6.784   9.154 -0.0412  0.3340 -0.2578
   28CHL1   C23 2057   3.750   6.991   9.081 -0.8751  0.8310  0.2781
   28CHL1  H23A 2058   3.653   7.042   9.099 -1.6696 -0.4032 -0.4012
   28CHL1  H23B 2059   3.826   7.065   9.115  2.2580 -1.3559 -1.3761
   28CHL1   C24 2060   3.790   6.954   8.932 -0.1630  0.2805 -0.3202
   28CHL1  H24A 2061   3.901   6.941   8.929 -0.0541  1.2661 -1.1696
   28CHL1  H24B 2062   3.728   6.867   8.905 -0.8278  0.6776 -0.0874
   28CHL1   C25 2063   3.770   7.056   8.815  0.3290 -0.3685  0.1328
   28CHL1   H25 2064   3.660   7.063   8.805  0.0141 -0.2822  2.8605
   28CHL1   C26 2065   3.833   7.196   8.842  0.0164  0.6729  0.4545
   28CHL1  H26A 2066   3.939   7.170   8.820 -0.1927  0.9209 -0.9774
   28CHL1  H26B 2067   3.811   7.269   8.761  2.0648 -0.6700 -1.4648
   28CHL1  H26C 2068   3.812   7.235   8.943  0.1678  0.1251  0.7010
   28CHL1   C27 2069   3.812   7.005   8.681 -0.6443  0.0831 -0.7414
   28CHL1  H27A 2070   3.766   6.904   8.678 -0.4998 -0.0646  0.8101
   28CHL1  H27B 2071   3.783   7.071   8.597 -0.7275  0.8558 -0.1145
   28CHL1  H27C 2072   3.923   6.998   8.673 -0.5935  1.3601 -1.3795
   29CHL1    C3 2073   2.096   0.579   6.965 -0.0082  0.4333  0.8801
   29CHL1    H3 2074   2.171   0.517   7.018  1.3827 -0.7898 -2.2806
   29CHL1    O3 2075   2.143   0.603   6.834 -0.3187 -0.3334 -0.1368
   29CHL1   H3' 2076   2.090   0.542   6.783  0.1107 -0.9871  0.1987
   29CHL1    C4 2077   1.962   0.507   6.958 -0.2630  0.3759 -0.1193
   29CHL1   H4A 2078   1.897   0.579   6.903 -1.1015  0.7709  1.3406
   29CHL1   H4B 2079   1.967   0.407   6.911  0.6908 -0.1029  0.9695
   29CHL1    C5 2080   1.900   0.500   7.099 -0.1812  0.1030 -0.0367
   29CHL1    C6 2081   1.843   0.383   7.140 -0.6148 -0.5236 -0.2598
   29CHL1    H6 2082   1.840   0.300   7.069  1.8041  1.7274 -3.2860
   29CHL1    C7 2083   1.777   0.370   7.277  0.5075  0.1633  0.3664
   29CHL1   H7A 2084   1.673   0.338   7.257  0.9757 -0.5251 -1.1368
   29CHL1   H7B 2085   1.830   0.289   7.332  3.0688  2.1179  0.9625
   29CHL1    C8 2086   1.778   0.495   7.372  0.0025 -0.3756 -0.4106
   29CHL1    H8 2087   1.684   0.550   7.351  0.6731  1.3013  0.7936
   29CHL1   C14 2088   1.767   0.463   7.523  0.8681  0.2630 -0.3066
   29CHL1   H14 2089   1.869   0.420   7.534 -0.0400 -1.3858  3.1913
   29CHL1   C15 2090   1.668   0.359   7.578  0.1364  0.3268 -0.3141
   29CHL1  H15A 2091   1.566   0.376   7.536 -0.0583 -0.7420 -0.2878
   29CHL1  H15B 2092   1.707   0.261   7.544 -1.2301 -0.2347 -0.3262
   29CHL1   C16 2093   1.660   0.370   7.733  0.0306 -0.0332  0.4476
   29CHL1  H16A 2094   1.560   0.372   7.782  0.4274  0.2882  1.2698
   29CHL1  H16B 2095   1.722   0.286   7.769  1.2569 -0.0601 -1.5855
   29CHL1   C17 2096   1.743   0.500   7.762 -0.2225 -0.1532 -0.1424
   29CHL1   H17 2097   1.848   0.468   7.780 -0.0629 -0.1138 -0.9640
   29CHL1   C13 2098   1.757   0.578   7.622  0.5762  0.3224  0.3691
   29CHL1   C18 2099   1.617   0.648   7.604 -0.2973 -0.2130  0.3335
   29CHL1  H18A 2100   1.538   0.571   7.616 -1.0356  0.5936  0.7506
   29CHL1  H18B 2101   1.602   0.722   7.685  2.6769  0.6606  0.2304
   29CHL1  H18C 2102   1.614   0.703   7.507  0.7053 -0.0533  0.3816
   29CHL1   C12 2103   1.880   0.671   7.597  0.2661  0.1334 -0.0019
   29CHL1  H12A 2104   1.894   0.763   7.658  0.5120  0.5472 -0.6704
   29CHL1  H12B 2105   1.963   0.608   7.633  1.2302  1.4223  0.1095
   29CHL1   C11 2106   1.897   0.709   7.446 -0.2559  0.5725  0.4313
   29CHL1  H11A 2107   1.821   0.790   7.438 -0.5780  0.3258  0.9467
   29CHL1  H11B 2108   1.987   0.774   7.441  1.3384 -1.1695  3.4321
   29CHL1    C9 2109   1.897   0.590   7.344 -0.2195  0.0063  0.2012
   29CHL1    H9 2110   1.984   0.527   7.373 -0.7597 -1.4456 -1.1960
   29CHL1   C10 2111   1.909   0.628   7.192 -0.0689 -0.1814  0.0370
   29CHL1   C19 2112   1.806   0.732   7.154  0.0497  0.3077 -0.1498
   29CHL1  H19A 2113   1.804   0.729   7.043 -0.2161 -0.0703 -0.1338
   29CHL1  H19B 2114   1.709   0.694   7.191 -1.3840  1.8304 -2.1164
   29CHL1  H19C 2115   1.827   0.831   7.200 -2.6484  0.4002  1.0253
   29CHL1    C1 2116   2.047   0.696   7.179 -0.1319 -0.1569  0.3683
   29CHL1   H1A 2117   2.050   0.797   7.225  1.5522 -0.1171  0.2311
   29CHL1   H1B 2118   2.129   0.637   7.226  2.0047  1.6696 -0.8349
   29CHL1    C2 2119   2.091   0.719   7.034 -0.0855  0.0187 -0.1276
   29CHL1   H2A 2120   2.181   0.784   7.024 -0.5568  0.7897  0.5870
   29CHL1   H2B 2121   2.015   0.770   6.971  0.6944  0.2916 -0.8755
   29CHL1   C20 2122   1.705   0.581   7.890  0.7022  0.2589 -1.0772
   29CHL1   H20 2123   1.602   0.619   7.877  0.2378 -0.9301 -1.0151
   29CHL1   C21 2124   1.807   0.694   7.922 -0.5634 -0.0037  0.3397
   29CHL1  H21A 2125   1.906   0.643   7.922 -0.8033 -0.6370 -2.4539
   29CHL1  H21B 2126   1.789   0.737   8.023  1.3266 -0.1397  0.7700
   29CHL1  H21C 2127   1.808   0.774   7.846  1.6003 -1.7044 -1.5921
   29CHL1   C22 2128   1.694   0.481   8.011 -0.1431  0.5424  0.6344
   29CHL1  H22A 2129   1.643   0.386   7.981  0.2784  0.5951 -0.2967
   29CHL1  H22B 2130   1.798   0.451   8.035  0.2067 -0.1106 -1.4793
   29CHL1   C23 2131   1.644   0.536   8.143 -0.0289 -0.2396 -0.7043
   29CHL1  H23A 2132   1.712   0.614   8.183 -1.7765  0.6528  0.7117
   29CHL1  H23B 2133   1.547   0.591   8.134  0.5580  1.6549  2.7343
   29CHL1   C24 2134   1.617   0.418   8.245  0.7688  0.3234  0.5561
   29CHL1  H24A 2135   1.568   0.337   8.188 -1.1033  0.8170  1.3796
   29CHL1  H24B 2136   1.713   0.390   8.292 -0.2550 -1.2482  1.8327
   29CHL1   C25 2137   1.515   0.478   8.357  1.1224  0.1234  0.6575
   29CHL1   H25 2138   1.423   0.511   8.306  0.7796 -0.4808  0.8681
   29CHL1   C26 2139   1.458   0.357   8.441  0.2190  0.2439  0.6410
   29CHL1  H26A 2140   1.405   0.284   8.376 -1.3765  0.9426  1.1059
   29CHL1  H26B 2141   1.552   0.321   8.489 -0.2339  0.7713  1.9660
   29CHL1  H26C 2142   1.390   0.387   8.523 -0.4013 -0.3123  0.3425
   29CHL1   C27 2143   1.578   0.585   8.451  0.0170 -0.0684  0.2054
   29CHL1  H27A 2144   1.630   0.662   8.392  0.9981 -1.2239 -0.4922
   29CHL1  H27B 2145   1.495   0.632   8.509 -1.2679 -0.2487 -1.4109
   29CHL1  H27C 2146   1.661   0.542   8.512  0.5880  2.2560  1.1564
   30CHL1    C3 2147   4.565   0.733   6.605  0.3184 -0.0245 -0.2874
   30CHL1    H3 2148   4.657   0.673   6.596 -0.3928 -1.0842 -0.6750
   30CHL1    O3 2149   4.526   0.775   6.472  0.0580  0.3191 -0.1477
   30CHL1   H3' 2150   4.475   0.710   6.424 -0.5459  1.3844 -0.9836
   30CHL1    C4 2151   4.453   0.652   6.665 -0.3047  0.7499 -0.4807
   30CHL1   H4A 2152   4.351   0.694   6.667  0.4382  2.6209  1.3971
   30CHL1   H4B 2153   4.442   0.557   6.608  1.6371 -0.1191  0.4825
   30CHL1    C5 2154   4.486   0.613   6.809 -0.6620 -0.3801  0.4152
   30CHL1    C6 2155   4.478   0.490   6.851 -0.2097 -0.0065 -0.2804
   30CHL1    H6 2156   4.450   0.406   6.785  1.4999  0.3356 -1.5248
   30CHL1    C7 2157   4.506   0.451   6.995  0.1058 -0.2847  0.1664
   30CHL1   H7A 2158   4.452   0.358   7.023  2.0975 -1.0986  1.6012
   30CHL1   H7B 2159   4.614   0.427   7.011 -0.3846 -2.4797  0.4436
   30CHL1    C8 2160   4.484   0.567   7.089 -0.0597  0.0148 -0.8615
   30CHL1    H8 2161   4.376   0.582   7.109  0.1442 -1.5436  1.9553
   30CHL1   C14 2162   4.548   0.529   7.222 -1.0425  0.6832 -0.5064
   30CHL1   H14 2163   4.658   0.520   7.204 -1.1523  1.3191 -1.5544
   30CHL1   C15 2164   4.506   0.394   7.285  0.3238 -0.3454  0.4430
   30CHL1  H15A 2165   4.396   0.390   7.272  0.4242 -0.2499 -0.5204
   30CHL1  H15B 2166   4.543   0.302   7.236 -1.2564 -0.0576 -1.4219
   30CHL1   C16 2167   4.552   0.404   7.434 -0.6225 -0.1801 -0.2474
   30CHL1  H16A 2168   4.472   0.369   7.503  1.0535 -0.9801  1.3931
   30CHL1  H16B 2169   4.633   0.336   7.467 -0.4868  0.0729 -0.0555
   30CHL1   C17 2170   4.600   0.552   7.457  0.2840  0.1222 -0.1510
   30CHL1   H17 2171   4.710   0.544   7.450  0.1857 -3.0747  0.3672
   30CHL1   C13 2172   4.540   0.628   7.334  0.7053 -0.5252 -0.0519
   30CHL1   C18 2173   4.394   0.665   7.360  1.0129  0.2865 -0.2891
   30CHL1  H18A 2174   4.337   0.577   7.398  0.4532 -0.1529 -2.0139
   30CHL1  H18B 2175   4.399   0.736   7.444 -1.9838  0.8920 -0.5261
   30CHL1  H18C 2176   4.337   0.698   7.270 -1.7552 -3.4723 -0.1483
   30CHL1   C12 2177   4.620   0.755   7.284  0.1639  0.1474 -0.5572
   30CHL1  H12A 2178   4.618   0.844   7.351 -0.0027 -0.6528  0.5342
   30CHL1  H12B 2179   4.728   0.728   7.275  0.0466 -1.2939  1.6260
   30CHL1   C11 2180   4.575   0.804   7.146  0.5624 -0.5487  0.6808
   30CHL1  H11A 2181   4.476   0.853   7.162  0.1498 -1.3507  0.6328
   30CHL1  H11B 2182   4.639   0.876   7.090 -1.9097 -0.1445 -1.8574
   30CHL1    C9 2183   4.565   0.689   7.038 -1.0779 -0.7489 -0.1380
   30CHL1    H9 2184   4.666   0.646   7.026 -1.6867 -2.7328  1.2637
   30CHL1   C10 2185   4.520   0.736   6.898  0.3774 -0.0780  0.3459
   30CHL1   C19 2186   4.386   0.812   6.906 -0.0049  0.0240  0.2304
   30CHL1  H19A 2187   4.309   0.757   6.964  1.0825 -1.2822  0.4947
   30CHL1  H19B 2188   4.407   0.904   6.965  2.0898 -0.3345  0.1216
   30CHL1  H19C 2189   4.347   0.846   6.807 -0.9409  1.2254  0.9893
   30CHL1    C1 2190   4.632   0.818   6.837  0.5907 -0.0269 -0.0370
   30CHL1   H1A 2191   4.649   0.919   6.879 -1.6761  0.9164 -1.2331
   30CHL1   H1B 2192   4.730   0.766   6.840  0.1141 -1.0038 -0.8742
   30CHL1    C2 2193   4.608   0.858   6.688 -0.2020  0.4563  0.8473
   30CHL1   H2A 2194   4.706   0.889   6.645  0.4031 -0.3277  1.6117
   30CHL1   H2B 2195   4.536   0.941   6.676 -0.6885 -0.0321  0.2772
   30CHL1   C20 2196   4.576   0.605   7.604  0.7396 -0.4248 -0.8770
   30CHL1   H20 2197   4.467   0.622   7.613  1.0414  1.2312  0.0203
   30CHL1   C21 2198   4.640   0.735   7.619 -0.2098 -0.0958  0.4554
   30CHL1  H21A 2199   4.635   0.768   7.725  4.4786  0.6189  0.6601
   30CHL1  H21B 2200   4.584   0.813   7.562 -0.2641 -0.4444  0.0250
   30CHL1  H21C 2201   4.746   0.735   7.586  0.1934  0.9125  1.6734
   30CHL1   C22 2202   4.615   0.512   7.721  0.2241  0.7978  0.7073
   30CHL1  H22A 2203   4.575   0.409   7.702 -0.0468  1.3790 -2.4458
   30CHL1  H22B 2204   4.724   0.492   7.732 -0.1055 -0.2365  2.4321
   30CHL1   C23 2205   4.564   0.549   7.861 -0.2579 -0.5137  0.2193
   30CHL1  H23A 2206   4.567   0.660   7.873 -1.2749 -0.4471 -0.1035
   30CHL1  H23B 2207   4.456   0.527   7.863 -0.0805 -1.5112 -0.2947
   30CHL1   C24 2208   4.636   0.479   7.981  0.2634 -0.9107  0.2204
   30CHL1  H24A 2209   4.663   0.372   7.968 -1.7566 -1.6701  1.6943
   30CHL1  H24B 2210   4.727   0.532   8.016 -0.4275  0.3472  0.1722
   30CHL1   C25 2211   4.555   0.482   8.112  0.2168 -0.1206 -0.0235
   30CHL1   H25 2212   4.467   0.414   8.103  0.0863 -0.1985  1.5601
   30CHL1   C26 2213   4.619   0.419   8.233 -0.5962  0.1263 -0.3307
   30CHL1  H26A 2214   4.560   0.396   8.324  0.7732 -1.3910  0.2218
   30CHL1  H26B 2215   4.660   0.318   8.211  2.0308  1.1149 -0.2902
   30CHL1  H26C 2216   4.699   0.483   8.274 -1.2435  1.0495 -0.4863
   30CHL1   C27 2217   4.522   0.623   8.149 -0.1258  0.5140  0.1842
   30CHL1  H27A 2218   4.520   0.630   8.260 -0.7537 -1.3349  0.3297
   30CHL1  H27B 2219   4.596   0.697   8.113 -1.6994  1.7158 -0.7338
   30CHL1  H27C 2220   4.432   0.670   8.104 -0.4401 -1.7383 -1.6804
   31CHL1    C3 2221   6.251   4.848   6.692  0.1053 -0.3483 -0.6772
   31CHL1    H3 2222   6.320   4.923   6.646  0.3141 -0.4384 -0.5095
   31CHL1    O3 2223   6.185   4.779   6.587  0.5396  0.5080 -0.4521
   31CHL1   H3' 2224   6.123   4.847   6.560 -0.6990 -0.6528 -0.6465
   31CHL1    C4 2225   6.329   4.741   6.773  0.1005 -0.0693  0.0190
   31CHL1   H4A 2226   6.255   4.666   6.809 -0.4043  1.7175  3.0441
   31CHL1   H4B 2227   6.411   4.700   6.709  0.4076  2.8877 -1.6257
   31CHL1    C5 2228   6.390   4.788   6.902  0.6827  0.2124  0.3127
   31CHL1    C6 2229   6.524   4.787   6.933  0.3474  0.3187 -0.2070
   31CHL1    H6 2230   6.589   4.753   6.851  0.4828  1.5842 -0.6443
   31CHL1    C7 2231   6.574   4.826   7.067  0.0536 -1.0580 -0.3340
   31CHL1   H7A 2232   6.643   4.743   7.094 -0.2102 -1.5234 -1.0591
   31CHL1   H7B 2233   6.618   4.927   7.050  1.2637 -2.0275 -3.9809
   31CHL1    C8 2234   6.463   4.855   7.171  0.2013 -0.0508  0.1414
   31CHL1    H8 2235   6.428   4.758   7.211  0.2575  0.2689  0.9766
   31CHL1   C14 2236   6.525   4.934   7.290  0.0461 -0.2319 -0.6418
   31CHL1   H14 2237   6.554   5.030   7.243 -1.7642  0.8265  0.2796
   31CHL1   C15 2238   6.650   4.881   7.363 -0.0305  0.4340  0.3111
   31CHL1  H15A 2239   6.628   4.775   7.390 -1.5531  0.7899  0.5297
   31CHL1  H15B 2240   6.741   4.899   7.301 -0.0436 -0.5664 -0.0235
   31CHL1   C16 2241   6.651   4.961   7.493 -0.0633  0.2449  0.0126
   31CHL1  H16A 2242   6.649   4.891   7.579  0.2766 -0.2889 -0.4107
   31CHL1  H16B 2243   6.744   5.021   7.504  1.0190 -1.3708  0.0535
   31CHL1   C17 2244   6.525   5.051   7.489  0.7464 -0.0398 -0.0116
   31CHL1   H17 2245   6.546   5.142   7.429 -5.3128  0.8249 -1.5199
   31CHL1   C13 2246   6.426   4.969   7.402 -0.1829  0.4600 -0.1296
   31CHL1   C18 2247   6.379   4.844   7.477  0.5385  0.4940 -0.7137
   31CHL1  H18A 2248   6.333   4.778   7.402 -0.4598  0.9876 -0.5458
   31CHL1  H18B 2249   6.461   4.789   7.528 -1.3023 -1.5342  0.2025
   31CHL1  H18C 2250   6.305   4.871   7.556  3.2049 -1.1833  2.6444
   31CHL1   C12 2251   6.312   5.055   7.343  0.4160 -0.1012  0.3609
   31CHL1  H12A 2252   6.236   5.068   7.423 -0.1758  0.2347 -0.2478
   31CHL1  H12B 2253   6.353   5.154   7.315  1.4479 -1.3855 -3.2631
   31CHL1   C11 2254   6.243   4.983   7.224  0.4697  0.4112 -0.2310
   31CHL1  H11A 2255   6.214   4.888   7.274 -1.3052  2.1693  2.3427
   31CHL1  H11B 2256   6.151   5.034   7.189 -0.1124  1.6147  2.7544
   31CHL1    C9 2257   6.340   4.932   7.117  0.0958 -0.1087 -0.3549
   31CHL1    H9 2258   6.384   5.025   7.075 -1.5593  0.4373 -0.9951
   31CHL1   C10 2259   6.282   4.856   6.999 -0.2913 -0.1568  0.0623
   31CHL1   C19 2260   6.190   4.750   7.049  0.4542  0.0925  0.3159
   31CHL1  H19A 2261   6.230   4.700   7.139  0.6687 -0.2458  0.0357
   31CHL1  H19B 2262   6.093   4.796   7.080 -2.0358 -3.1507 -1.9035
   31CHL1  H19C 2263   6.162   4.664   6.983 -0.3547 -0.1578  0.9653
   31CHL1    C1 2264   6.198   4.958   6.919 -0.1396  0.4137  0.8292
   31CHL1   H1A 2265   6.118   4.995   6.986  0.1271  2.1752  0.2250
   31CHL1   H1B 2266   6.266   5.045   6.905  0.2062  0.0662  0.3059
   31CHL1    C2 2267   6.144   4.917   6.782 -0.3038  0.0878  0.4095
   31CHL1   H2A 2268   6.126   5.016   6.735  0.0647  0.7890  1.7071
   31CHL1   H2B 2269   6.053   4.855   6.795 -0.6015 -0.0867 -2.0289
   31CHL1   C20 2270   6.481   5.118   7.623  0.4113  1.0240  0.7805
   31CHL1   H20 2271   6.374   5.146   7.615  0.0473 -0.7842 -3.2901
   31CHL1   C21 2272   6.557   5.252   7.637 -0.0590  0.2211 -0.2618
   31CHL1  H21A 2273   6.550   5.292   7.741  1.0632 -0.3089  0.0288
   31CHL1  H21B 2274   6.508   5.324   7.568  1.7696 -0.9042 -2.8944
   31CHL1  H21C 2275   6.666   5.250   7.616 -0.2339  0.7851 -1.2382
   31CHL1   C22 2276   6.496   5.026   7.752 -0.1296  0.0106  0.2244
   31CHL1  H22A 2277   6.468   4.922   7.725  0.6929  0.1922 -1.4686
   31CHL1  H22B 2278   6.606   5.031   7.767 -0.1148 -0.4943  0.2987
   31CHL1   C23 2279   6.429   5.087   7.871  0.1431  0.0848  0.2109
   31CHL1  H23A 2280   6.487   5.178   7.898  0.0530  0.6423 -1.3617
   31CHL1  H23B 2281   6.331   5.130   7.842  0.1743 -0.1009 -0.1832
   31CHL1   C24 2282   6.425   4.994   7.989 -0.1348 -0.5652 -0.2544
   31CHL1  H24A 2283   6.399   4.894   7.946 -0.5138 -0.2167 -0.8481
   31CHL1  H24B 2284   6.524   4.985   8.039 -1.1504  0.0688  2.0122
   31CHL1   C25 2285   6.313   5.036   8.089  0.7536  0.6468 -0.3148
   31CHL1   H25 2286   6.215   5.017   8.039  0.3114 -1.7478  1.2710
   31CHL1   C26 2287   6.315   4.942   8.211  0.2441 -0.0852  0.1889
   31CHL1  H26A 2288   6.230   4.966   8.279 -1.0736 -0.5412 -1.2414
   31CHL1  H26B 2289   6.298   4.837   8.179 -3.6228  1.1116 -2.3915
   31CHL1  H26C 2290   6.412   4.950   8.264 -0.5598 -2.2824  2.1978
   31CHL1   C27 2291   6.324   5.180   8.143  0.5589 -0.5055  0.0686
   31CHL1  H27A 2292   6.319   5.256   8.061  2.6981 -0.1308  0.2215
   31CHL1  H27B 2293   6.420   5.194   8.197  0.2438 -0.1528  0.5454
   31CHL1  H27C 2294   6.242   5.201   8.215 -0.1386  1.5948 -1.2247
   32CHL1    C3 2295   4.118   1.306   6.742 -0.3602 -0.8931  0.4867
   32CHL1    H3 2296   4.152   1.406   6.777 -1.2147 -0.0604 -0.9787
   32CHL1    O3 2297   4.116   1.310   6.599  0.0687 -0.4586 -0.1524
   32CHL1   H3' 2298   4.079   1.224   6.578 -1.8389  0.0592  0.8845
   32CHL1    C4 2299   4.226   1.196   6.788  0.3137 -0.0029  0.4927
   32CHL1   H4A 2300   4.196   1.100   6.740 -0.9063  0.6575 -0.1265
   32CHL1   H4B 2301   4.325   1.225   6.748 -0.2296  1.3816  0.1018
   32CHL1    C5 2302   4.219   1.178   6.937 -0.2438 -0.2506  0.3389
   32CHL1    C6 2303   4.332   1.208   7.009 -0.2422  0.6885  0.0595
   32CHL1    H6 2304   4.428   1.235   6.961 -0.2897  2.0931  0.6981
   32CHL1    C7 2305   4.344   1.187   7.158 -0.4098 -0.0358 -0.0819
   32CHL1   H7A 2306   4.432   1.127   7.188  0.0158  0.0389 -1.1206
   32CHL1   H7B 2307   4.351   1.281   7.217 -0.4797 -0.5018  0.6765
   32CHL1    C8 2308   4.226   1.108   7.211  0.4400  0.2223 -0.1781
   32CHL1    H8 2309   4.234   1.002   7.179  0.7823  0.4087 -0.7260
   32CHL1   C14 2310   4.222   1.109   7.368 -0.5534 -0.0279  0.7872
   32CHL1   H14 2311   4.229   1.216   7.399  1.2717 -0.5871  2.4234
   32CHL1   C15 2312   4.352   1.060   7.452 -0.0157  0.2559  0.1905
   32CHL1  H15A 2313   4.369   0.955   7.424 -0.8744  0.2868 -0.4906
   32CHL1  H15B 2314   4.439   1.126   7.431 -1.5102  2.1111 -0.5212
   32CHL1   C16 2315   4.296   1.048   7.597  0.0470 -0.3203 -0.1941
   32CHL1  H16A 2316   4.331   0.954   7.645  0.9192  0.3594  0.5220
   32CHL1  H16B 2317   4.340   1.135   7.650 -0.7998  1.4027 -2.1799
   32CHL1   C17 2318   4.139   1.062   7.590  0.1758  0.0607 -0.1021
   32CHL1   H17 2319   4.114   1.166   7.620 -1.2536 -0.9732  2.5473
   32CHL1   C13 2320   4.100   1.048   7.443  0.6871  0.6029 -0.4420
   32CHL1   C18 2321   4.095   0.902   7.399  0.1099 -1.0654  0.2638
   32CHL1  H18A 2322   4.016   0.849   7.456 -1.9122  1.2808 -0.1742
   32CHL1  H18B 2323   4.083   0.895   7.288 -1.3213  2.2804  0.0925
   32CHL1  H18C 2324   4.185   0.849   7.438 -0.4826  1.0864  5.2302
   32CHL1   C12 2325   3.971   1.120   7.386 -0.5510 -0.6045 -0.3362
   32CHL1  H12A 2326   3.873   1.084   7.424 -1.0713 -0.2279 -1.2807
   32CHL1  H12B 2327   3.985   1.226   7.418  0.9704 -0.9112  0.1239
   32CHL1   C11 2328   3.964   1.119   7.235  0.2130 -0.0740  1.2232
   32CHL1  H11A 2329   3.930   1.018   7.204  0.2637  0.2519  0.0642
   32CHL1  H11B 2330   3.885   1.191   7.203  0.3779  0.2785  1.5905
   32CHL1    C9 2331   4.088   1.164   7.156 -0.3562  0.3310  0.1572
   32CHL1    H9 2332   4.097   1.272   7.178  0.6793  0.2789  0.0450
   32CHL1   C10 2333   4.076   1.158   7.002 -0.1115 -0.2131 -0.1304
   32CHL1   C19 2334   4.021   1.017   6.956 -0.3864 -0.2787  0.3812
   32CHL1  H19A 2335   4.080   0.935   7.002  0.5936  1.5835  2.6194
   32CHL1  H19B 2336   3.912   1.015   6.980 -0.3345  1.5514  0.9463
   32CHL1  H19C 2337   4.023   1.019   6.845  0.6304  3.0268  0.3427
   32CHL1    C1 2338   3.979   1.266   6.945 -0.0475  0.2081  0.4486
   32CHL1   H1A 2339   3.874   1.250   6.979  0.8095  0.5365  3.6283
   32CHL1   H1B 2340   4.017   1.361   6.990  1.6032 -0.5329  0.6840
   32CHL1    C2 2341   3.979   1.279   6.785  0.3443  0.0491 -1.6025
   32CHL1   H2A 2342   3.917   1.369   6.768  0.7778  1.0849  1.5745
   32CHL1   H2B 2343   3.925   1.187   6.752  1.6309 -1.1026 -0.6366
   32CHL1   C20 2344   4.076   0.971   7.698  0.0079  0.4654 -0.0129
   32CHL1   H20 2345   4.098   0.863   7.680  1.3036  0.1791  2.8738
   32CHL1   C21 2346   3.923   0.980   7.682 -0.1613 -0.0732 -0.5656
   32CHL1  H21A 2347   3.901   1.088   7.696  1.1153 -0.0803  2.0829
   32CHL1  H21B 2348   3.865   0.914   7.750 -3.9603  1.6979 -1.7970
   32CHL1  H21C 2349   3.879   0.946   7.586  0.0424 -0.7437 -0.4284
   32CHL1   C22 2350   4.097   0.998   7.850  0.7416  0.4098 -0.0137
   32CHL1  H22A 2351   4.203   1.014   7.880  0.9646 -1.6500  0.4282
   32CHL1  H22B 2352   4.045   1.092   7.878  0.3995  0.1659  0.1797
   32CHL1   C23 2353   4.050   0.882   7.946  0.0285  0.0205  0.1166
   32CHL1  H23A 2354   3.942   0.863   7.927 -0.5143  0.3748  2.5168
   32CHL1  H23B 2355   4.089   0.784   7.912 -1.2221 -0.3753 -0.2275
   32CHL1   C24 2356   4.067   0.916   8.095  0.3956 -0.6833  0.3900
   32CHL1  H24A 2357   4.176   0.933   8.107  0.3136 -0.2390  0.5306
   32CHL1  H24B 2358   4.005   1.005   8.119  1.3243 -0.8875  4.1725
   32CHL1   C25 2359   4.026   0.807   8.190 -0.2032  0.4539  0.9728
   32CHL1   H25 2360   3.919   0.782   8.169 -0.1562 -1.2534  2.5580
   32CHL1   C26 2361   4.121   0.685   8.181 -0.5222 -0.5832  0.0089
   32CHL1  H26A 2362   4.122   0.651   8.076 -0.2899  1.3815 -0.6719
   32CHL1  H26B 2363   4.228   0.700   8.207 -0.3371 -1.9991  0.1083
   32CHL1  H26C 2364   4.089   0.605   8.251  2.8465 -1.0247  1.2164
   32CHL1   C27 2365   4.038   0.864   8.330  0.4584  0.3706 -0.2641
   32CHL1  H27A 2366   4.144   0.861   8.364  0.3567 -1.4365 -0.0429
   32CHL1  H27B 2367   4.002   0.969   8.332 -0.9536 -0.0628  2.6569
   32CHL1  H27C 2368   3.969   0.804   8.393  1.2027 -0.2370 -0.0065
   33CHL1    C3 2369   6.683   0.318   6.953 -0.3384  0.6512 -0.2445
   33CHL1    H3 2370   6.650   0.225   7.002  2.8351 -0.1415  0.6240
   33CHL1    O3 2371   6.698   0.292   6.807 -0.1626 -0.4329 -0.6200
   33CHL1   H3' 2372   6.679   0.374   6.762 -1.8695 -0.6438 -0.3405
   33CHL1    C4 2373   6.581   0.440   6.975  0.2328  0.0428 -0.4216
   33CHL1   H4A 2374   6.612   0.519   6.903  1.4155 -0.7877 -0.8606
   33CHL1   H4B 2375   6.479   0.409   6.945  0.0903 -0.6853  0.7587
   33CHL1    C5 2376   6.576   0.496   7.116  0.5984 -0.5963 -0.2612
   33CHL1    C6 2377   6.457   0.496   7.183  0.3570 -0.3512  0.6010
   33CHL1    H6 2378   6.365   0.471   7.128 -0.1638 -1.3006  1.8497
   33CHL1    C7 2379   6.443   0.532   7.328  0.5686 -0.3682 -0.1135
   33CHL1   H7A 2380   6.356   0.600   7.347  2.1497  2.1799 -1.4356
   33CHL1   H7B 2381   6.428   0.429   7.366  1.3827 -1.4730 -2.6598
   33CHL1    C8 2382   6.564   0.599   7.397  0.3129 -1.0319  0.2479
   33CHL1    H8 2383   6.568   0.708   7.378  1.9491 -1.5978 -3.3536
   33CHL1   C14 2384   6.568   0.580   7.545  0.4907 -0.4887 -0.0466
   33CHL1   H14 2385   6.584   0.475   7.576  0.7177  0.1365  2.1282
   33CHL1   C15 2386   6.450   0.625   7.628 -0.5784 -0.0750 -0.5137
   33CHL1  H15A 2387   6.417   0.729   7.606  1.4805  0.9320  0.7673
   33CHL1  H15B 2388   6.372   0.548   7.613  0.8941 -1.7642  0.1367
   33CHL1   C16 2389   6.496   0.629   7.774 -0.3424  0.3265 -0.0609
   33CHL1  H16A 2390   6.469   0.720   7.832  0.0198 -1.3252  2.8895
   33CHL1  H16B 2391   6.477   0.539   7.836 -0.0799  0.6733  0.5284
   33CHL1   C17 2392   6.654   0.630   7.762  0.8247 -0.1546 -1.0030
   33CHL1   H17 2393   6.693   0.529   7.786 -0.5070 -0.2394  1.0528
   33CHL1   C13 2394   6.688   0.651   7.617  0.6121  0.2097 -0.5429
   33CHL1   C18 2395   6.683   0.805   7.596 -0.1354  0.1246  0.4551
   33CHL1  H18A 2396   6.679   0.831   7.488  0.1831  0.3589  0.4936
   33CHL1  H18B 2397   6.603   0.864   7.645  0.5669  0.9009  0.7100
   33CHL1  H18C 2398   6.785   0.848   7.613  1.2777 -2.0844 -1.7673
   33CHL1   C12 2399   6.813   0.577   7.566  0.1624  0.5670 -0.3949
   33CHL1  H12A 2400   6.911   0.613   7.604  1.3225  0.8821 -3.4323
   33CHL1  H12B 2401   6.820   0.473   7.606  1.0050  0.5953 -0.4460
   33CHL1   C11 2402   6.818   0.581   7.410 -0.3075 -0.0969  0.1787
   33CHL1  H11A 2403   6.843   0.686   7.384  2.4609 -0.1243  2.2647
   33CHL1  H11B 2404   6.908   0.518   7.391 -0.4477 -0.8365  1.8161
   33CHL1    C9 2405   6.693   0.533   7.339 -1.5665 -0.3160 -0.1796
   33CHL1    H9 2406   6.687   0.424   7.362 -1.0289 -0.6266 -1.4502
   33CHL1   C10 2407   6.706   0.533   7.186 -0.0307  0.6467 -0.1534
   33CHL1   C19 2408   6.746   0.670   7.126  0.2961 -0.3775  0.7604
   33CHL1  H19A 2409   6.667   0.744   7.153 -2.2133 -2.1064 -1.3918
   33CHL1  H19B 2410   6.840   0.710   7.171  0.2135 -1.4955  2.0020
   33CHL1  H19C 2411   6.757   0.675   7.016 -0.6894  0.1336  0.6769
   33CHL1    C1 2412   6.814   0.423   7.153 -0.4061  0.4519 -0.1338
   33CHL1   H1A 2413   6.915   0.460   7.181  1.0935 -1.5027 -2.5006
   33CHL1   H1B 2414   6.791   0.329   7.209 -0.2608 -0.4739 -1.5827
   33CHL1    C2 2415   6.818   0.371   7.007  0.6614 -0.0581  0.3810
   33CHL1   H2A 2416   6.888   0.286   6.994  3.3462  2.2575 -1.3295
   33CHL1   H2B 2417   6.855   0.457   6.947 -0.4469 -0.1997 -0.5540
   33CHL1   C20 2418   6.711   0.714   7.875 -0.4047 -0.5451 -0.3668
   33CHL1   H20 2419   6.675   0.819   7.867  1.0917 -0.0216 -0.6850
   33CHL1   C21 2420   6.871   0.740   7.870  0.9131 -0.2830 -0.1544
   33CHL1  H21A 2421   6.904   0.798   7.958 -0.2268 -1.4803  1.1151
   33CHL1  H21B 2422   6.894   0.782   7.769 -0.0114  0.8596  0.0884
   33CHL1  H21C 2423   6.913   0.638   7.885  0.3931 -0.4119  0.4679
   33CHL1   C22 2424   6.666   0.670   8.016 -0.2157 -0.0733  0.0680
   33CHL1  H22A 2425   6.723   0.731   8.089  0.7898 -2.3827  1.3210
   33CHL1  H22B 2426   6.557   0.684   8.033 -0.4650 -0.3788 -1.1618
   33CHL1   C23 2427   6.703   0.526   8.052  0.8081 -0.8807  0.2326
   33CHL1  H23A 2428   6.630   0.461   7.998 -2.4859  2.8654 -0.2716
   33CHL1  H23B 2429   6.808   0.499   8.029  1.3026  0.3348  0.9928
   33CHL1   C24 2430   6.679   0.482   8.197 -0.4422 -0.4346 -0.4614
   33CHL1  H24A 2431   6.686   0.372   8.211  0.9927 -0.2765  0.2316
   33CHL1  H24B 2432   6.753   0.528   8.266 -1.9525  0.3901  0.6707
   33CHL1   C25 2433   6.547   0.534   8.269 -0.3764  0.0142 -0.4142
   33CHL1   H25 2434   6.542   0.645   8.273 -1.1111 -0.0385  0.5653
   33CHL1   C26 2435   6.420   0.467   8.210 -0.2667 -0.5138 -0.8509
   33CHL1  H26A 2436   6.426   0.359   8.235 -0.1809  0.0626  1.9723
   33CHL1  H26B 2437   6.324   0.502   8.256  0.4857  0.2984  0.1626
   33CHL1  H26C 2438   6.402   0.469   8.101 -0.1168 -1.2279 -0.8887
   33CHL1   C27 2439   6.549   0.484   8.418  0.3384 -0.7383 -0.2476
   33CHL1  H27A 2440   6.619   0.549   8.474 -2.5014  2.2208  0.2018
   33CHL1  H27B 2441   6.457   0.496   8.480 -0.1034  0.6580 -1.1307
   33CHL1  H27C 2442   6.576   0.377   8.429  0.6886 -0.5532  0.7665
   34CHL1    C3 2443   0.600   3.966   6.775  0.4126 -0.3319  0.0680
   34CHL1    H3 2444   0.600   3.863   6.732  1.0143 -0.4728  0.3881
   34CHL1    O3 2445   0.630   4.048   6.661  0.3787  0.2852  0.1435
   34CHL1   H3' 2446   0.607   4.135   6.694 -1.0644 -0.5644  1.5475
   34CHL1    C4 2447   0.460   3.996   6.836  0.7335  0.3015  0.0837
   34CHL1   H4A 2448   0.463   4.106   6.850 -1.4664  0.4319 -0.1148
   34CHL1   H4B 2449   0.381   3.975   6.761  0.8703 -0.0584  0.0348
   34CHL1    C5 2450   0.427   3.939   6.973  0.4141  0.2623  0.4055
   34CHL1    C6 2451   0.310   3.872   6.991 -0.0705  0.4847  0.2547
   34CHL1    H6 2452   0.234   3.866   6.911  0.8211 -0.7208 -0.5277
   34CHL1    C7 2453   0.279   3.811   7.123 -0.1289 -0.6288  0.1385
   34CHL1   H7A 2454   0.174   3.835   7.149  0.3520  1.3199  0.4601
   34CHL1   H7B 2455   0.286   3.700   7.118  1.1539 -0.5425 -0.5011
   34CHL1    C8 2456   0.371   3.849   7.235 -0.3194  1.0781  0.0741
   34CHL1    H8 2457   0.340   3.949   7.270 -2.3805  0.0991  1.2124
   34CHL1   C14 2458   0.353   3.751   7.351  0.1530  0.2690 -0.4330
   34CHL1   H14 2459   0.377   3.652   7.308 -1.1285 -0.3930  0.3147
   34CHL1   C15 2460   0.216   3.745   7.408 -0.0133 -0.4071 -0.6149
   34CHL1  H15A 2461   0.182   3.849   7.432  3.4937  0.7301 -0.0333
   34CHL1  H15B 2462   0.155   3.693   7.331 -0.2977  1.9128 -2.0588
   34CHL1   C16 2463   0.244   3.678   7.543 -0.3931  0.9703 -0.7943
   34CHL1  H16A 2464   0.209   3.740   7.629  1.1128  0.0624  0.5205
   34CHL1  H16B 2465   0.194   3.579   7.548  1.3090  0.1042 -0.1321
   34CHL1   C17 2466   0.395   3.645   7.557  0.6094  0.9774 -0.5097
   34CHL1   H17 2467   0.414   3.547   7.509 -2.0011 -0.2859  0.8425
   34CHL1   C13 2468   0.457   3.757   7.465 -0.3627  0.0240  1.1379
   34CHL1   C18 2469   0.446   3.899   7.531  0.0728 -0.4220 -0.1195
   34CHL1  H18A 2470   0.460   3.970   7.447  1.2628  2.1158  2.0730
   34CHL1  H18B 2471   0.346   3.906   7.578  0.6128  0.8410  0.8912
   34CHL1  H18C 2472   0.525   3.916   7.608 -0.5286 -0.3304  0.4904
   34CHL1   C12 2473   0.595   3.725   7.408  0.0662  0.1084  0.6150
   34CHL1  H12A 2474   0.672   3.730   7.488  0.7645 -3.0904  0.2579
   34CHL1  H12B 2475   0.580   3.632   7.349 -0.4824  1.2309 -1.0853
   34CHL1   C11 2476   0.624   3.821   7.295  0.3786 -0.0178  0.2479
   34CHL1  H11A 2477   0.655   3.918   7.339 -1.0144  0.4453  0.2444
   34CHL1  H11B 2478   0.714   3.778   7.245 -0.6569 -1.9748 -0.0161
   34CHL1    C9 2479   0.514   3.836   7.180  0.0955  0.1285 -1.1515
   34CHL1    H9 2480   0.524   3.739   7.126  0.0430 -0.4022 -0.2183
   34CHL1   C10 2481   0.545   3.940   7.078 -0.2921 -0.1709 -0.0600
   34CHL1   C19 2482   0.574   4.078   7.145  0.8170 -0.8233  0.2128
   34CHL1  H19A 2483   0.495   4.117   7.213  0.2127  0.7165 -1.2783
   34CHL1  H19B 2484   0.665   4.070   7.206  0.4574  0.2352  0.9150
   34CHL1  H19C 2485   0.599   4.155   7.068  1.0150 -0.7116  0.3897
   34CHL1    C1 2486   0.677   3.901   6.999 -0.1969  0.0383 -0.5409
   34CHL1   H1A 2487   0.763   3.898   7.069  1.3734 -0.7330 -2.4140
   34CHL1   H1B 2488   0.675   3.795   6.965  1.2541 -0.2023  0.0190
   34CHL1    C2 2489   0.710   3.989   6.876 -0.3289  0.1649 -0.4241
   34CHL1   H2A 2490   0.805   3.965   6.824  0.9703  0.4645  1.6892
   34CHL1   H2B 2491   0.725   4.093   6.911  1.6983 -0.3048  0.2292
   34CHL1   C20 2492   0.445   3.638   7.704 -0.2078  0.1166  0.7128
   34CHL1   H20 2493   0.443   3.742   7.742  3.2101  1.4713 -2.2624
   34CHL1   C21 2494   0.588   3.588   7.703  0.3864 -0.6313  0.2672
   34CHL1  H21A 2495   0.655   3.674   7.681 -1.1548  0.5145 -0.1449
   34CHL1  H21B 2496   0.597   3.498   7.639 -1.0660  2.5726 -5.0368
   34CHL1  H21C 2497   0.609   3.567   7.810  1.0566  0.6541  0.4151
   34CHL1   C22 2498   0.361   3.543   7.802  0.0601 -0.3106 -0.3019
   34CHL1  H22A 2499   0.413   3.551   7.900 -0.5899  1.4855 -0.0567
   34CHL1  H22B 2500   0.267   3.599   7.822  0.1394 -0.4125  0.3825
   34CHL1   C23 2501   0.353   3.400   7.760 -0.0118 -0.2943  1.0638
   34CHL1  H23A 2502   0.293   3.398   7.667  1.1116 -1.5848  0.3400
   34CHL1  H23B 2503   0.445   3.350   7.721 -0.8118 -0.6532 -0.4365
   34CHL1   C24 2504   0.280   3.312   7.867  0.3320  0.6522 -0.0710
   34CHL1  H24A 2505   0.357   3.285   7.943 -0.5680 -0.0169  0.6119
   34CHL1  H24B 2506   0.197   3.370   7.912 -0.8006 -1.7237  1.0228
   34CHL1   C25 2507   0.222   3.178   7.812 -0.9432 -0.2449  0.0690
   34CHL1   H25 2508   0.145   3.218   7.743 -0.8983 -0.3099 -0.0184
   34CHL1   C26 2509   0.332   3.102   7.738 -0.2567  0.3845 -0.0430
   34CHL1  H26A 2510   0.395   3.160   7.667 -1.1379 -0.8358 -1.9071
   34CHL1  H26B 2511   0.401   3.046   7.805  1.9262  2.8949 -0.0094
   34CHL1  H26C 2512   0.280   3.029   7.672 -0.5477  1.2105 -0.7596
   34CHL1   C27 2513   0.153   3.095   7.923 -0.0337 -0.0231 -0.4420
   34CHL1  H27A 2514   0.230   3.079   8.001 -1.0326 -0.1475  0.5528
   34CHL1  H27B 2515   0.079   3.166   7.967 -0.8667 -0.8292 -0.5127
   34CHL1  H27C 2516   0.094   3.004   7.898 -0.1862  0.1762 -0.8205
   35CHL1    C3 2517   5.004   6.623   6.897 -0.5408  0.7176 -0.2240
   35CHL1    H3 2518   4.931   6.693   6.942 -0.3693 -1.0114  3.0600
   35CHL1    O3 2519   4.987   6.599   6.754 -0.0617 -0.4945 -0.6007
   35CHL1   H3' 2520   5.026   6.676   6.712  0.6549 -1.2541 -1.3659
   35CHL1    C4 2521   5.149   6.658   6.923 -0.0412  0.0612  0.4209
   35CHL1   H4A 2522   5.212   6.574   6.887 -0.7022  0.4965 -1.9074
   35CHL1   H4B 2523   5.166   6.753   6.867 -2.0897  1.9255  2.7188
   35CHL1    C5 2524   5.171   6.678   7.074  0.3004 -0.3544  0.1790
   35CHL1    C6 2525   5.214   6.791   7.130 -0.3029  0.3290 -0.4277
   35CHL1    H6 2526   5.216   6.872   7.056 -0.4770 -0.0932 -0.9030
   35CHL1    C7 2527   5.249   6.814   7.274 -0.3930  0.5040  0.1686
   35CHL1   H7A 2528   5.351   6.858   7.282  0.0757 -0.4580 -0.3005
   35CHL1   H7B 2529   5.179   6.888   7.319 -0.3801  0.7419 -0.2017
   35CHL1    C8 2530   5.248   6.679   7.351 -0.6118 -0.5619 -0.0754
   35CHL1    H8 2531   5.344   6.628   7.330 -2.0230 -3.1014 -0.6999
   35CHL1   C14 2532   5.242   6.715   7.500  0.6730  0.4145  0.2200
   35CHL1   H14 2533   5.150   6.775   7.516  0.5610 -0.0634  1.4626
   35CHL1   C15 2534   5.340   6.813   7.558  0.3324  0.2228  0.6455
   35CHL1  H15A 2535   5.447   6.794   7.536  0.7433  1.9004  1.0488
   35CHL1  H15B 2536   5.321   6.912   7.511 -1.1596 -1.4327 -2.5491
   35CHL1   C16 2537   5.312   6.794   7.710 -0.8268  0.6391 -0.6117
   35CHL1  H16A 2538   5.411   6.806   7.759  0.0556  0.1889 -2.2103
   35CHL1  H16B 2539   5.240   6.874   7.739  0.3974  2.0699 -1.3486
   35CHL1   C17 2540   5.229   6.656   7.737 -0.4812 -0.2541  0.4103
   35CHL1   H17 2541   5.122   6.682   7.750 -0.7452 -0.5568 -0.9365
   35CHL1   C13 2542   5.227   6.586   7.592  0.3528 -0.5652 -0.1383
   35CHL1   C18 2543   5.351   6.492   7.580  0.4086  0.7647 -0.3017
   35CHL1  H18A 2544   5.342   6.391   7.623 -0.4701  0.5915 -0.8527
   35CHL1  H18B 2545   5.366   6.483   7.470  2.6891  0.8690 -0.0468
   35CHL1  H18C 2546   5.443   6.542   7.616  1.4626  2.1148 -4.3672
   35CHL1   C12 2547   5.101   6.514   7.552 -0.1290 -0.4783  0.5333
   35CHL1  H12A 2548   5.077   6.430   7.620 -1.0257 -0.6804 -0.0128
   35CHL1  H12B 2549   5.019   6.590   7.552  0.2563  0.0803 -2.2639
   35CHL1   C11 2550   5.104   6.475   7.404  0.1541  0.0291 -0.5293
   35CHL1  H11A 2551   5.174   6.389   7.392  0.0653  0.1402 -2.1773
   35CHL1  H11B 2552   5.003   6.438   7.377  0.9271 -1.7943 -1.1229
   35CHL1    C9 2553   5.127   6.591   7.311  0.0090 -0.6031 -0.1371
   35CHL1    H9 2554   5.037   6.656   7.322 -0.2431 -0.9412 -0.2066
   35CHL1   C10 2555   5.134   6.554   7.161 -0.0285  0.0921 -0.4869
   35CHL1   C19 2556   5.245   6.449   7.124  0.4589  0.2246 -0.7860
   35CHL1  H19A 2557   5.233   6.361   7.191  0.7815  0.4846 -0.3809
   35CHL1  H19B 2558   5.237   6.419   7.018  0.0826  4.2736 -2.0733
   35CHL1  H19C 2559   5.349   6.482   7.146  0.9643 -2.9237  2.4904
   35CHL1    C1 2560   4.988   6.501   7.116 -0.4102  0.2727 -0.2373
   35CHL1   H1A 2561   4.960   6.402   7.158 -1.0958  0.8876  0.8174
   35CHL1   H1B 2562   4.921   6.582   7.152 -0.8969 -0.2551  0.0492
   35CHL1    C2 2563   4.969   6.490   6.964 -0.5040  0.1569  0.1112
   35CHL1   H2A 2564   4.860   6.473   6.953 -0.8540  3.0435 -2.3160
   35CHL1   H2B 2565   5.032   6.407   6.925 -0.8301  0.2267 -0.5731
   35CHL1   C20 2566   5.280   6.577   7.856 -0.0437 -0.8639 -0.3827
   35CHL1   H20 2567   5.383   6.546   7.828  0.8003  1.7649 -0.5250
   35CHL1   C21 2568   5.186   6.456   7.884 -0.2896 -0.3142  0.0924
   35CHL1  H21A 2569   5.199   6.368   7.818 -2.0582  0.9309 -2.0593
   35CHL1  H21B 2570   5.078   6.482   7.879 -0.1341  0.1535 -0.9358
   35CHL1  H21C 2571   5.202   6.429   7.991 -1.2953 -1.3951 -0.0120
   35CHL1   C22 2572   5.302   6.677   7.976 -0.2625  0.4529  0.4100
   35CHL1  H22A 2573   5.339   6.779   7.951  0.7690 -0.1031 -0.4335
   35CHL1  H22B 2574   5.213   6.697   8.039  0.6163  1.8809  1.2646
   35CHL1   C23 2575   5.396   6.614   8.077 -0.7382  0.4710  0.2524
   35CHL1  H23A 2576   5.347   6.518   8.106  0.3557 -0.0978  0.2911
   35CHL1  H23B 2577   5.492   6.579   8.032 -0.3596  0.4418  1.0735
   35CHL1   C24 2578   5.415   6.687   8.207  0.0564  0.2511 -0.1297
   35CHL1  H24A 2579   5.468   6.782   8.184 -1.4311  1.1531  0.1284
   35CHL1  H24B 2580   5.319   6.718   8.251 -0.0738 -0.4763  0.1156
   35CHL1   C25 2581   5.491   6.600   8.315 -1.0110 -0.6463  0.3348
   35CHL1   H25 2582   5.447   6.498   8.322 -1.0375 -0.6274  0.4529
   35CHL1   C26 2583   5.637   6.580   8.276 -0.3098 -0.4619 -0.3059
   35CHL1  H26A 2584   5.697   6.558   8.366  0.4632 -0.1636 -0.7421
   35CHL1  H26B 2585   5.648   6.502   8.198 -0.9448 -0.5099 -0.3586
   35CHL1  H26C 2586   5.661   6.679   8.232 -0.8858 -0.3641 -0.4193
   35CHL1   C27 2587   5.495   6.674   8.451 -0.1976  0.4816  0.3221
   35CHL1  H27A 2588   5.536   6.615   8.536 -1.6122 -1.2616 -0.1393
   35CHL1  H27B 2589   5.391   6.693   8.485 -0.4302 -0.4649  0.1686
   35CHL1  H27C 2590   5.544   6.773   8.439 -1.4230  0.9466 -1.0959
   36CHL1    C3 2591   2.863   4.562   6.891 -0.6465  0.1670  0.8706
   36CHL1    H3 2592   2.900   4.457   6.888 -0.0703  0.3309 -2.4430
   36CHL1    O3 2593   2.818   4.579   6.758  0.4793  0.0393 -0.2017
   36CHL1   H3' 2594   2.863   4.649   6.709  1.3358 -0.7791 -0.6254
   36CHL1    C4 2595   2.755   4.581   6.992  0.1863  0.4664 -0.2083
   36CHL1   H4A 2596   2.708   4.681   6.984 -0.1983  0.3635  0.6882
   36CHL1   H4B 2597   2.676   4.509   6.961 -0.9786  1.6053  0.0251
   36CHL1    C5 2598   2.814   4.534   7.135  0.2775  0.1572 -0.2772
   36CHL1    C6 2599   2.761   4.435   7.205 -0.4285  0.4567  0.0191
   36CHL1    H6 2600   2.668   4.394   7.164 -0.8914  1.2741  0.2282
   36CHL1    C7 2601   2.809   4.402   7.345  0.0626  0.4689  1.0910
   36CHL1   H7A 2602   2.721   4.387   7.411  0.9727 -1.4228  1.9468
   36CHL1   H7B 2603   2.858   4.305   7.325  0.3276  0.3720  2.1662
   36CHL1    C8 2604   2.895   4.518   7.408 -0.2166  0.4261 -0.0620
   36CHL1    H8 2605   2.826   4.601   7.434  2.5302  3.0075 -0.5012
   36CHL1   C14 2606   2.964   4.462   7.524 -0.1985 -0.0733  0.1753
   36CHL1   H14 2607   3.030   4.377   7.496 -1.1496 -0.2988 -1.5639
   36CHL1   C15 2608   2.871   4.412   7.639  0.6463 -0.3525 -0.2493
   36CHL1  H15A 2609   2.797   4.494   7.649  0.5992 -0.4609  0.2853
   36CHL1  H15B 2610   2.830   4.311   7.617  1.4639 -0.7331 -0.0785
   36CHL1   C16 2611   2.967   4.401   7.758  0.5179  0.0077 -0.3731
   36CHL1  H16A 2612   2.922   4.461   7.839  1.2822 -2.0920  1.7105
   36CHL1  H16B 2613   2.976   4.296   7.794  1.7344  0.3180  0.2753
   36CHL1   C17 2614   3.100   4.471   7.711 -0.1508  0.0996  0.4810
   36CHL1   H17 2615   3.156   4.378   7.686 -1.1901 -1.0658  2.2176
   36CHL1   C13 2616   3.068   4.553   7.586  0.1699  0.1113 -0.1077
   36CHL1   C18 2617   3.006   4.689   7.639 -0.2292  0.4064 -0.8073
   36CHL1  H18A 2618   3.087   4.758   7.670  0.0412  1.3991 -3.4659
   36CHL1  H18B 2619   2.953   4.736   7.553  1.4432  1.6102 -1.2198
   36CHL1  H18C 2620   2.933   4.665   7.720  1.4805 -2.0766  0.1201
   36CHL1   C12 2621   3.182   4.582   7.486  0.4715 -0.0980 -0.6253
   36CHL1  H12A 2622   3.250   4.657   7.531 -0.2159  1.2265 -1.7136
   36CHL1  H12B 2623   3.235   4.491   7.448  1.4979  0.3770 -0.3595
   36CHL1   C11 2624   3.115   4.641   7.366  0.0298 -0.3665 -0.1174
   36CHL1  H11A 2625   3.072   4.742   7.380 -0.2362 -0.3864 -0.7331
   36CHL1  H11B 2626   3.194   4.659   7.290 -0.8351  0.5708 -0.8194
   36CHL1    C9 2627   3.007   4.550   7.301  0.8139  0.0714  0.4896
   36CHL1    H9 2628   3.054   4.453   7.276  3.0215  1.2269 -0.1033
   36CHL1   C10 2629   2.950   4.610   7.175 -0.2952  0.0740  0.0341
   36CHL1   C19 2630   2.902   4.757   7.195 -0.8184  0.4740  0.5742
   36CHL1  H19A 2631   2.835   4.796   7.116 -0.1442 -2.5363 -1.6781
   36CHL1  H19B 2632   2.839   4.764   7.286  1.2054 -0.6894  2.1633
   36CHL1  H19C 2633   2.992   4.820   7.213 -1.2562  1.3516 -0.2377
   36CHL1    C1 2634   3.056   4.613   7.058 -0.0898 -0.2133 -0.0616
   36CHL1   H1A 2635   3.131   4.691   7.085 -0.9326  0.6139 -0.0943
   36CHL1   H1B 2636   3.102   4.512   7.047 -0.1489 -0.1351 -1.0548
   36CHL1    C2 2637   2.997   4.646   6.922  1.1262 -0.3372 -0.3236
   36CHL1   H2A 2638   3.074   4.632   6.842  0.7454  1.7025 -1.0978
   36CHL1   H2B 2639   2.963   4.751   6.934 -0.2928 -0.6451 -1.4132
   36CHL1   C20 2640   3.182   4.533   7.828  0.0038 -0.6884  0.2819
   36CHL1   H20 2641   3.134   4.629   7.857  2.3617  1.5634 -2.4858
   36CHL1   C21 2642   3.326   4.569   7.782  0.0923 -0.2281 -0.1617
   36CHL1  H21A 2643   3.361   4.491   7.711 -1.3971 -1.7008  0.6560
   36CHL1  H21B 2644   3.398   4.586   7.866  0.5097 -3.2480  0.1962
   36CHL1  H21C 2645   3.329   4.660   7.719  0.1459 -0.7279 -0.8869
   36CHL1   C22 2646   3.193   4.438   7.951  0.3760  0.1386 -0.7175
   36CHL1  H22A 2647   3.093   4.408   7.989  0.9114  1.8246  2.4249
   36CHL1  H22B 2648   3.239   4.343   7.915  2.7065  1.2200 -0.7787
   36CHL1   C23 2649   3.256   4.490   8.080  0.3720 -0.5132 -0.1932
   36CHL1  H23A 2650   3.366   4.504   8.070  0.4230 -2.0185 -2.3349
   36CHL1  H23B 2651   3.208   4.590   8.089  0.2249 -0.7087  1.5377
   36CHL1   C24 2652   3.219   4.402   8.195  0.8812 -0.1461  0.4126
   36CHL1  H24A 2653   3.111   4.410   8.220  0.9748 -1.4033  1.3050
   36CHL1  H24B 2654   3.241   4.305   8.145 -0.8540 -0.7182  0.6683
   36CHL1   C25 2655   3.296   4.416   8.325 -0.5364 -0.3251  0.8387
   36CHL1   H25 2656   3.402   4.400   8.294 -0.7720  1.0542 -0.8595
   36CHL1   C26 2657   3.283   4.561   8.395 -0.1607 -0.0336 -0.8254
   36CHL1  H26A 2658   3.302   4.635   8.314 -2.0348 -2.2652 -3.5296
   36CHL1  H26B 2659   3.181   4.595   8.425 -0.2684  0.3802 -1.6256
   36CHL1  H26C 2660   3.356   4.566   8.478 -0.0138  1.2100 -1.0192
   36CHL1   C27 2661   3.252   4.304   8.414 -0.9814 -0.3308  0.2839
   36CHL1  H27A 2662   3.241   4.209   8.357  1.3465 -0.1711 -0.5472
   36CHL1  H27B 2663   3.319   4.290   8.501 -2.5811  0.6773  1.7514
   36CHL1  H27C 2664   3.149   4.314   8.456 -1.4929 -1.4269 -0.6434
   37CHL1    C3 2665   2.008   6.462   6.963 -0.2616  0.2018  0.1654
   37CHL1    H3 2666   2.116   6.486   6.966  0.2057 -1.8066  1.4244
   37CHL1    O3 2667   1.984   6.426   6.830  0.6070 -0.1179 -0.0219
   37CHL1   H3' 2668   1.889   6.411   6.826  0.6201 -0.1393 -0.2715
   37CHL1    C4 2669   1.978   6.350   7.060 -0.1512  0.2673  0.4861
   37CHL1   H4A 2670   1.874   6.311   7.053 -0.2976  0.5040  1.2403
   37CHL1   H4B 2671   2.040   6.262   7.033 -1.1748 -0.2723 -0.1709
   37CHL1    C5 2672   1.985   6.406   7.200  0.4995  0.1808  0.6845
   37CHL1    C6 2673   2.068   6.343   7.279 -0.2435  0.2566 -0.2305
   37CHL1    H6 2674   2.135   6.267   7.237  0.0880  0.5445 -0.2195
   37CHL1    C7 2675   2.081   6.373   7.425 -0.1134 -0.4582 -0.0717
   37CHL1   H7A 2676   2.093   6.284   7.489 -0.8109  1.5315  3.0052
   37CHL1   H7B 2677   2.173   6.432   7.446 -0.5722  0.4654 -0.5703
   37CHL1    C8 2678   1.966   6.457   7.473  0.1602  0.1631  0.3982
   37CHL1    H8 2679   1.881   6.388   7.489  0.1610  0.2744  0.8908
   37CHL1   C14 2680   1.985   6.513   7.614  0.0869 -0.5536 -0.0178
   37CHL1   H14 2681   2.068   6.584   7.590 -2.6759  2.5230 -1.2543
   37CHL1   C15 2682   2.039   6.425   7.727  0.6564  0.2545  0.3581
   37CHL1  H15A 2683   1.972   6.340   7.747 -0.0835  0.7135 -0.1269
   37CHL1  H15B 2684   2.145   6.392   7.715  0.2808 -0.4052 -1.5598
   37CHL1   C16 2685   2.028   6.513   7.853 -0.2704  0.1525 -0.4632
   37CHL1  H16A 2686   1.986   6.466   7.944  1.1764 -2.6094 -1.1104
   37CHL1  H16B 2687   2.122   6.564   7.883 -1.5637  0.8717  2.6835
   37CHL1   C17 2688   1.937   6.635   7.816  0.2416  0.2087  0.6309
   37CHL1   H17 2689   2.006   6.719   7.793  1.2189 -1.1267 -1.7254
   37CHL1   C13 2690   1.871   6.598   7.678 -0.4671  0.7300 -0.1656
   37CHL1   C18 2691   1.748   6.513   7.711  0.2620 -0.3431  0.5743
   37CHL1  H18A 2692   1.661   6.575   7.743  1.0970  0.7081  0.8639
   37CHL1  H18B 2693   1.721   6.448   7.625 -2.1405  0.9764  0.2597
   37CHL1  H18C 2694   1.765   6.432   7.786 -0.8993 -2.0650 -0.9390
   37CHL1   C12 2695   1.843   6.707   7.574  0.4676  0.5090  0.4021
   37CHL1  H12A 2696   1.752   6.758   7.614  1.0942  1.7896  0.2372
   37CHL1  H12B 2697   1.928   6.778   7.573  0.5026  0.4653 -0.1077
   37CHL1   C11 2698   1.803   6.648   7.443 -0.2493 -0.4430  0.0593
   37CHL1  H11A 2699   1.717   6.578   7.457 -1.5808  1.1567  0.2504
   37CHL1  H11B 2700   1.775   6.735   7.379  2.8062  2.2756  2.0704
   37CHL1    C9 2701   1.925   6.572   7.378  0.4522  0.9118  0.3662
   37CHL1    H9 2702   2.008   6.644   7.388  0.4904  0.6668  2.1752
   37CHL1   C10 2703   1.895   6.526   7.236  0.4132 -0.2224  0.6057
   37CHL1   C19 2704   1.748   6.479   7.227  0.1952 -0.0371  0.7162
   37CHL1  H19A 2705   1.733   6.430   7.129  3.0950 -3.5578  1.8343
   37CHL1  H19B 2706   1.724   6.403   7.304  0.4211 -0.2950  0.5340
   37CHL1  H19C 2707   1.672   6.561   7.229 -1.0445 -1.1386  0.1958
   37CHL1    C1 2708   1.950   6.637   7.136  0.8719 -0.4249  0.5265
   37CHL1   H1A 2709   1.890   6.729   7.152  0.3310 -0.8809  1.2510
   37CHL1   H1B 2710   2.057   6.657   7.157  1.4143 -1.7104 -0.8008
   37CHL1    C2 2711   1.922   6.586   6.993 -0.3245 -0.0428 -0.1314
   37CHL1   H2A 2712   1.953   6.659   6.915 -1.4488 -0.8361 -1.3632
   37CHL1   H2B 2713   1.812   6.568   6.983 -0.6310  2.2311 -1.7169
   37CHL1   C20 2714   1.838   6.685   7.922 -0.1771  0.1485 -0.4977
   37CHL1   H20 2715   1.762   6.610   7.954 -0.2682  1.1265  1.7794
   37CHL1   C21 2716   1.759   6.802   7.873 -0.1393  0.2624 -1.0050
   37CHL1  H21A 2717   1.690   6.790   7.787  1.8972  1.1190 -2.8131
   37CHL1  H21B 2718   1.830   6.881   7.842 -0.4690  1.3266  0.7937
   37CHL1  H21C 2719   1.691   6.844   7.951 -0.0654 -0.9493 -0.2680
   37CHL1   C22 2720   1.915   6.724   8.056 -0.0230  0.4691  0.3560
   37CHL1  H22A 2721   1.990   6.644   8.073  1.2390  0.8407 -2.7244
   37CHL1  H22B 2722   1.969   6.815   8.022 -0.4932 -0.0121 -1.8279
   37CHL1   C23 2723   1.820   6.740   8.168  0.0693 -0.2430  0.9876
   37CHL1  H23A 2724   1.756   6.829   8.150 -1.2607 -1.0658  1.5328
   37CHL1  H23B 2725   1.751   6.657   8.192 -0.7570  0.5240  1.3348
   37CHL1   C24 2726   1.889   6.771   8.302 -0.1944 -0.2668 -0.1065
   37CHL1  H24A 2727   1.963   6.695   8.337 -1.8398 -2.5912 -1.3689
   37CHL1  H24B 2728   1.941   6.868   8.287  0.8949 -0.3648  2.5103
   37CHL1   C25 2729   1.778   6.774   8.413  0.3245  0.2615 -0.7057
   37CHL1   H25 2730   1.727   6.676   8.399  0.1092  0.2051  0.3993
   37CHL1   C26 2731   1.835   6.770   8.556  0.2940 -0.2251  0.1468
   37CHL1  H26A 2732   1.757   6.762   8.635  0.1680  1.7568  0.2697
   37CHL1  H26B 2733   1.906   6.685   8.555 -0.3603 -0.7897 -1.6944
   37CHL1  H26C 2734   1.895   6.859   8.584  1.2637 -1.0328  0.7102
   37CHL1   C27 2735   1.676   6.896   8.407  0.5096  0.0899 -0.5372
   37CHL1  H27A 2736   1.623   6.889   8.309  2.2578 -1.9916 -1.4241
   37CHL1  H27B 2737   1.601   6.893   8.489  0.6270  1.2118 -0.3811
   37CHL1  H27C 2738   1.726   6.995   8.413 -1.2471  0.9482  1.0135
   38CHL1    C3 2739   3.492   3.296   6.929  0.0700  0.5266 -0.6073
   38CHL1    H3 2740   3.544   3.390   6.956  0.1421  0.6613 -1.2122
   38CHL1    O3 2741   3.520   3.281   6.789  0.6408 -0.1564 -0.1625
   38CHL1   H3' 2742   3.469   3.204   6.766  0.6756 -0.2881  0.2045
   38CHL1    C4 2743   3.536   3.167   6.995  0.6939  1.1414  0.0013
   38CHL1   H4A 2744   3.482   3.078   6.955  0.0679  1.1714  0.7542
   38CHL1   H4B 2745   3.645   3.147   6.989  0.4602  0.2657 -2.1533
   38CHL1    C5 2746   3.497   3.169   7.143  0.4970 -0.2766  0.1915
   38CHL1    C6 2747   3.589   3.159   7.239 -0.0133 -0.7885 -0.5555
   38CHL1    H6 2748   3.691   3.133   7.207  0.2210  0.9640 -1.4108
   38CHL1    C7 2749   3.553   3.166   7.388  0.1726  0.6263 -0.0074
   38CHL1   H7A 2750   3.619   3.101   7.450  2.3030  1.5243 -1.2457
   38CHL1   H7B 2751   3.585   3.266   7.425  0.8148 -0.0569  1.3823
   38CHL1    C8 2752   3.403   3.145   7.414  0.7145 -0.0891  0.2068
   38CHL1    H8 2753   3.372   3.038   7.411  0.2956  0.0211  0.4985
   38CHL1   C14 2754   3.366   3.193   7.556  0.4190 -0.2321 -0.3454
   38CHL1   H14 2755   3.401   3.298   7.566 -1.1345  0.3802 -1.0561
   38CHL1   C15 2756   3.427   3.116   7.679  0.4039  0.0835 -0.5627
   38CHL1  H15A 2757   3.404   3.009   7.659 -0.8064  0.6171 -2.3492
   38CHL1  H15B 2758   3.536   3.138   7.684  0.1089  1.4360  1.0915
   38CHL1   C16 2759   3.349   3.167   7.808  0.0286 -0.2883 -0.2045
   38CHL1  H16A 2760   3.322   3.082   7.875  1.9081 -1.0158 -0.2913
   38CHL1  H16B 2761   3.417   3.241   7.856  0.4120  0.0605 -1.2590
   38CHL1   C17 2762   3.223   3.245   7.753 -0.4417 -0.0835  0.1647
   38CHL1   H17 2763   3.264   3.348   7.747  0.2945 -0.4496 -2.3358
   38CHL1   C13 2764   3.220   3.200   7.602  0.4861  0.2492 -0.1860
   38CHL1   C18 2765   3.142   3.065   7.589 -0.3149  0.7124 -0.2724
   38CHL1  H18A 2766   3.173   2.987   7.660 -0.6836 -0.6717 -1.5786
   38CHL1  H18B 2767   3.032   3.076   7.595 -0.4405 -0.0125 -1.0494
   38CHL1  H18C 2768   3.168   3.032   7.486  1.4356  3.1493 -0.7199
   38CHL1   C12 2769   3.150   3.297   7.510  0.0490 -0.0171  0.5604
   38CHL1  H12A 2770   3.040   3.313   7.515  0.1503  0.8130  0.2768
   38CHL1  H12B 2771   3.203   3.395   7.522  2.5620 -1.3632  1.2007
   38CHL1   C11 2772   3.168   3.256   7.363 -0.2121  0.4689  0.0447
   38CHL1  H11A 2773   3.114   3.162   7.337  0.3905 -0.1950  1.1210
   38CHL1  H11B 2774   3.124   3.336   7.300 -0.8027 -0.4045 -0.6853
   38CHL1    C9 2775   3.320   3.236   7.322 -0.0966  0.0414 -0.6745
   38CHL1    H9 2776   3.366   3.337   7.329 -0.8347  0.2997  0.7739
   38CHL1   C10 2777   3.350   3.203   7.176 -0.2243 -0.0641  0.1387
   38CHL1   C19 2778   3.259   3.075   7.138  0.0433  0.3514  0.3036
   38CHL1  H19A 2779   3.268   2.992   7.211 -1.5085 -0.6570 -0.5948
   38CHL1  H19B 2780   3.155   3.115   7.136  0.4048  1.5499  2.2766
   38CHL1  H19C 2781   3.280   3.049   7.033  0.8415 -0.3134  0.6203
   38CHL1    C1 2782   3.305   3.324   7.095  0.1184 -0.2246  0.6909
   38CHL1   H1A 2783   3.195   3.331   7.111 -0.0315  0.8911 -0.6363
   38CHL1   H1B 2784   3.355   3.417   7.129  2.0052 -0.1636 -1.9555
   38CHL1    C2 2785   3.347   3.327   6.950  0.3334 -0.0790  0.0938
   38CHL1   H2A 2786   3.308   3.417   6.898 -3.0497 -1.6512 -0.3790
   38CHL1   H2B 2787   3.295   3.241   6.903 -0.3758 -0.3291  1.3017
   38CHL1   C20 2788   3.102   3.255   7.843  0.1976 -0.2343  0.6288
   38CHL1   H20 2789   3.071   3.154   7.879  0.1729 -1.6829 -3.0833
   38CHL1   C21 2790   2.975   3.312   7.773  0.0020  0.8793 -0.1247
   38CHL1  H21A 2791   3.000   3.404   7.717 -0.1674 -0.7774 -3.1706
   38CHL1  H21B 2792   2.889   3.318   7.843  0.4554 -2.6345  0.9435
   38CHL1  H21C 2793   2.940   3.240   7.696  0.3397 -1.6761  1.9462
   38CHL1   C22 2794   3.125   3.341   7.971 -0.0102 -0.3773  0.0824
   38CHL1  H22A 2795   3.229   3.320   8.005 -0.3678 -0.5492  1.1161
   38CHL1  H22B 2796   3.117   3.447   7.937  0.5327  0.1757  1.5830
   38CHL1   C23 2797   3.028   3.299   8.077 -0.4108  0.4099  0.1808
   38CHL1  H23A 2798   2.926   3.325   8.041 -0.4974  0.7214  0.6442
   38CHL1  H23B 2799   3.042   3.192   8.106  1.7511  1.0444  1.7377
   38CHL1   C24 2800   3.040   3.376   8.209  0.4405  0.9494 -0.2085
   38CHL1  H24A 2801   3.139   3.348   8.252  0.2116  1.4272  0.6534
   38CHL1  H24B 2802   3.055   3.484   8.188  0.5717  0.8822 -0.4611
   38CHL1   C25 2803   2.930   3.371   8.311  0.2869 -0.5454  0.4167
   38CHL1   H25 2804   2.898   3.265   8.322 -1.8637 -0.0952 -0.9233
   38CHL1   C26 2805   2.976   3.413   8.447 -0.5721 -0.6420 -0.3747
   38CHL1  H26A 2806   3.068   3.359   8.476 -0.9128 -0.6849  0.6743
   38CHL1  H26B 2807   2.986   3.524   8.455  1.6118 -0.7993 -0.3827
   38CHL1  H26C 2808   2.911   3.385   8.532  0.1435 -2.0026 -0.2437
   38CHL1   C27 2809   2.802   3.452   8.265  0.0114 -0.7399 -0.1730
   38CHL1  H27A 2810   2.790   3.446   8.155 -0.8300  0.6184 -0.1777
   38CHL1  H27B 2811   2.709   3.426   8.320  1.1079 -0.9476  1.6626
   38CHL1  H27C 2812   2.815   3.561   8.286 -1.7864 -0.3541 -0.9103
   39CHL1    C3 2813   6.652   1.356   6.764 -0.0246 -0.8161  0.9642
   39CHL1    H3 2814   6.734   1.304   6.819  0.1814 -0.5815  0.8826
   39CHL1    O3 2815   6.680   1.389   6.629 -0.2449  0.0388 -0.5796
   39CHL1   H3' 2816   6.596   1.401   6.584 -1.0182 -0.2009  0.7402
   39CHL1    C4 2817   6.529   1.261   6.754 -0.3643 -0.5642  0.1014
   39CHL1   H4A 2818   6.438   1.307   6.709 -0.9759 -0.8979  0.9762
   39CHL1   H4B 2819   6.549   1.163   6.705 -0.6357 -1.4487  1.7034
   39CHL1    C5 2820   6.479   1.222   6.888  0.5596  0.1864  0.4102
   39CHL1    C6 2821   6.441   1.094   6.918 -0.2783  0.5210  1.0875
   39CHL1    H6 2822   6.444   1.020   6.837 -1.6112  1.8332 -0.2435
   39CHL1    C7 2823   6.382   1.048   7.047  0.1175  0.7691 -0.0054
   39CHL1   H7A 2824   6.295   0.980   7.039 -1.0930  2.0516  1.5930
   39CHL1   H7B 2825   6.448   0.972   7.094 -0.3961 -0.1033 -0.6718
   39CHL1    C8 2826   6.349   1.157   7.147  0.2122 -0.4771 -0.2285
   39CHL1    H8 2827   6.247   1.195   7.123  0.5412 -1.0702 -2.7850
   39CHL1   C14 2828   6.359   1.109   7.293 -0.1221 -0.2554 -0.0321
   39CHL1   H14 2829   6.468   1.087   7.297 -0.5682 -2.5422  2.3636
   39CHL1   C15 2830   6.276   0.991   7.320  0.6630 -0.5559 -0.2005
   39CHL1  H15A 2831   6.180   1.002   7.266  2.6516 -1.1420 -4.1758
   39CHL1  H15B 2832   6.325   0.896   7.287 -0.0668 -0.4715 -1.5854
   39CHL1   C16 2833   6.257   0.996   7.476 -1.2858  0.8393 -0.6165
   39CHL1  H16A 2834   6.150   1.011   7.503 -0.9203  1.4620  0.5244
   39CHL1  H16B 2835   6.298   0.904   7.523 -2.3563  0.6531  0.0002
   39CHL1   C17 2836   6.335   1.123   7.526  0.5577  0.4839 -0.0394
   39CHL1   H17 2837   6.439   1.086   7.543 -0.2429 -3.0675 -1.9053
   39CHL1   C13 2838   6.325   1.211   7.403 -0.4105  0.9547 -0.3036
   39CHL1   C18 2839   6.175   1.259   7.395 -0.9683  0.1060 -0.9622
   39CHL1  H18A 2840   6.186   1.324   7.306  1.1164  1.2026  0.0135
   39CHL1  H18B 2841   6.104   1.177   7.373  1.8347 -1.9275 -3.2551
   39CHL1  H18C 2842   6.137   1.330   7.471 -1.2616  0.0174 -1.0274
   39CHL1   C12 2843   6.409   1.332   7.382  0.0074  0.0234  0.2607
   39CHL1  H12A 2844   6.374   1.422   7.438 -0.2750  1.1594 -1.6523
   39CHL1  H12B 2845   6.513   1.311   7.414 -0.2322  0.3671  1.3106
   39CHL1   C11 2846   6.414   1.385   7.237 -0.4635 -0.0863 -0.0554
   39CHL1  H11A 2847   6.324   1.439   7.199  1.8885  2.9012 -1.9094
   39CHL1  H11B 2848   6.498   1.458   7.245 -0.8383  0.2035  1.4913
   39CHL1    C9 2849   6.447   1.277   7.133 -0.8269  0.0860  0.2067
   39CHL1    H9 2850   6.545   1.229   7.150 -1.7570 -2.1073 -0.3736
   39CHL1   C10 2851   6.463   1.335   6.991  0.8128 -0.4289 -0.1935
   39CHL1   C19 2852   6.333   1.412   6.953 -0.0771  0.0034  0.0925
   39CHL1  H19A 2853   6.323   1.435   6.845 -2.5091  1.4138  0.5407
   39CHL1  H19B 2854   6.242   1.360   6.987 -1.4720  0.9014 -2.0474
   39CHL1  H19C 2855   6.328   1.509   7.007  0.6131  1.2028 -1.8807
   39CHL1    C1 2856   6.587   1.431   6.983  0.3423 -0.9055 -0.6305
   39CHL1   H1A 2857   6.566   1.520   7.045  0.2618 -0.2066 -1.6395
   39CHL1   H1B 2858   6.675   1.386   7.034  0.0846 -0.6453  0.0547
   39CHL1    C2 2859   6.623   1.476   6.847  0.1410  0.1235 -0.4616
   39CHL1   H2A 2860   6.711   1.544   6.843  0.6219 -0.1816  2.4039
   39CHL1   H2B 2861   6.541   1.532   6.799 -0.5376 -1.7811 -1.6304
   39CHL1   C20 2862   6.275   1.178   7.661  0.2087 -0.2271  0.7216
   39CHL1   H20 2863   6.165   1.195   7.658  0.3277  0.4583 -0.6726
   39CHL1   C21 2864   6.342   1.310   7.701  0.8048  0.7098  0.5123
   39CHL1  H21A 2865   6.344   1.393   7.627  0.1513 -0.1466 -0.4769
   39CHL1  H21B 2866   6.449   1.289   7.721  0.2779 -1.0332  1.8377
   39CHL1  H21C 2867   6.293   1.349   7.794 -1.0571  0.5807 -0.3756
   39CHL1   C22 2868   6.294   1.080   7.778  0.3845  0.2952  0.2993
   39CHL1  H22A 2869   6.262   0.980   7.742  2.5239 -0.0913 -0.6573
   39CHL1  H22B 2870   6.403   1.062   7.784  0.4279  0.2966 -0.4010
   39CHL1   C23 2871   6.231   1.121   7.908 -1.1631 -0.1381  0.8951
   39CHL1  H23A 2872   6.281   1.211   7.951  0.9719 -1.1060  0.5671
   39CHL1  H23B 2873   6.132   1.162   7.880 -0.8148  2.4780  2.9588
   39CHL1   C24 2874   6.227   1.016   8.026 -0.5433 -0.1578 -0.0371
   39CHL1  H24A 2875   6.135   1.032   8.087 -0.4900 -1.6392  0.4781
   39CHL1  H24B 2876   6.223   0.917   7.977 -1.2556 -0.6735  1.0405
   39CHL1   C25 2877   6.356   1.015   8.114  0.1675 -0.5513  0.4307
   39CHL1   H25 2878   6.354   1.101   8.184  0.1664  0.4558 -0.7738
   39CHL1   C26 2879   6.338   0.899   8.211  0.1936  0.4899  0.2064
   39CHL1  H26A 2880   6.418   0.908   8.287  1.3839 -0.1250 -0.9274
   39CHL1  H26B 2881   6.252   0.928   8.275 -0.5720  2.1258 -1.4465
   39CHL1  H26C 2882   6.324   0.795   8.177 -1.5026  0.4537  0.8978
   39CHL1   C27 2883   6.482   1.021   8.030  0.4326 -0.0255 -0.0896
   39CHL1  H27A 2884   6.581   1.021   8.080  0.5369  2.3038 -0.2227
   39CHL1  H27B 2885   6.482   0.932   7.963  0.7829  0.1914 -0.3806
   39CHL1  H27C 2886   6.486   1.115   7.972 -2.8241  0.9942  1.1374
   40CHL1    C3 2887   0.551   0.757   6.727 -0.0839  0.7026  0.6681
   40CHL1    H3 2888   0.598   0.671   6.779  2.8375  0.5725 -1.8955
   40CHL1    O3 2889   0.556   0.723   6.591 -0.5971  0.4206  0.5745
   40CHL1   H3' 2890   0.646   0.709   6.562 -0.2545  0.9596  1.3436
   40CHL1    C4 2891   0.409   0.769   6.786  0.3360  0.2741 -0.6649
   40CHL1   H4A 2892   0.351   0.848   6.734  0.5048  1.5949  1.0711
   40CHL1   H4B 2893   0.354   0.675   6.765  0.0068  0.1651  0.6282
   40CHL1    C5 2894   0.416   0.820   6.928  0.2166  0.3373  0.0980
   40CHL1    C6 2895   0.338   0.757   7.019  0.5441  0.6745  0.1202
   40CHL1    H6 2896   0.268   0.678   6.990 -0.0587  1.5965 -1.0374
   40CHL1    C7 2897   0.330   0.801   7.161  0.2868  0.1185  0.2148
   40CHL1   H7A 2898   0.224   0.802   7.195  0.5889 -0.0873  1.1815
   40CHL1   H7B 2899   0.392   0.719   7.205  3.1526  0.7329 -2.3608
   40CHL1    C8 2900   0.394   0.929   7.193  0.6469  0.2285  0.1995
   40CHL1    H8 2901   0.326   1.009   7.158 -2.1762 -1.8225  0.5668
   40CHL1   C14 2902   0.403   0.935   7.345 -0.8582 -0.0120  0.9088
   40CHL1   H14 2903   0.461   0.843   7.369 -1.9483 -1.7948 -2.5502
   40CHL1   C15 2904   0.278   0.912   7.434  0.2719 -0.2483  0.1514
   40CHL1  H15A 2905   0.187   0.957   7.389  1.6093  0.3212 -2.1532
   40CHL1  H15B 2906   0.255   0.805   7.453  0.2933 -0.6392 -1.7942
   40CHL1   C16 2907   0.319   0.986   7.563 -0.1888  0.6506  0.4346
   40CHL1  H16A 2908   0.252   1.073   7.581  1.9093  2.0698  2.0009
   40CHL1  H16B 2909   0.325   0.910   7.643  0.9151 -0.3894 -0.5873
   40CHL1   C17 2910   0.466   1.029   7.549 -0.3164  0.1583 -0.5070
   40CHL1   H17 2911   0.537   0.947   7.574  1.0554  1.4641  0.0309
   40CHL1   C13 2912   0.484   1.055   7.400 -0.3724  0.2656  0.4142
   40CHL1   C18 2913   0.416   1.190   7.362 -1.1682 -0.3477  0.2603
   40CHL1  H18A 2914   0.373   1.191   7.259  0.9611 -1.8891 -0.7024
   40CHL1  H18B 2915   0.335   1.208   7.436 -0.1422  0.1466  1.2927
   40CHL1  H18C 2916   0.489   1.272   7.376 -2.0936  1.0762 -2.4362
   40CHL1   C12 2917   0.629   1.046   7.342  0.7153 -0.1465 -0.1928
   40CHL1  H12A 2918   0.679   1.142   7.364  1.8242 -0.7121 -0.1956
   40CHL1  H12B 2919   0.684   0.960   7.387  2.6150  0.8133 -0.5953
   40CHL1   C11 2920   0.615   1.046   7.187 -0.1617 -0.5236 -0.0378
   40CHL1  H11A 2921   0.578   1.146   7.158  2.4238  0.3070 -0.6761
   40CHL1  H11B 2922   0.721   1.041   7.153  0.0516  1.2293  0.2849
   40CHL1    C9 2923   0.530   0.930   7.126 -0.2149  0.7582 -0.1539
   40CHL1    H9 2924   0.569   0.831   7.155  0.2002  0.9282 -0.1242
   40CHL1   C10 2925   0.521   0.930   6.971  1.0363  0.4354 -0.4368
   40CHL1   C19 2926   0.449   1.054   6.921  0.1581 -0.2709  0.0811
   40CHL1  H19A 2927   0.509   1.145   6.942  0.3322 -0.1615 -0.8332
   40CHL1  H19B 2928   0.440   1.047   6.810  0.4259  1.1936 -0.0562
   40CHL1  H19C 2929   0.346   1.073   6.959  0.3004 -0.8849  0.8012
   40CHL1    C1 2930   0.652   0.909   6.904 -0.8964 -0.5557  0.5772
   40CHL1   H1A 2931   0.716   0.999   6.918 -0.1364 -0.8931 -0.5639
   40CHL1   H1B 2932   0.702   0.825   6.957  0.6007  1.0049  1.7741
   40CHL1    C2 2933   0.640   0.876   6.750  0.0637 -0.2108 -0.5603
   40CHL1   H2A 2934   0.747   0.866   6.721  1.1990 -0.4973  3.2805
   40CHL1   H2B 2935   0.606   0.963   6.689 -1.3207 -1.4711 -1.6916
   40CHL1   C20 2936   0.491   1.141   7.649  0.1498  0.0116 -0.4766
   40CHL1   H20 2937   0.416   1.221   7.630  0.8006  0.2391 -2.3152
   40CHL1   C21 2938   0.632   1.204   7.619  0.0317  0.1165 -1.0255
   40CHL1  H21A 2939   0.624   1.284   7.542 -1.1199 -0.2036 -1.2477
   40CHL1  H21B 2940   0.703   1.123   7.591  3.4540  2.8922 -1.1902
   40CHL1  H21C 2941   0.678   1.247   7.711 -2.2883  0.0930  0.2200
   40CHL1   C22 2942   0.499   1.094   7.795  0.3067 -0.3009 -0.0421
   40CHL1  H22A 2943   0.425   1.015   7.817  0.8052 -1.4841 -2.3645
   40CHL1  H22B 2944   0.596   1.051   7.828 -0.8973 -1.6036  2.0033
   40CHL1   C23 2945   0.465   1.214   7.895  0.0374 -0.6381  0.0918
   40CHL1  H23A 2946   0.540   1.296   7.886 -1.9282  1.3312  0.8190
   40CHL1  H23B 2947   0.367   1.265   7.883  1.5704  2.1744 -1.5240
   40CHL1   C24 2948   0.461   1.165   8.039 -0.2301 -0.6135 -0.3347
   40CHL1  H24A 2949   0.371   1.107   8.068  0.0573 -0.5498  0.7356
   40CHL1  H24B 2950   0.546   1.094   8.052  1.0908  1.1642  1.2707
   40CHL1   C25 2951   0.474   1.256   8.160 -0.0139 -0.1212 -0.6035
   40CHL1   H25 2952   0.382   1.318   8.162 -0.1184 -0.2597  1.9195
   40CHL1   C26 2953   0.485   1.166   8.288 -0.4646  0.0661  0.5024
   40CHL1  H26A 2954   0.499   1.227   8.379  1.0945  2.7679 -1.3968
   40CHL1  H26B 2955   0.393   1.104   8.294 -0.5622  0.2061  0.4547
   40CHL1  H26C 2956   0.571   1.097   8.276  1.0565  1.6606  1.7166
   40CHL1   C27 2957   0.593   1.358   8.149 -0.2710  0.9991  0.9897
   40CHL1  H27A 2958   0.587   1.437   8.226  1.0107  1.6962  0.4072
   40CHL1  H27B 2959   0.694   1.312   8.157 -0.6422  0.4883  3.1610
   40CHL1  H27C 2960   0.586   1.389   8.042  1.1194 -4.4103 -1.0016
   41CHL1    C3 2961   0.985   6.442   6.728 -0.2441 -0.1481 -0.2957
   41CHL1    H3 2962   0.941   6.543   6.738  2.6360  1.1497  0.1978
   41CHL1    O3 2963   0.965   6.392   6.600  0.0277  0.3643 -0.1665
   41CHL1   H3' 2964   0.981   6.298   6.606 -0.5492  0.2109 -0.8798
   41CHL1    C4 2965   1.141   6.445   6.759  0.1339  0.0419 -0.4576
   41CHL1   H4A 2966   1.187   6.350   6.724  0.5764  0.2505 -0.4598
   41CHL1   H4B 2967   1.190   6.527   6.701 -1.9733  0.9653 -1.0160
   41CHL1    C5 2968   1.160   6.462   6.909 -0.2127 -0.7769 -0.0120
   41CHL1    C6 2969   1.251   6.556   6.946  0.7752  0.2258  0.3897
   41CHL1    H6 2970   1.307   6.614   6.872  1.3833 -1.6530 -0.6584
   41CHL1    C7 2971   1.301   6.578   7.088  0.3503  0.3203  0.3109
   41CHL1   H7A 2972   1.409   6.604   7.088  0.9041 -1.7153 -1.3198
   41CHL1   H7B 2973   1.251   6.673   7.117  0.6568  0.4333  0.4767
   41CHL1    C8 2974   1.256   6.463   7.182 -0.2377  0.2907  0.8018
   41CHL1    H8 2975   1.319   6.373   7.164 -0.8803 -0.5621  2.5620
   41CHL1   C14 2976   1.273   6.501   7.324  0.2203 -0.4322 -0.0956
   41CHL1   H14 2977   1.192   6.578   7.329 -0.0892 -0.5568 -2.2721
   41CHL1   C15 2978   1.399   6.568   7.366  0.8347  0.2609  0.2184
   41CHL1  H15A 2979   1.473   6.499   7.321 -0.1372  0.4234 -1.7457
   41CHL1  H15B 2980   1.419   6.671   7.330  1.4251 -0.5143 -1.8644
   41CHL1   C16 2981   1.395   6.564   7.512 -0.3677  0.6668  0.4212
   41CHL1  H16A 2982   1.485   6.508   7.546 -0.5687 -0.4811 -0.8755
   41CHL1  H16B 2983   1.384   6.668   7.549  2.2203  1.3018 -0.3938
   41CHL1   C17 2984   1.272   6.485   7.558  0.6451 -0.0843  0.1928
   41CHL1   H17 2985   1.198   6.567   7.571  0.1145 -0.1345 -2.0198
   41CHL1   C13 2986   1.232   6.405   7.433 -1.0445  0.2054 -0.3666
   41CHL1   C18 2987   1.319   6.270   7.428 -0.9255  1.2767 -0.1912
   41CHL1  H18A 2988   1.288   6.205   7.343  4.8927 -2.3324 -0.1232
   41CHL1  H18B 2989   1.427   6.296   7.427 -0.1776 -1.4984  0.2186
   41CHL1  H18C 2990   1.310   6.196   7.510  2.8501 -0.0211 -0.7322
   41CHL1   C12 2991   1.084   6.390   7.409  0.3312 -0.6012 -0.5895
   41CHL1  H12A 2992   1.028   6.317   7.472 -1.3505  1.1413  0.0259
   41CHL1  H12B 2993   1.028   6.483   7.432 -1.0443 -1.8142  1.3070
   41CHL1   C11 2994   1.045   6.341   7.271 -0.4912  0.4103 -1.2867
   41CHL1  H11A 2995   1.092   6.240   7.270  1.8415  1.3729  0.7063
   41CHL1  H11B 2996   0.934   6.338   7.259 -0.4069 -2.9862 -2.1856
   41CHL1    C9 2997   1.109   6.425   7.153  0.1510 -0.4176  0.6108
   41CHL1    H9 2998   1.051   6.519   7.146  1.0229  0.1211  0.4991
   41CHL1   C10 2999   1.080   6.376   7.004  0.0013 -0.0359 -0.9642
   41CHL1   C19 3000   1.125   6.230   7.001  0.2309  0.1690  0.5971
   41CHL1  H19A 3001   1.132   6.197   6.895 -1.8028 -1.3745  0.8801
   41CHL1  H19B 3002   1.231   6.219   7.033  1.1397  0.6518 -1.9896
   41CHL1  H19C 3003   1.067   6.158   7.063  1.8660 -0.4027  1.5236
   41CHL1    C1 3004   0.930   6.390   6.970 -0.2694 -0.3003 -0.4481
   41CHL1   H1A 3005   0.867   6.326   7.035  0.7046 -0.9121 -0.0898
   41CHL1   H1B 3006   0.894   6.493   6.993  1.0035 -0.3079  1.7806
   41CHL1    C2 3007   0.905   6.356   6.827 -0.2417 -0.1078  0.3533
   41CHL1   H2A 3008   0.801   6.359   6.789 -0.1942  0.6030  0.2675
   41CHL1   H2B 3009   0.929   6.249   6.812 -1.7770 -0.4347  0.1194
   41CHL1   C20 3010   1.280   6.404   7.694 -0.4654 -0.5359  0.3018
   41CHL1   H20 3011   1.358   6.325   7.683 -0.2546 -0.2691 -0.1845
   41CHL1   C21 3012   1.146   6.322   7.725  0.3482 -0.0161  0.0552
   41CHL1  H21A 3013   1.118   6.248   7.647  1.2073 -0.2635 -0.0316
   41CHL1  H21B 3014   1.058   6.388   7.738  0.0825  0.0000 -1.5893
   41CHL1  H21C 3015   1.150   6.257   7.815  0.3780  0.1267  0.1579
   41CHL1   C22 3016   1.315   6.499   7.808  0.0159 -0.7151 -0.4260
   41CHL1  H22A 3017   1.397   6.571   7.786  1.3342 -1.4906  1.5955
   41CHL1  H22B 3018   1.228   6.563   7.833  1.2141 -0.0643  2.5837
   41CHL1   C23 3019   1.345   6.443   7.947  0.3866  0.2433  1.1221
   41CHL1  H23A 3020   1.370   6.528   8.014  1.3168  0.5954  0.3564
   41CHL1  H23B 3021   1.252   6.402   7.993  0.6446  0.1143  1.5368
   41CHL1   C24 3022   1.454   6.334   7.959  0.1214 -0.3498  0.4837
   41CHL1  H24A 3023   1.407   6.246   7.910  0.6981 -0.9003  0.9079
   41CHL1  H24B 3024   1.545   6.357   7.900 -0.2792 -2.4314 -1.0949
   41CHL1   C25 3025   1.478   6.277   8.103  0.7500 -0.0401 -1.3869
   41CHL1   H25 3026   1.502   6.169   8.101  3.4915  0.5106 -1.6296
   41CHL1   C26 3027   1.589   6.355   8.180  0.0053  0.2731  0.0801
   41CHL1  H26A 3028   1.600   6.320   8.285  1.2079 -3.9042 -1.2289
   41CHL1  H26B 3029   1.691   6.332   8.142  1.1249  2.1766  1.7425
   41CHL1  H26C 3030   1.588   6.466   8.173  2.3197  0.2587 -1.7265
   41CHL1   C27 3031   1.350   6.287   8.193  0.5544 -0.2611  0.2599
   41CHL1  H27A 3032   1.266   6.247   8.132 -1.8767  2.4921  1.6267
   41CHL1  H27B 3033   1.362   6.236   8.291 -1.8850  0.7993  1.1773
   41CHL1  H27C 3034   1.332   6.394   8.214 -1.5965 -0.5857  0.2381
   42CHL1    C3 3035   6.581   3.926   6.767 -0.6943 -0.0100  0.1905
   42CHL1    H3 3036   6.655   4.006   6.786  2.2180 -2.1379 -1.2725
   42CHL1    O3 3037   6.582   3.896   6.632 -0.0408  0.1678  0.6231
   42CHL1   H3' 3038   6.540   3.810   6.629  1.0685 -0.5126  2.4491
   42CHL1    C4 3039   6.616   3.799   6.842 -0.2511 -0.0773 -0.1644
   42CHL1   H4A 3040   6.538   3.720   6.834 -1.7532  1.5487 -2.8697
   42CHL1   H4B 3041   6.713   3.749   6.822 -0.4394  0.0018 -1.3023
   42CHL1    C5 3042   6.612   3.833   6.992 -0.0217  0.0130  0.7602
   42CHL1    C6 3043   6.723   3.813   7.070  0.4909 -0.4995  0.1028
   42CHL1    H6 3044   6.819   3.778   7.029  1.3085  0.5803  1.0385
   42CHL1    C7 3045   6.721   3.824   7.223 -0.2154 -0.5956  0.4068
   42CHL1   H7A 3046   6.754   3.732   7.275 -0.3570 -0.0429  1.5095
   42CHL1   H7B 3047   6.777   3.912   7.262 -2.0554 -0.3750  2.7140
   42CHL1    C8 3048   6.580   3.850   7.270 -0.2499  0.0691  0.0157
   42CHL1    H8 3049   6.527   3.753   7.262  0.6101 -0.3880 -0.2966
   42CHL1   C14 3050   6.576   3.902   7.413 -0.4242 -0.6087 -0.5691
   42CHL1   H14 3051   6.631   3.998   7.414 -0.0233 -0.8349 -0.2764
   42CHL1   C15 3052   6.665   3.826   7.522 -0.0055 -0.3859 -0.7043
   42CHL1  H15A 3053   6.671   3.715   7.514  2.3298 -0.3787  0.2831
   42CHL1  H15B 3054   6.769   3.863   7.507  0.2386 -0.3706  0.8834
   42CHL1   C16 3055   6.607   3.863   7.657  0.1555 -0.5482 -0.7221
   42CHL1  H16A 3056   6.577   3.765   7.700  3.3244 -1.6328 -0.7325
   42CHL1  H16B 3057   6.683   3.915   7.719  1.5786 -1.4624 -1.6202
   42CHL1   C17 3058   6.480   3.948   7.629 -0.4272 -0.2581 -0.6650
   42CHL1   H17 3059   6.521   4.051   7.620  0.9616 -0.5421  1.6102
   42CHL1   C13 3060   6.444   3.912   7.489  0.1769 -0.1143  0.1347
   42CHL1   C18 3061   6.378   3.771   7.495 -0.6409 -0.2521  0.2898
   42CHL1  H18A 3062   6.441   3.689   7.536 -1.6342 -2.0941 -1.6763
   42CHL1  H18B 3063   6.278   3.778   7.543 -1.2453 -2.4878 -0.5664
   42CHL1  H18C 3064   6.347   3.730   7.397 -0.2870  0.2423 -0.0327
   42CHL1   C12 3065   6.362   4.016   7.412 -0.0072 -0.1100  0.8755
   42CHL1  H12A 3066   6.252   4.013   7.428 -0.3605 -1.3788 -1.3244
   42CHL1  H12B 3067   6.407   4.117   7.422  0.9852 -0.4231 -0.1561
   42CHL1   C11 3068   6.360   3.990   7.252 -0.0967 -0.2067  0.1886
   42CHL1  H11A 3069   6.285   3.909   7.241  0.9915 -1.2190  0.0470
   42CHL1  H11B 3070   6.319   4.078   7.199 -2.4087 -1.7863 -0.8445
   42CHL1    C9 3071   6.492   3.936   7.182 -0.1553  0.0063 -0.8788
   42CHL1    H9 3072   6.558   4.023   7.165  0.5629 -0.4719 -0.6005
   42CHL1   C10 3073   6.474   3.882   7.039  0.3506 -0.0109 -0.4063
   42CHL1   C19 3074   6.383   3.760   7.038  0.3881 -0.1113 -0.4909
   42CHL1  H19A 3075   6.285   3.794   7.077  1.2198 -0.2820  1.9001
   42CHL1  H19B 3076   6.367   3.729   6.932  3.2776  0.0362 -1.0445
   42CHL1  H19C 3077   6.418   3.679   7.105  0.6714 -0.4047 -0.9859
   42CHL1    C1 3078   6.422   3.991   6.950  0.3359  0.2960 -0.3281
   42CHL1   H1A 3079   6.320   4.033   6.964 -0.2426 -1.2341  0.2506
   42CHL1   H1B 3080   6.489   4.077   6.971  1.0965 -0.3489 -0.0590
   42CHL1    C2 3081   6.441   3.970   6.799  0.2453 -0.2449 -0.1989
   42CHL1   H2A 3082   6.416   4.066   6.747  3.6722  0.1776 -1.3240
   42CHL1   H2B 3083   6.357   3.901   6.775  0.0856 -0.2550  0.3878
   42CHL1   C20 3084   6.370   3.948   7.742  0.4403  0.6770  0.1405
   42CHL1   H20 3085   6.322   3.848   7.752  0.3594  0.5511 -1.4016
   42CHL1   C21 3086   6.268   4.060   7.713  0.3910  0.1036  0.3841
   42CHL1  H21A 3087   6.216   4.084   7.808  0.5976  1.5428  0.1629
   42CHL1  H21B 3088   6.201   4.027   7.630  0.9238  1.5516 -0.6845
   42CHL1  H21C 3089   6.322   4.152   7.681  1.1924  0.1696  1.8756
   42CHL1   C22 3090   6.430   3.990   7.879  0.1915 -0.1357  0.7310
   42CHL1  H22A 3091   6.345   3.985   7.950  1.1861  0.9692  2.0572
   42CHL1  H22B 3092   6.500   3.910   7.909  1.4451  0.2574 -0.9662
   42CHL1   C23 3093   6.500   4.132   7.889 -0.0218 -0.2569 -0.0334
   42CHL1  H23A 3094   6.572   4.158   7.807  1.4640 -0.9229  1.0127
   42CHL1  H23B 3095   6.424   4.212   7.900  2.2402  1.9512  0.7444
   42CHL1   C24 3096   6.583   4.141   8.019  0.4913  0.5415 -0.2575
   42CHL1  H24A 3097   6.504   4.128   8.097  1.2733  0.5456  0.5574
   42CHL1  H24B 3098   6.668   4.070   8.010 -0.1340 -0.5755  1.8034
   42CHL1   C25 3099   6.643   4.283   8.040 -0.0684 -0.5751 -0.3922
   42CHL1   H25 3100   6.697   4.304   7.945  1.0116 -2.0441 -0.1344
   42CHL1   C26 3101   6.530   4.386   8.057 -0.0738  0.0828 -0.5473
   42CHL1  H26A 3102   6.457   4.367   8.139  0.8260  0.6221  0.4026
   42CHL1  H26B 3103   6.567   4.488   8.077 -2.5648  0.7927  0.8073
   42CHL1  H26C 3104   6.471   4.400   7.964  0.5097 -0.7610 -1.0624
   42CHL1   C27 3105   6.746   4.290   8.158  0.3894  0.1100  0.1468
   42CHL1  H27A 3106   6.810   4.200   8.144  1.5022  0.4794  2.4390
   42CHL1  H27B 3107   6.700   4.298   8.259 -1.0750  0.2268 -0.5008
   42CHL1  H27C 3108   6.798   4.388   8.155 -1.2506  1.0131 -1.0957
   43CHL1    C3 3109   2.707   1.067   6.844 -0.5026  0.1073  0.3854
   43CHL1    H3 3110   2.812   1.096   6.867 -0.6183  1.7769 -1.0082
   43CHL1    O3 3111   2.702   1.065   6.696  0.4096 -0.0229 -0.9236
   43CHL1   H3' 3112   2.610   1.043   6.677 -0.1111  1.6396 -0.4515
   43CHL1    C4 3113   2.675   0.932   6.905 -0.0177  0.6903  0.7380
   43CHL1   H4A 3114   2.567   0.913   6.886 -0.6417  4.0195  0.2544
   43CHL1   H4B 3115   2.726   0.855   6.844  1.2001  2.2195 -0.2711
   43CHL1    C5 3116   2.704   0.933   7.051 -0.0397  0.7617  0.4902
   43CHL1    C6 3117   2.793   0.843   7.100 -0.3714  0.8074 -0.5234
   43CHL1    H6 3118   2.828   0.759   7.038  0.4914  2.1022 -1.8541
   43CHL1    C7 3119   2.835   0.826   7.245 -0.2577 -0.0031 -0.5501
   43CHL1   H7A 3120   2.827   0.719   7.272  0.4087  0.2024  0.5175
   43CHL1   H7B 3121   2.939   0.863   7.260  0.3047 -2.4250  2.4894
   43CHL1    C8 3122   2.740   0.912   7.339 -0.1200  0.1071 -0.2470
   43CHL1    H8 3123   2.646   0.853   7.343  0.3836 -0.6124  2.1897
   43CHL1   C14 3124   2.798   0.927   7.476  0.3235 -0.1365 -0.1311
   43CHL1   H14 3125   2.904   0.958   7.465  0.6536 -1.8529 -2.5817
   43CHL1   C15 3126   2.823   0.791   7.548 -0.2830  0.1497  0.5350
   43CHL1  H15A 3127   2.726   0.745   7.522  0.1986 -0.5333 -0.0838
   43CHL1  H15B 3128   2.910   0.742   7.499 -0.2973  2.2151 -1.7387
   43CHL1   C16 3129   2.846   0.844   7.694  0.3180  0.5395  0.1112
   43CHL1  H16A 3130   2.780   0.774   7.748  0.0357  1.5258  1.0700
   43CHL1  H16B 3131   2.947   0.817   7.734 -0.9134 -1.0918  2.3289
   43CHL1   C17 3132   2.808   0.990   7.701  0.4806  0.4497  0.7437
   43CHL1   H17 3133   2.898   1.056   7.693  0.6919 -0.0901 -4.0995
   43CHL1   C13 3134   2.724   1.018   7.572  0.4327 -1.3683 -0.5145
   43CHL1   C18 3135   2.578   0.966   7.598 -0.0929 -0.2579 -0.0528
   43CHL1  H18A 3136   2.533   1.037   7.670  0.8885  0.8131 -0.4751
   43CHL1  H18B 3137   2.516   0.960   7.506 -1.8403 -0.8726  1.0984
   43CHL1  H18C 3138   2.585   0.869   7.653 -0.1869 -0.4889 -0.4446
   43CHL1   C12 3139   2.720   1.165   7.507  0.1495 -0.4612  0.2192
   43CHL1  H12A 3140   2.690   1.247   7.576 -1.0367 -0.7630  0.0924
   43CHL1  H12B 3141   2.825   1.190   7.482 -0.1246  1.4483  0.8360
   43CHL1   C11 3142   2.653   1.165   7.365 -0.0175  0.3908 -0.5509
   43CHL1  H11A 3143   2.551   1.123   7.375  0.1898 -0.8604 -2.9303
   43CHL1  H11B 3144   2.660   1.263   7.313  0.4516  0.0305 -1.1863
   43CHL1    C9 3145   2.716   1.055   7.270  0.3432 -0.3366 -0.2366
   43CHL1    H9 3146   2.818   1.092   7.249  1.8699 -2.9511  1.9040
   43CHL1   C10 3147   2.643   1.046   7.131  0.2086 -0.1231  0.6483
   43CHL1   C19 3148   2.486   1.033   7.138  0.5385  0.0614  0.8886
   43CHL1  H19A 3149   2.446   1.134   7.162  0.0531  0.6214 -1.9438
   43CHL1  H19B 3150   2.456   0.994   7.039  0.5529 -1.8572  1.5934
   43CHL1  H19C 3151   2.449   0.966   7.219  1.0459  0.6482  1.6265
   43CHL1    C1 3152   2.661   1.180   7.053  0.2965 -0.0596 -0.0977
   43CHL1   H1A 3153   2.609   1.266   7.101  0.3939  0.4637 -0.9068
   43CHL1   H1B 3154   2.770   1.206   7.050  0.4353 -0.6663 -0.5492
   43CHL1    C2 3155   2.627   1.181   6.905 -0.1480  0.3323  0.3380
   43CHL1   H2A 3156   2.654   1.282   6.868  0.7173  1.1835  3.0410
   43CHL1   H2B 3157   2.523   1.167   6.871 -0.5529  0.5382  1.4520
   43CHL1   C20 3158   2.758   1.029   7.839 -0.1776 -0.6438 -0.1460
   43CHL1   H20 3159   2.660   0.978   7.850 -0.4261 -0.2936 -0.7239
   43CHL1   C21 3160   2.752   1.177   7.840 -0.5270  0.4645  0.4014
   43CHL1  H21A 3161   2.757   1.205   7.947  1.2791 -2.8662  1.3341
   43CHL1  H21B 3162   2.659   1.214   7.792 -0.3042  1.8622  1.0131
   43CHL1  H21C 3163   2.842   1.223   7.795 -2.1832  3.3581 -0.1983
   43CHL1   C22 3164   2.853   0.978   7.949  0.0073 -0.0448 -0.4114
   43CHL1  H22A 3165   2.895   0.880   7.917 -0.4437  0.8475 -4.2783
   43CHL1  H22B 3166   2.930   1.057   7.959 -0.2393  0.2801 -1.0498
   43CHL1   C23 3167   2.794   0.972   8.094  0.3132 -0.6574 -0.7662
   43CHL1  H23A 3168   2.772   1.076   8.125  1.6263  0.4537 -3.2701
   43CHL1  H23B 3169   2.698   0.919   8.110 -1.1341  2.4711  2.1134
   43CHL1   C24 3170   2.907   0.939   8.200  0.1338 -0.2544 -0.5835
   43CHL1  H24A 3171   2.976   0.864   8.157  0.4474 -0.2672 -0.0616
   43CHL1  H24B 3172   2.962   1.035   8.210 -2.5327  1.1856  1.7202
   43CHL1   C25 3173   2.863   0.902   8.339 -0.5224  0.2285 -0.4343
   43CHL1   H25 3174   2.949   0.870   8.401  1.6494  2.5235 -2.0310
   43CHL1   C26 3175   2.794   1.020   8.401  0.5755 -0.6255 -0.3248
   43CHL1  H26A 3176   2.764   1.001   8.506 -2.8698  1.6343 -0.7352
   43CHL1  H26B 3177   2.875   1.096   8.408  0.6101 -0.6196 -0.7228
   43CHL1  H26C 3178   2.704   1.052   8.343  0.3675 -1.1312 -0.2821
   43CHL1   C27 3179   2.772   0.783   8.341  0.3037 -0.1569  0.9480
   43CHL1  H27A 3180   2.743   0.765   8.447  2.1105 -0.3606  1.4423
   43CHL1  H27B 3181   2.693   0.788   8.263  0.3511 -1.6684  0.7760
   43CHL1  H27C 3182   2.825   0.692   8.307  1.5924  1.0705 -0.4773
   44CHL1    C3 3183   0.848   4.467   6.777 -0.1293 -0.5933  0.7339
   44CHL1    H3 3184   0.770   4.398   6.737 -1.9527  1.7782 -0.0650
   44CHL1    O3 3185   0.920   4.519   6.666 -0.3714 -0.1916 -0.3579
   44CHL1   H3' 3186   0.990   4.453   6.657 -1.6791 -1.5007 -1.4358
   44CHL1    C4 3187   0.785   4.585   6.851 -0.6042  0.1391 -0.7073
   44CHL1   H4A 3188   0.849   4.674   6.862  1.1667 -1.1469 -0.1283
   44CHL1   H4B 3189   0.695   4.626   6.800  0.3348  1.9233 -0.9913
   44CHL1    C5 3190   0.738   4.552   6.992 -0.1886  0.4934 -0.4383
   44CHL1    C6 3191   0.615   4.582   7.027 -0.3633 -0.0150 -0.0138
   44CHL1    H6 3192   0.551   4.637   6.956 -1.0455 -0.4107  0.2913
   44CHL1    C7 3193   0.550   4.550   7.158 -0.0982 -0.5500  0.4273
   44CHL1   H7A 3194   0.485   4.636   7.184  0.0353  0.1275 -1.3183
   44CHL1   H7B 3195   0.496   4.453   7.153  1.2941 -1.3004 -1.8917
   44CHL1    C8 3196   0.658   4.520   7.269  0.7067  0.5391  0.2523
   44CHL1    H8 3197   0.699   4.619   7.297 -1.7543  1.2867  1.4569
   44CHL1   C14 3198   0.592   4.451   7.387  0.0441 -0.2591  0.4325
   44CHL1   H14 3199   0.547   4.356   7.353 -0.1944  0.6485 -2.0023
   44CHL1   C15 3200   0.478   4.530   7.450 -0.0411 -0.3967 -0.3353
   44CHL1  H15A 3201   0.514   4.633   7.473  0.0220 -0.8452  1.7421
   44CHL1  H15B 3202   0.390   4.545   7.383 -0.3896 -0.2711  0.1437
   44CHL1   C16 3203   0.456   4.461   7.588 -0.2960 -0.5133  0.8091
   44CHL1  H16A 3204   0.436   4.538   7.666 -3.1552 -0.0050 -0.3304
   44CHL1  H16B 3205   0.370   4.392   7.580 -0.7604 -0.1354  2.2427
   44CHL1   C17 3206   0.589   4.378   7.610  0.4506  0.5955 -0.2368
   44CHL1   H17 3207   0.564   4.272   7.588 -0.3608  0.3581  1.6320
   44CHL1   C13 3208   0.690   4.424   7.505 -0.0504 -0.0501 -0.1070
   44CHL1   C18 3209   0.760   4.553   7.550  0.2016  0.6731  0.2101
   44CHL1  H18A 3210   0.683   4.624   7.586 -0.8047  0.1363 -0.8320
   44CHL1  H18B 3211   0.831   4.540   7.636  0.9125  1.4238 -0.2436
   44CHL1  H18C 3212   0.808   4.603   7.464  1.5958 -1.4775 -0.3385
   44CHL1   C12 3213   0.784   4.318   7.451 -0.1449 -0.5340 -0.1603
   44CHL1  H12A 3214   0.859   4.270   7.518 -0.6398 -1.1602 -0.0401
   44CHL1  H12B 3215   0.714   4.242   7.410 -0.4635 -0.5954  0.4832
   44CHL1   C11 3216   0.861   4.370   7.331  0.7541 -0.1997  1.0628
   44CHL1  H11A 3217   0.917   4.460   7.366  1.1079  0.2477 -0.5490
   44CHL1  H11B 3218   0.917   4.294   7.272 -0.1120  0.3565 -0.5494
   44CHL1    C9 3219   0.765   4.429   7.221 -0.2485 -0.0111 -0.3156
   44CHL1    H9 3220   0.708   4.340   7.187 -2.4914  1.1169  0.2619
   44CHL1   C10 3221   0.831   4.472   7.081 -0.0273 -0.1483  0.5729
   44CHL1   C19 3222   0.935   4.575   7.122  0.0846 -0.3667 -0.3943
   44CHL1  H19A 3223   0.991   4.616   7.034  1.5208 -2.5090 -0.5498
   44CHL1  H19B 3224   0.890   4.661   7.175  2.1280  0.5115  0.0170
   44CHL1  H19C 3225   1.001   4.524   7.195 -0.9507  0.9208  1.5222
   44CHL1    C1 3226   0.898   4.360   7.002  0.2724  0.2143  0.3211
   44CHL1   H1A 3227   0.991   4.342   7.060  0.6833 -0.0522 -0.4022
   44CHL1   H1B 3228   0.836   4.269   6.989  0.2224  0.3081 -0.1230
   44CHL1    C2 3229   0.953   4.399   6.860  0.3948 -0.4672 -0.8220
   44CHL1   H2A 3230   0.984   4.308   6.804 -0.5807 -0.8298 -0.8028
   44CHL1   H2B 3231   1.036   4.472   6.872 -0.2798  0.1454  0.3159
   44CHL1   C20 3232   0.641   4.385   7.758 -0.0419  0.1497  0.2278
   44CHL1   H20 3233   0.674   4.490   7.777 -1.5003  1.0065 -1.6092
   44CHL1   C21 3234   0.761   4.290   7.785  0.3938 -0.1732  1.0827
   44CHL1  H21A 3235   0.845   4.299   7.713  0.7735 -0.3760  1.4961
   44CHL1  H21B 3236   0.727   4.185   7.789  2.0483 -0.7162  1.4340
   44CHL1  H21C 3237   0.811   4.304   7.883  0.1151  0.4215  1.1490
   44CHL1   C22 3238   0.524   4.360   7.857  0.1164 -0.4466 -0.1422
   44CHL1  H22A 3239   0.432   4.413   7.828  0.8147  1.0514  0.2733
   44CHL1  H22B 3240   0.519   4.249   7.858  0.2845 -0.4697 -0.8900
   44CHL1   C23 3241   0.556   4.399   8.001 -0.0743 -0.2875  0.1183
   44CHL1  H23A 3242   0.654   4.350   8.020  1.7852  3.1234  0.0556
   44CHL1  H23B 3243   0.566   4.508   8.020  1.5130 -0.9003  3.4389
   44CHL1   C24 3244   0.459   4.338   8.107  0.4352 -0.1951  0.0014
   44CHL1  H24A 3245   0.355   4.355   8.072  1.1431  0.8315 -1.7250
   44CHL1  H24B 3246   0.479   4.230   8.126  1.9716 -0.3094 -1.9061
   44CHL1   C25 3247   0.474   4.398   8.248 -0.1783  0.4558 -0.0021
   44CHL1   H25 3248   0.485   4.509   8.242  0.0328  0.5569  1.7116
   44CHL1   C26 3249   0.349   4.359   8.326  0.0598  0.3852  0.0494
   44CHL1  H26A 3250   0.336   4.425   8.415  3.3960  1.0925  0.1330
   44CHL1  H26B 3251   0.253   4.358   8.271 -0.8146  1.0044  1.4802
   44CHL1  H26C 3252   0.361   4.258   8.370 -2.6289  0.2461  0.6234
   44CHL1   C27 3253   0.603   4.338   8.317 -0.2465  0.0555 -0.2292
   44CHL1  H27A 3254   0.596   4.230   8.345 -0.0692  0.6744  2.5334
   44CHL1  H27B 3255   0.683   4.350   8.241 -0.2022  0.0803 -0.1789
   44CHL1  H27C 3256   0.625   4.392   8.412 -3.6349  2.8496 -0.8457
   45CHL1    C3 3257   0.409   5.418   6.853  0.7660  0.9333  0.2942
   45CHL1    H3 3258   0.317   5.363   6.882  0.6363 -0.5476 -2.5885
   45CHL1    O3 3259   0.403   5.441   6.716 -0.4153  0.5466 -0.5782
   45CHL1   H3' 3260   0.481   5.497   6.704 -1.1969  1.5839 -0.9519
   45CHL1    C4 3261   0.422   5.561   6.911  0.3413  0.7633 -0.3174
   45CHL1   H4A 3262   0.512   5.614   6.872  0.9928 -0.9135 -1.2058
   45CHL1   H4B 3263   0.328   5.609   6.875  0.4683  0.5094 -1.0004
   45CHL1    C5 3264   0.434   5.548   7.059 -0.1533  0.1886 -0.2598
   45CHL1    C6 3265   0.343   5.602   7.143 -0.4736 -0.6336  0.4492
   45CHL1    H6 3266   0.267   5.670   7.101  1.2609 -0.5978 -2.9996
   45CHL1    C7 3267   0.357   5.605   7.290 -0.7268  0.3341  0.2625
   45CHL1   H7A 3268   0.361   5.712   7.320 -1.1634 -0.4579  3.5347
   45CHL1   H7B 3269   0.270   5.555   7.337 -1.1715  0.6891 -0.1839
   45CHL1    C8 3270   0.496   5.548   7.342  0.4368  0.1716 -0.4896
   45CHL1    H8 3271   0.579   5.621   7.334  0.6365 -0.0175 -0.1482
   45CHL1   C14 3272   0.471   5.505   7.485  0.8362 -1.0376 -0.5876
   45CHL1   H14 3273   0.400   5.420   7.488 -0.3985 -0.1610 -2.6619
   45CHL1   C15 3274   0.418   5.617   7.579  0.4314 -0.2247  0.0971
   45CHL1  H15A 3275   0.478   5.708   7.556  0.6389  0.0978  1.7984
   45CHL1  H15B 3276   0.311   5.643   7.567  0.5940  0.1962 -0.4689
   45CHL1   C16 3277   0.433   5.559   7.721  0.5039 -0.1606  0.3805
   45CHL1  H16A 3278   0.479   5.639   7.783  2.3987  0.1143 -1.2871
   45CHL1  H16B 3279   0.337   5.521   7.761  0.8076 -0.2724  1.0186
   45CHL1   C17 3280   0.530   5.436   7.709 -0.0530  0.0632  0.6090
   45CHL1   H17 3281   0.471   5.342   7.703 -0.3099  0.1929  1.0624
   45CHL1   C13 3282   0.590   5.453   7.562  0.3730 -0.0891  0.5170
   45CHL1   C18 3283   0.697   5.556   7.575  0.2660  0.1212  0.6811
   45CHL1  H18A 3284   0.741   5.586   7.478  3.1013 -2.2212  1.0894
   45CHL1  H18B 3285   0.670   5.644   7.638 -0.0045  0.2125  0.4362
   45CHL1  H18C 3286   0.785   5.517   7.631  0.5144 -0.8016 -0.3191
   45CHL1   C12 3287   0.637   5.325   7.488  0.1023 -0.2132 -0.3334
   45CHL1  H12A 3288   0.734   5.279   7.519  0.9736  2.5757  1.4874
   45CHL1  H12B 3289   0.551   5.257   7.504 -2.0001  2.3588 -0.0767
   45CHL1   C11 3290   0.654   5.346   7.332  0.2857  0.3006  0.0181
   45CHL1  H11A 3291   0.753   5.393   7.315  0.1189  0.2922 -1.0556
   45CHL1  H11B 3292   0.652   5.247   7.282 -1.6840  1.4339 -2.3815
   45CHL1    C9 3293   0.537   5.423   7.269  0.1452  0.3948 -0.8402
   45CHL1    H9 3294   0.459   5.346   7.284  2.3318 -2.4467 -2.8367
   45CHL1   C10 3295   0.547   5.449   7.116  0.3836  0.6022 -0.1305
   45CHL1   C19 3296   0.685   5.522   7.089 -0.6545 -0.6602  0.5860
   45CHL1  H19A 3297   0.765   5.474   7.149 -2.9739 -4.0887  1.2472
   45CHL1  H19B 3298   0.700   5.529   6.979 -2.4973 -0.1245  0.3335
   45CHL1  H19C 3299   0.680   5.629   7.118 -1.3001  0.1632 -2.2520
   45CHL1    C1 3300   0.549   5.312   7.044 -0.1225  0.1566 -1.0928
   45CHL1   H1A 3301   0.632   5.248   7.080 -1.7461 -1.2436  0.3914
   45CHL1   H1B 3302   0.462   5.258   7.088 -0.7804  0.1997 -2.2993
   45CHL1    C2 3303   0.525   5.322   6.894 -0.3026 -0.0749  0.2512
   45CHL1   H2A 3304   0.500   5.222   6.852 -0.8684 -0.8984  2.4157
   45CHL1   H2B 3305   0.620   5.358   6.851 -1.0801  1.2182 -0.4516
   45CHL1   C20 3306   0.625   5.406   7.831 -0.2538 -0.2034  1.1686
   45CHL1   H20 3307   0.681   5.502   7.837 -3.4473  2.0239 -1.3516
   45CHL1   C21 3308   0.720   5.286   7.798  0.1294 -0.0029  0.3305
   45CHL1  H21A 3309   0.795   5.318   7.722 -0.3583  3.2747  1.0749
   45CHL1  H21B 3310   0.669   5.195   7.759  0.0034 -0.5409  1.7035
   45CHL1  H21C 3311   0.773   5.251   7.890  0.3965 -1.4336 -0.3384
   45CHL1   C22 3312   0.548   5.386   7.964  0.3862  0.1879  0.6743
   45CHL1  H22A 3313   0.467   5.461   7.954  0.6826  0.7059  1.9932
   45CHL1  H22B 3314   0.506   5.283   7.958  0.0487  0.2820  1.3699
   45CHL1   C23 3315   0.635   5.413   8.080  0.6229 -1.6051  0.0181
   45CHL1  H23A 3316   0.722   5.344   8.072  1.6624 -0.1546 -2.0784
   45CHL1  H23B 3317   0.669   5.518   8.066 -1.0285 -1.0958 -0.3930
   45CHL1   C24 3318   0.560   5.402   8.213  0.4209  0.3789 -0.4884
   45CHL1  H24A 3319   0.635   5.425   8.293  1.7027 -0.1616 -1.5018
   45CHL1  H24B 3320   0.493   5.489   8.233  1.9659  1.9808 -1.9394
   45CHL1   C25 3321   0.482   5.272   8.237 -0.0104  1.1681 -0.0758
   45CHL1   H25 3322   0.411   5.262   8.152  0.0868 -0.7291  0.0227
   45CHL1   C26 3323   0.589   5.160   8.240 -0.0390 -0.1819 -0.1505
   45CHL1  H26A 3324   0.651   5.163   8.148  0.7298  0.5751  0.3789
   45CHL1  H26B 3325   0.646   5.186   8.332 -2.2017  0.9636  0.9301
   45CHL1  H26C 3326   0.530   5.067   8.257 -2.9156  1.8723  2.0078
   45CHL1   C27 3327   0.405   5.281   8.365 -0.4289 -0.6869 -0.5324
   45CHL1  H27A 3328   0.336   5.194   8.358 -1.2537 -0.1097  0.1960
   45CHL1  H27B 3329   0.461   5.261   8.459  1.0151 -0.7103 -1.3832
   45CHL1  H27C 3330   0.345   5.374   8.362 -2.1491 -1.4785  3.0256
   46CHL1    C3 3331   2.326   4.999   6.967  0.1560 -0.7085 -0.1596
   46CHL1    H3 3332   2.310   5.102   7.007  0.8899 -0.7303  0.2061
   46CHL1    O3 3333   2.313   5.002   6.824  0.1339 -0.2379  0.3387
   46CHL1   H3' 3334   2.273   4.919   6.797 -0.1473 -0.8558  2.4183
   46CHL1    C4 3335   2.457   4.934   7.009  0.1533  0.0944 -0.3027
   46CHL1   H4A 3336   2.486   4.840   6.958 -1.6935 -1.7649  1.8854
   46CHL1   H4B 3337   2.533   5.009   6.979 -1.0489  2.4727  2.1883
   46CHL1    C5 3338   2.466   4.900   7.158 -0.0408  0.6852  0.0618
   46CHL1    C6 3339   2.563   4.949   7.234 -0.0726 -0.0844 -0.1726
   46CHL1    H6 3340   2.642   5.003   7.180  0.0348 -0.7427 -0.6867
   46CHL1    C7 3341   2.582   4.903   7.373 -0.2982  0.0212 -0.7937
   46CHL1   H7A 3342   2.686   4.875   7.398 -1.2479 -2.0314  1.2279
   46CHL1   H7B 3343   2.537   4.980   7.440 -1.8069 -0.3056 -1.3966
   46CHL1    C8 3344   2.494   4.778   7.400 -0.2987 -0.6530 -0.3175
   46CHL1    H8 3345   2.535   4.689   7.348 -0.9378 -1.3987  0.4319
   46CHL1   C14 3346   2.500   4.755   7.553 -0.5779 -0.0430  1.2419
   46CHL1   H14 3347   2.457   4.849   7.595  0.8960  1.1590  0.1759
   46CHL1   C15 3348   2.632   4.748   7.624  0.7585 -0.4821 -0.1401
   46CHL1  H15A 3349   2.706   4.685   7.570  1.9277 -0.1739  1.0508
   46CHL1  H15B 3350   2.678   4.849   7.631  0.9527 -0.3590 -2.4122
   46CHL1   C16 3351   2.605   4.681   7.759  0.4110 -0.6651  0.4392
   46CHL1  H16A 3352   2.658   4.586   7.784 -2.9440 -3.0139 -0.6648
   46CHL1  H16B 3353   2.627   4.744   7.847  2.6419  0.3626 -0.7814
   46CHL1   C17 3354   2.458   4.650   7.752 -0.0594  0.0576 -0.6570
   46CHL1   H17 3355   2.408   4.742   7.788 -0.9500  0.0497 -1.8371
   46CHL1   C13 3356   2.425   4.642   7.609 -0.1027  0.8566 -0.2750
   46CHL1   C18 3357   2.490   4.509   7.555  0.5089 -0.1030 -0.6083
   46CHL1  H18A 3358   2.502   4.522   7.446  0.0483 -2.5747 -1.0045
   46CHL1  H18B 3359   2.587   4.487   7.605  0.0880  0.1361  0.3457
   46CHL1  H18C 3360   2.426   4.420   7.578  1.1010  0.2956  3.2936
   46CHL1   C12 3361   2.270   4.661   7.566  0.1611  0.2470 -0.4362
   46CHL1  H12A 3362   2.211   4.571   7.593  0.2168  0.3368 -0.0059
   46CHL1  H12B 3363   2.240   4.749   7.626  3.1245  0.7721  0.4246
   46CHL1   C11 3364   2.256   4.694   7.411 -0.3337  0.3775 -0.3052
   46CHL1  H11A 3365   2.267   4.597   7.358  0.1569  0.9203 -1.2320
   46CHL1  H11B 3366   2.152   4.732   7.403 -0.0607  1.6331  1.5483
   46CHL1    C9 3367   2.357   4.797   7.356 -0.0445 -0.2830  0.3159
   46CHL1    H9 3368   2.325   4.892   7.404  1.2478  1.4949 -2.1442
   46CHL1   C10 3369   2.347   4.815   7.202  0.3913 -0.0477  0.1592
   46CHL1   C19 3370   2.355   4.679   7.140  0.6720  0.5273 -0.2412
   46CHL1  H19A 3371   2.436   4.608   7.169 -1.7132 -1.2450  2.7184
   46CHL1  H19B 3372   2.261   4.622   7.158 -0.4881  2.4391  0.0137
   46CHL1  H19C 3373   2.372   4.678   7.030  1.5086 -3.0602 -0.2057
   46CHL1    C1 3374   2.216   4.896   7.164  0.5085  0.5163 -0.8876
   46CHL1   H1A 3375   2.127   4.837   7.195  2.2670 -0.9015  1.8862
   46CHL1   H1B 3376   2.205   4.996   7.211 -1.0183 -0.7347  1.6728
   46CHL1    C2 3377   2.208   4.922   7.014 -0.4834  0.0685 -0.0233
   46CHL1   H2A 3378   2.118   4.980   6.982 -0.2650 -0.6445 -2.0595
   46CHL1   H2B 3379   2.218   4.822   6.967  2.1014  0.4724 -0.4785
   46CHL1   C20 3380   2.427   4.528   7.842  0.8720  0.0257 -0.5262
   46CHL1   H20 3381   2.479   4.440   7.799 -1.5467 -0.6831 -2.2195
   46CHL1   C21 3382   2.267   4.504   7.843  0.6049 -0.4350  0.8982
   46CHL1  H21A 3383   2.238   4.463   7.744 -0.7164 -0.8403  1.4269
   46CHL1  H21B 3384   2.209   4.596   7.862 -0.6598 -1.3233  1.5360
   46CHL1  H21C 3385   2.235   4.426   7.916  0.1129 -0.0915  1.0544
   46CHL1   C22 3386   2.473   4.540   7.987 -1.1091 -0.3802  0.3497
   46CHL1  H22A 3387   2.446   4.444   8.037  0.0796 -0.9821 -0.1198
   46CHL1  H22B 3388   2.582   4.562   7.992 -1.2484  0.7051 -1.0741
   46CHL1   C23 3389   2.412   4.653   8.069 -1.2849  0.5253 -0.2052
   46CHL1  H23A 3390   2.444   4.755   8.037 -2.9616  1.3164  0.4801
   46CHL1  H23B 3391   2.303   4.641   8.053 -1.6877  0.8681  2.0285
   46CHL1   C24 3392   2.457   4.650   8.216  0.5626 -0.3715 -0.5192
   46CHL1  H24A 3393   2.414   4.557   8.258 -1.8121  1.0088  0.3252
   46CHL1  H24B 3394   2.567   4.649   8.237  0.3325 -3.1336  1.0391
   46CHL1   C25 3395   2.400   4.776   8.295 -0.4559 -0.2568 -0.4068
   46CHL1   H25 3396   2.383   4.864   8.230 -2.3824  0.3399  0.8263
   46CHL1   C26 3397   2.255   4.742   8.337 -0.1525 -0.2124 -0.1616
   46CHL1  H26A 3398   2.188   4.779   8.257  0.8293  1.1088 -0.4075
   46CHL1  H26B 3399   2.237   4.632   8.341 -1.4932 -0.1578 -2.5304
   46CHL1  H26C 3400   2.222   4.789   8.432  0.4689  0.4959 -0.2864
   46CHL1   C27 3401   2.494   4.818   8.410  0.1313 -0.7266  0.5708
   46CHL1  H27A 3402   2.446   4.898   8.470  0.0286 -0.0396 -0.4081
   46CHL1  H27B 3403   2.520   4.737   8.483 -0.8899 -0.3682  1.3513
   46CHL1  H27C 3404   2.586   4.856   8.360  0.3699  0.2635  1.7168
   47CHL1    C3 3405   2.800   6.682   6.763 -0.9020  0.1322 -0.4764
   47CHL1    H3 3406   2.828   6.581   6.800  3.3523  0.9354 -1.0224
   47CHL1    O3 3407   2.826   6.681   6.624  0.0030 -0.2075  0.6091
   47CHL1   H3' 3408   2.788   6.764   6.594  1.3035  0.7944  1.6203
   47CHL1    C4 3409   2.649   6.704   6.790 -0.2317 -0.1584  0.7452
   47CHL1   H4A 3410   2.606   6.800   6.756 -1.0768 -1.3634 -1.7896
   47CHL1   H4B 3411   2.587   6.630   6.736 -0.7258  1.8707 -1.6018
   47CHL1    C5 3412   2.615   6.697   6.938  0.0508 -0.8506 -0.0280
   47CHL1    C6 3413   2.525   6.609   6.982  0.0915  0.1564 -0.3294
   47CHL1    H6 3414   2.477   6.543   6.908 -0.1913 -0.8985  0.7619
   47CHL1    C7 3415   2.478   6.586   7.121 -0.2977 -0.1142 -0.2187
   47CHL1   H7A 3416   2.367   6.584   7.119 -0.2939 -1.5121  0.0166
   47CHL1   H7B 3417   2.514   6.488   7.160  0.0179  0.1523  0.1685
   47CHL1    C8 3418   2.533   6.700   7.215 -0.1086 -0.3364 -0.2518
   47CHL1    H8 3419   2.470   6.788   7.191 -1.2777 -1.0701 -0.0066
   47CHL1   C14 3420   2.517   6.660   7.362  0.9682 -0.7296  0.4279
   47CHL1   H14 3421   2.587   6.575   7.374  0.1882 -1.1360  2.5285
   47CHL1   C15 3422   2.385   6.598   7.406 -0.8147 -0.6693 -1.3407
   47CHL1  H15A 3423   2.299   6.652   7.361 -2.0468 -0.7921  0.7300
   47CHL1  H15B 3424   2.381   6.488   7.394 -3.6733 -1.2782  2.9621
   47CHL1   C16 3425   2.385   6.625   7.561 -0.4385 -0.2824 -1.2060
   47CHL1  H16A 3426   2.297   6.691   7.577 -0.0897 -0.2248  0.6543
   47CHL1  H16B 3427   2.365   6.533   7.620 -0.4441  0.0095 -0.7511
   47CHL1   C17 3428   2.519   6.694   7.597  0.1042  0.2854  0.1886
   47CHL1   H17 3429   2.595   6.614   7.610  0.1317 -0.1497 -2.1762
   47CHL1   C13 3430   2.562   6.767   7.466  0.2682 -0.6519  0.0635
   47CHL1   C18 3431   2.478   6.896   7.443 -0.4729 -0.3335  0.2272
   47CHL1  H18A 3432   2.368   6.886   7.450 -0.6196  1.3270  0.6864
   47CHL1  H18B 3433   2.503   6.975   7.516 -1.4165  1.1392 -0.9963
   47CHL1  H18C 3434   2.510   6.940   7.346  1.1139  0.0973  0.9201
   47CHL1   C12 3435   2.715   6.787   7.438  0.2212 -0.8208 -0.8545
   47CHL1  H12A 3436   2.766   6.865   7.499 -1.2324 -0.2125 -0.3683
   47CHL1  H12B 3437   2.754   6.689   7.472 -0.6339 -0.3890  1.5562
   47CHL1   C11 3438   2.741   6.828   7.295 -0.3559 -0.4745  0.2621
   47CHL1  H11A 3439   2.697   6.929   7.281  2.5841  0.8894  0.2866
   47CHL1  H11B 3440   2.843   6.865   7.272 -1.8575  2.8741 -1.8014
   47CHL1    C9 3441   2.685   6.729   7.184  0.2963  0.4095 -0.5023
   47CHL1    H9 3442   2.736   6.632   7.201 -1.4211 -0.4928 -0.3073
   47CHL1   C10 3443   2.705   6.772   7.034 -0.1805  0.0958  0.0611
   47CHL1   C19 3444   2.661   6.925   7.015  0.3481  1.0508  1.1327
   47CHL1  H19A 3445   2.551   6.940   7.024  0.1620  0.0922  0.5422
   47CHL1  H19B 3446   2.715   6.989   7.088  1.3859  1.3250  0.1569
   47CHL1  H19C 3447   2.682   6.966   6.914  1.3676 -0.7378  0.5724
   47CHL1    C1 3448   2.852   6.762   6.991 -0.2907 -0.2970  0.2719
   47CHL1   H1A 3449   2.920   6.821   7.057  2.8275  1.3143 -3.9191
   47CHL1   H1B 3450   2.868   6.653   7.000  0.6662 -0.2298 -0.4760
   47CHL1    C2 3451   2.882   6.785   6.844 -0.4455 -0.7836 -0.6042
   47CHL1   H2A 3452   2.990   6.796   6.823  0.0874  1.2593  2.5395
   47CHL1   H2B 3453   2.841   6.885   6.820 -0.9536 -0.9572 -0.4830
   47CHL1   C20 3454   2.519   6.778   7.727 -0.4653  0.1947  0.1070
   47CHL1   H20 3455   2.502   6.886   7.707 -2.4664  0.1703  1.3835
   47CHL1   C21 3456   2.656   6.771   7.793 -0.5453  0.3641 -0.2208
   47CHL1  H21A 3457   2.731   6.817   7.725  1.8862  2.1516  3.3666
   47CHL1  H21B 3458   2.682   6.664   7.808 -0.4688  0.4216  0.0622
   47CHL1  H21C 3459   2.667   6.827   7.888  2.5709 -0.1224 -0.1800
   47CHL1   C22 3460   2.404   6.744   7.820 -0.1074  0.1573  0.4967
   47CHL1  H22A 3461   2.319   6.805   7.784 -1.0161 -0.3852  1.6220
   47CHL1  H22B 3462   2.381   6.635   7.815 -0.9575  0.2965  1.2024
   47CHL1   C23 3463   2.427   6.775   7.968 -0.5381 -0.1167 -0.2277
   47CHL1  H23A 3464   2.492   6.693   8.005  1.3055 -0.3831 -3.6497
   47CHL1  H23B 3465   2.478   6.873   7.968 -0.7630  0.0091  0.3164
   47CHL1   C24 3466   2.309   6.785   8.058  0.8118  0.0994  0.1414
   47CHL1  H24A 3467   2.224   6.844   8.017 -0.7113 -1.5586  0.7410
   47CHL1  H24B 3468   2.263   6.685   8.074  0.5531  0.2962  0.6747
   47CHL1   C25 3469   2.315   6.820   8.211  0.7518  0.0793 -0.1109
   47CHL1   H25 3470   2.215   6.817   8.260  1.1997  2.0133  1.0669
   47CHL1   C26 3471   2.397   6.706   8.273 -0.0843 -0.2824 -0.2803
   47CHL1  H26A 3472   2.384   6.709   8.383 -1.5449  1.5795 -0.4475
   47CHL1  H26B 3473   2.378   6.603   8.238 -1.0070  0.1335 -1.0501
   47CHL1  H26C 3474   2.502   6.711   8.236  0.4513 -3.8646  0.4128
   47CHL1   C27 3475   2.376   6.968   8.235 -0.7764  0.7156  0.4498
   47CHL1  H27A 3476   2.335   7.027   8.150  2.9465  0.4929 -1.7169
   47CHL1  H27B 3477   2.354   7.020   8.330 -0.8076  1.0690  0.2507
   47CHL1  H27C 3478   2.487   6.965   8.229 -0.8279 -0.4139 -0.4409
   48CHL1    C3 3479   5.032   1.922   6.977 -0.5522  0.4823 -0.0960
   48CHL1    H3 3480   5.060   1.816   6.956 -4.0643 -0.6334  0.1090
   48CHL1    O3 3481   5.035   1.980   6.850 -0.0882 -0.0693  0.4528
   48CHL1   H3' 3482   4.989   2.063   6.866  0.5050  0.7389 -1.7113
   48CHL1    C4 3483   4.894   1.928   7.044  0.1816 -0.1481 -0.3590
   48CHL1   H4A 3484   4.869   2.036   7.038  0.7053 -0.0407 -0.6730
   48CHL1   H4B 3485   4.819   1.875   6.983 -0.5056 -1.2395  1.3529
   48CHL1    C5 3486   4.889   1.873   7.185 -0.7859 -0.2847  0.1081
   48CHL1    C6 3487   4.815   1.771   7.221  0.9839 -0.7806 -0.3813
   48CHL1    H6 3488   4.744   1.725   7.152 -0.4088  0.5089  0.1356
   48CHL1    C7 3489   4.798   1.719   7.356  0.0036  0.3588  0.2961
   48CHL1   H7A 3490   4.691   1.702   7.380  0.3495 -1.0741  0.9425
   48CHL1   H7B 3491   4.841   1.618   7.338 -1.5740  0.2565 -4.0239
   48CHL1    C8 3492   4.863   1.804   7.468  0.1281 -0.4581 -0.1814
   48CHL1    H8 3493   4.790   1.887   7.484 -0.8789 -0.8339 -2.4091
   48CHL1   C14 3494   4.893   1.725   7.590  0.7629  0.6565  0.0805
   48CHL1   H14 3495   4.962   1.648   7.551 -0.3237 -0.0063 -0.5970
   48CHL1   C15 3496   4.766   1.653   7.648  0.0295 -0.2471 -0.9716
   48CHL1  H15A 3497   4.678   1.721   7.642  0.7355  0.6288 -1.5760
   48CHL1  H15B 3498   4.746   1.559   7.592 -0.6652 -1.3529  1.0246
   48CHL1   C16 3499   4.805   1.621   7.798 -0.7559 -0.4793 -0.2600
   48CHL1  H16A 3500   4.760   1.678   7.881  3.4147  0.4049  1.6516
   48CHL1  H16B 3501   4.801   1.513   7.827 -1.3292 -0.5204 -0.4856
   48CHL1   C17 3502   4.957   1.685   7.815 -0.6784  0.0623 -0.0772
   48CHL1   H17 3503   5.033   1.610   7.786 -0.7736  0.4881 -1.5036
   48CHL1   C13 3504   4.960   1.796   7.713 -0.7649 -0.2495  0.0217
   48CHL1   C18 3505   4.874   1.913   7.762  0.3725  0.0473  0.0187
   48CHL1  H18A 3506   4.768   1.888   7.784  0.4551 -0.6160 -0.3015
   48CHL1  H18B 3507   4.925   1.935   7.858  3.8722 -0.3678 -1.6067
   48CHL1  H18C 3508   4.883   2.000   7.694  1.1880 -0.4367 -0.5128
   48CHL1   C12 3509   5.102   1.843   7.661  0.0134  0.1698 -0.2251
   48CHL1  H12A 3510   5.139   1.913   7.739  0.4339  2.1684 -2.1382
   48CHL1  H12B 3511   5.176   1.761   7.660  0.2397 -0.1514  5.6603
   48CHL1   C11 3512   5.082   1.923   7.531 -0.0196 -0.1428  0.2137
   48CHL1  H11A 3513   5.038   2.022   7.557 -0.3776 -0.9873  3.1110
   48CHL1  H11B 3514   5.187   1.935   7.497  0.4977  0.5763  1.9794
   48CHL1    C9 3515   4.995   1.856   7.418  0.0983 -0.2094  0.5434
   48CHL1    H9 3516   5.051   1.764   7.392 -0.3409 -0.3431  0.0500
   48CHL1   C10 3517   4.988   1.931   7.283  0.6156  0.6362 -0.2530
   48CHL1   C19 3518   4.950   2.075   7.320 -0.7677  0.8556 -0.4176
   48CHL1  H19A 3519   4.935   2.131   7.225  0.1139 -0.0050 -1.0821
   48CHL1  H19B 3520   4.867   2.090   7.392  0.2468 -1.3934  1.3400
   48CHL1  H19C 3521   5.035   2.128   7.367 -0.3260  3.1162 -3.4149
   48CHL1    C1 3522   5.132   1.923   7.212 -0.3886 -0.4167  0.9042
   48CHL1   H1A 3523   5.212   1.973   7.271  0.2454  0.1846 -0.4136
   48CHL1   H1B 3524   5.167   1.818   7.200 -0.7627 -0.3548 -1.1013
   48CHL1    C2 3525   5.134   1.983   7.071  0.5372  0.1807 -0.3775
   48CHL1   H2A 3526   5.233   1.977   7.022 -0.3515 -1.4792 -2.1211
   48CHL1   H2B 3527   5.112   2.091   7.083  0.8905  0.1053  1.1681
   48CHL1   C20 3528   4.987   1.715   7.964 -0.0760  0.6919  0.4061
   48CHL1   H20 3529   4.913   1.788   8.004 -1.7281  0.2976 -1.8076
   48CHL1   C21 3530   5.138   1.747   7.968  0.5113  0.6622  0.2528
   48CHL1  H21A 3531   5.164   1.764   8.075  0.5812 -1.8472  0.6823
   48CHL1  H21B 3532   5.172   1.836   7.911  1.7304 -0.3510 -0.6660
   48CHL1  H21C 3533   5.202   1.666   7.929  0.1203  0.0969  0.7575
   48CHL1   C22 3534   4.970   1.591   8.052  0.3109  0.2763  0.2616
   48CHL1  H22A 3535   4.867   1.552   8.038  0.6990 -0.2465 -1.4720
   48CHL1  H22B 3536   5.041   1.515   8.014  0.5461  0.7823 -0.3384
   48CHL1   C23 3537   4.980   1.609   8.206 -0.0932 -0.1801 -0.1113
   48CHL1  H23A 3538   5.079   1.649   8.237 -0.0949 -2.0881  2.7416
   48CHL1  H23B 3539   4.900   1.673   8.249 -0.0360  0.8963 -1.5279
   48CHL1   C24 3540   4.959   1.469   8.269  0.0879  0.7808 -0.0322
   48CHL1  H24A 3541   4.988   1.383   8.206  1.2772  1.2599 -0.1541
   48CHL1  H24B 3542   5.020   1.461   8.361  1.3896  1.3818 -0.8226
   48CHL1   C25 3543   4.818   1.444   8.327  0.5846 -0.2623 -0.3551
   48CHL1   H25 3544   4.789   1.519   8.404 -1.2321 -0.5602 -0.6961
   48CHL1   C26 3545   4.709   1.444   8.217 -0.8445  0.1197 -0.0350
   48CHL1  H26A 3546   4.683   1.545   8.179 -2.6461  0.0907  0.9865
   48CHL1  H26B 3547   4.725   1.373   8.133 -0.8118  1.5470 -1.2887
   48CHL1  H26C 3548   4.613   1.411   8.263 -0.6108  0.7356  0.9320
   48CHL1   C27 3549   4.808   1.309   8.401 -0.7337 -0.1070  0.2645
   48CHL1  H27A 3550   4.711   1.283   8.450 -0.8685  0.8635  0.5295
   48CHL1  H27B 3551   4.823   1.231   8.324  1.4947  0.0867  0.4350
   48CHL1  H27C 3552   4.890   1.310   8.476  0.4062  3.9548 -0.8154
   49CHL1    C3 3553   4.099   2.253   6.735 -0.6775 -0.1278 -0.0128
   49CHL1    H3 3554   4.207   2.248   6.760 -0.4890 -2.5465 -1.1119
   49CHL1    O3 3555   4.076   2.249   6.595 -0.3135  0.7915  0.2423
   49CHL1   H3' 3556   4.011   2.317   6.580 -0.3312  0.9134  0.8459
   49CHL1    C4 3557   4.029   2.138   6.800 -0.6197  0.4153  0.3888
   49CHL1   H4A 3558   3.926   2.127   6.761 -0.1455  0.6763 -1.0057
   49CHL1   H4B 3559   4.087   2.047   6.771 -0.7868 -0.6260  3.0255
   49CHL1    C5 3560   4.038   2.156   6.950 -0.5095 -0.3898 -0.2019
   49CHL1    C6 3561   4.105   2.066   7.030 -0.1126  0.4714  0.2153
   49CHL1    H6 3562   4.141   1.975   6.980  0.7825  0.9554 -0.0350
   49CHL1    C7 3563   4.107   2.066   7.176 -0.3586 -0.5123  0.5523
   49CHL1   H7A 3564   4.081   1.965   7.214 -0.5423 -0.5487  0.3314
   49CHL1   H7B 3565   4.214   2.082   7.200 -0.2349 -1.3583  0.6159
   49CHL1    C8 3566   4.015   2.182   7.230  0.2129 -0.1901 -0.1893
   49CHL1    H8 3567   3.911   2.146   7.241 -0.0936  0.9954  1.0045
   49CHL1   C14 3568   4.062   2.206   7.370 -0.3420  0.5321  0.0445
   49CHL1   H14 3569   4.165   2.247   7.363  0.2945 -0.5509  2.1777
   49CHL1   C15 3570   4.096   2.082   7.465 -0.2532 -0.3329 -0.6846
   49CHL1  H15A 3571   4.020   2.005   7.443 -1.2455 -0.6090  3.0917
   49CHL1  H15B 3572   4.198   2.043   7.448 -0.3734 -1.1774  0.3835
   49CHL1   C16 3573   4.083   2.141   7.601 -0.0503 -0.2066  0.5023
   49CHL1  H16A 3574   4.003   2.086   7.653  0.3965  0.2223  1.6697
   49CHL1  H16B 3575   4.174   2.136   7.664  1.7674  1.1092 -1.8168
   49CHL1   C17 3576   4.058   2.292   7.585  0.8146  0.4640  0.1722
   49CHL1   H17 3577   4.154   2.340   7.558 -0.4653  2.9472 -0.2950
   49CHL1   C13 3578   3.987   2.309   7.456  0.9747 -0.2650 -0.0254
   49CHL1   C18 3579   3.840   2.268   7.477 -0.0163  0.6915 -0.4858
   49CHL1  H18A 3580   3.820   2.186   7.549  0.7412 -0.8443 -1.9644
   49CHL1  H18B 3581   3.779   2.348   7.525 -1.0108 -0.0863 -0.4075
   49CHL1  H18C 3582   3.803   2.254   7.373 -1.3064  1.1690 -0.1106
   49CHL1   C12 3583   3.994   2.441   7.382 -0.2929 -0.4052 -0.6659
   49CHL1  H12A 3584   3.937   2.517   7.440  3.1923  2.1603 -0.2985
   49CHL1  H12B 3585   4.095   2.485   7.391 -1.1709  1.6821 -0.4968
   49CHL1   C11 3586   3.966   2.434   7.231  0.8947 -0.0878  0.0108
   49CHL1  H11A 3587   3.860   2.403   7.217  1.1309 -1.1411  0.4467
   49CHL1  H11B 3588   3.972   2.534   7.184 -1.8294  1.2604  2.2201
   49CHL1    C9 3589   4.040   2.314   7.153  0.4347 -0.3346 -0.9116
   49CHL1    H9 3590   4.148   2.342   7.161  0.4808 -0.3853 -1.3508
   49CHL1   C10 3591   4.002   2.292   7.012  0.0112  0.3277  0.3194
   49CHL1   C19 3592   3.848   2.297   6.998 -0.2271  0.1358  0.1737
   49CHL1  H19A 3593   3.823   2.269   6.893  0.8551  3.1282 -0.9911
   49CHL1  H19B 3594   3.808   2.226   7.074  1.5052  2.0955  3.1199
   49CHL1  H19C 3595   3.801   2.396   7.011  0.3443  0.6137 -1.2360
   49CHL1    C1 3596   4.056   2.410   6.928  0.0394  0.1560 -0.2697
   49CHL1   H1A 3597   4.007   2.501   6.969 -0.9994 -0.8099  0.6706
   49CHL1   H1B 3598   4.164   2.426   6.947 -0.2788 -0.1819  2.1322
   49CHL1    C2 3599   4.038   2.392   6.774  0.0217  0.9064 -0.2112
   49CHL1   H2A 3600   4.087   2.477   6.722 -2.0149  2.6093  0.5182
   49CHL1   H2B 3601   3.930   2.386   6.749  0.2784 -2.0173 -1.0072
   49CHL1   C20 3602   4.007   2.358   7.713 -0.2253 -0.5706  0.7252
   49CHL1   H20 3603   3.898   2.339   7.727 -1.0046  1.1870 -2.1515
   49CHL1   C21 3604   4.013   2.509   7.681  0.3193  0.1361  0.5057
   49CHL1  H21A 3605   3.929   2.552   7.623  0.7063  0.0007 -0.1647
   49CHL1  H21B 3606   4.108   2.546   7.637 -0.8753  0.7699 -1.6582
   49CHL1  H21C 3607   4.010   2.568   7.776  1.6297  1.1357 -0.0392
   49CHL1   C22 3608   4.076   2.332   7.847 -0.4390 -0.3401  0.0653
   49CHL1  H22A 3609   4.184   2.314   7.825 -0.1882 -1.5069  2.0294
   49CHL1  H22B 3610   4.066   2.418   7.917  3.6626 -0.2498  0.7895
   49CHL1   C23 3611   4.014   2.212   7.920  0.3237  0.2435 -0.8980
   49CHL1  H23A 3612   3.905   2.222   7.902  0.5999  1.1819 -2.1522
   49CHL1  H23B 3613   4.031   2.108   7.886 -1.4528 -0.5462  0.4781
   49CHL1   C24 3614   4.036   2.219   8.074  0.5295  0.1274  0.3098
   49CHL1  H24A 3615   4.145   2.221   8.094  0.2570  0.7658  1.9099
   49CHL1  H24B 3616   3.996   2.318   8.104 -1.6737 -0.4427 -0.5615
   49CHL1   C25 3617   3.962   2.112   8.162  0.0034  0.5547 -0.6041
   49CHL1   H25 3618   3.991   2.009   8.133  1.4779  0.7132  0.2096
   49CHL1   C26 3619   4.014   2.135   8.304 -0.0046  0.7669  0.1005
   49CHL1  H26A 3620   3.997   2.241   8.329 -2.1588  1.0206 -2.0786
   49CHL1  H26B 3621   3.977   2.062   8.380  1.5481  0.4401  0.5968
   49CHL1  H26C 3622   4.124   2.122   8.292  0.0140 -0.4060  1.3188
   49CHL1   C27 3623   3.807   2.131   8.162 -0.3189  0.3530 -0.4281
   49CHL1  H27A 3624   3.770   2.102   8.061 -0.8912  2.2705 -0.8186
   49CHL1  H27B 3625   3.756   2.073   8.242  0.9400  0.0499  0.1717
   49CHL1  H27C 3626   3.775   2.238   8.167 -3.6724 -0.3154 -3.2017
   50CHL1    C3 3627   5.185   5.441   6.474 -0.3917  0.5471 -0.1182
   50CHL1    H3 3628   5.082   5.481   6.465 -0.7289 -0.2038  0.2872
   50CHL1    O3 3629   5.231   5.400   6.350  0.2079  0.1281  0.0495
   50CHL1   H3' 3630   5.273   5.314   6.358 -0.7397 -0.3829 -0.3383
   50CHL1    C4 3631   5.286   5.526   6.544  0.1048  0.2819 -0.2097
   50CHL1   H4A 3632   5.389   5.492   6.525  0.9533  1.0538  2.5518
   50CHL1   H4B 3633   5.265   5.625   6.498 -0.9535 -0.3236 -1.0621
   50CHL1    C5 3634   5.267   5.539   6.691 -0.4582 -0.0768 -0.2829
   50CHL1    C6 3635   5.266   5.652   6.755  0.6532 -0.2471 -0.3058
   50CHL1    H6 3636   5.263   5.749   6.704 -1.9253  0.5957  1.2739
   50CHL1    C7 3637   5.262   5.664   6.909  0.2754  0.3675 -0.8284
   50CHL1   H7A 3638   5.321   5.748   6.952 -0.0807 -1.0806  2.7649
   50CHL1   H7B 3639   5.158   5.697   6.926  0.2934  0.8475 -1.5587
   50CHL1    C8 3640   5.281   5.532   6.981 -0.8388 -0.0536  0.0281
   50CHL1    H8 3641   5.389   5.508   6.990 -0.7676  0.7743  1.6683
   50CHL1   C14 3642   5.235   5.540   7.134 -0.5596 -0.1999 -0.5988
   50CHL1   H14 3643   5.129   5.574   7.124 -0.1851  0.8298 -1.3549
   50CHL1   C15 3644   5.296   5.646   7.225  0.3761  0.4916  0.0136
   50CHL1  H15A 3645   5.406   5.647   7.214  0.5058 -1.7346  0.6511
   50CHL1  H15B 3646   5.250   5.741   7.189  2.2165  1.3869 -0.0992
   50CHL1   C16 3647   5.261   5.596   7.364 -0.1734 -0.4080 -0.6819
   50CHL1  H16A 3648   5.359   5.591   7.417  1.0701  3.4164 -2.2446
   50CHL1  H16B 3649   5.194   5.668   7.416 -0.3452 -1.3154  0.3815
   50CHL1   C17 3650   5.191   5.456   7.352 -0.2647 -0.4515 -0.0531
   50CHL1   H17 3651   5.081   5.475   7.351 -0.4549 -1.4969 -0.1914
   50CHL1   C13 3652   5.239   5.405   7.212  0.5315  0.1833 -0.2188
   50CHL1   C18 3653   5.386   5.356   7.225  0.2583 -0.0702 -0.0700
   50CHL1  H18A 3654   5.435   5.359   7.125  1.8999 -1.0843  0.6636
   50CHL1  H18B 3655   5.450   5.414   7.295  2.8659 -0.2944 -2.1192
   50CHL1  H18C 3656   5.390   5.249   7.253  2.1159 -0.2883 -1.0262
   50CHL1   C12 3657   5.139   5.308   7.137  0.2515 -0.1270 -0.1733
   50CHL1  H12A 3658   5.116   5.212   7.188 -0.0383  0.5463  1.0113
   50CHL1  H12B 3659   5.038   5.354   7.142  0.4480  0.2505  0.4851
   50CHL1   C11 3660   5.189   5.292   6.987  0.7088  0.3227 -0.4430
   50CHL1  H11A 3661   5.290   5.250   7.006  1.1002  0.9746 -1.0286
   50CHL1  H11B 3662   5.116   5.223   6.939 -1.2791 -0.3004  3.0882
   50CHL1    C9 3663   5.205   5.422   6.912  0.2939 -0.5188  0.5048
   50CHL1    H9 3664   5.099   5.456   6.902  0.4205  0.2188  1.4856
   50CHL1   C10 3665   5.251   5.402   6.765  0.0050  0.0623  0.4408
   50CHL1   C19 3666   5.378   5.307   6.767  0.6082  0.0944 -0.0751
   50CHL1  H19A 3667   5.427   5.299   6.667  2.1235  0.8778  0.5636
   50CHL1  H19B 3668   5.459   5.352   6.828 -0.5344  3.2565 -0.6789
   50CHL1  H19C 3669   5.356   5.201   6.789  0.6003  0.0667 -0.2152
   50CHL1    C1 3670   5.131   5.330   6.695 -0.0764 -0.3128  0.2996
   50CHL1   H1A 3671   5.107   5.230   6.737 -0.7207  0.1550  1.0528
   50CHL1   H1B 3672   5.039   5.391   6.696  1.8571  2.8312  0.8061
   50CHL1    C2 3673   5.158   5.301   6.546  0.3132  0.0751  0.7434
   50CHL1   H2A 3674   5.067   5.252   6.505  0.7242 -0.3546  0.3313
   50CHL1   H2B 3675   5.242   5.229   6.548 -0.4394 -0.8094  2.8634
   50CHL1   C20 3676   5.214   5.369   7.476 -0.2365  0.2528 -0.6266
   50CHL1   H20 3677   5.315   5.322   7.474 -0.2260  0.2527 -0.2117
   50CHL1   C21 3678   5.106   5.259   7.478  0.3918 -0.4774  0.7492
   50CHL1  H21A 3679   5.077   5.222   7.579 -0.8480  0.6978  0.8533
   50CHL1  H21B 3680   5.140   5.177   7.411 -0.6484 -1.8238  1.8143
   50CHL1  H21C 3681   5.013   5.298   7.430  0.4085 -2.3926 -0.9774
   50CHL1   C22 3682   5.205   5.442   7.612  0.0893  0.1621  0.3773
   50CHL1  H22A 3683   5.272   5.530   7.623  2.0197 -1.4167  1.8316
   50CHL1  H22B 3684   5.107   5.495   7.621 -0.1976  0.2145 -2.1876
   50CHL1   C23 3685   5.238   5.354   7.741 -0.1287 -0.1421 -0.1506
   50CHL1  H23A 3686   5.163   5.273   7.753  0.3440 -0.7173 -1.0050
   50CHL1  H23B 3687   5.332   5.295   7.731 -0.3162 -0.1528 -2.1508
   50CHL1   C24 3688   5.216   5.436   7.872 -0.8372  0.3864 -0.7331
   50CHL1  H24A 3689   5.235   5.376   7.964 -1.4893 -1.2306 -1.6168
   50CHL1  H24B 3690   5.292   5.517   7.871  0.0550 -0.2116  2.9302
   50CHL1   C25 3691   5.078   5.501   7.883 -0.9170  0.4416  0.6208
   50CHL1   H25 3692   5.067   5.577   7.804  1.3750 -0.3704 -0.5527
   50CHL1   C26 3693   4.960   5.401   7.873  0.0689 -0.0251  0.7863
   50CHL1  H26A 3694   4.955   5.352   7.774  2.5841 -0.0886  0.6218
   50CHL1  H26B 3695   4.974   5.318   7.946  2.9276 -1.8401 -1.6106
   50CHL1  H26C 3696   4.866   5.457   7.893  0.3498  0.0515  1.9901
   50CHL1   C27 3697   5.069   5.559   8.024 -0.4892 -0.1530  0.1070
   50CHL1  H27A 3698   4.984   5.630   8.025  1.2684  2.0856  0.9344
   50CHL1  H27B 3699   5.067   5.489   8.110  3.0245 -0.8880 -0.2551
   50CHL1  H27C 3700   5.151   5.631   8.045  0.4905 -0.4214 -2.4007
   51CHL1    C3 3701   4.691   3.555   6.697  0.1935 -0.0807  0.4016
   51CHL1    H3 3702   4.684   3.445   6.704 -2.4308  0.0126  0.3899
   51CHL1    O3 3703   4.651   3.614   6.571 -0.2391  0.1307  0.2684
   51CHL1   H3' 3704   4.685   3.703   6.576 -0.8717  0.3537  0.7202
   51CHL1    C4 3705   4.588   3.613   6.799  0.7362  0.2273 -0.2504
   51CHL1   H4A 3706   4.599   3.724   6.796 -1.3351  0.4544 -1.6046
   51CHL1   H4B 3707   4.488   3.586   6.758 -0.7474  2.0129  1.9363
   51CHL1    C5 3708   4.608   3.560   6.936  0.0790 -0.1427 -0.3887
   51CHL1    C6 3709   4.524   3.488   7.003  0.3518  0.5488  0.3074
   51CHL1    H6 3710   4.427   3.459   6.960  0.6799 -1.7841  1.0427
   51CHL1    C7 3711   4.547   3.443   7.142 -0.3719 -0.7198 -0.7965
   51CHL1   H7A 3712   4.452   3.457   7.200  0.8843 -0.3134  1.2721
   51CHL1   H7B 3713   4.562   3.333   7.134  2.4629 -0.5673  1.0905
   51CHL1    C8 3714   4.665   3.506   7.215 -0.4417 -0.4319 -0.3566
   51CHL1    H8 3715   4.634   3.610   7.242 -1.2011 -0.6039 -0.5430
   51CHL1   C14 3716   4.699   3.432   7.346 -0.4819  0.4125 -0.0414
   51CHL1   H14 3717   4.729   3.332   7.306 -0.7380  0.9045 -1.5389
   51CHL1   C15 3718   4.588   3.409   7.439  0.8359 -0.4217  0.4988
   51CHL1  H15A 3719   4.531   3.504   7.439  1.6201  0.0663 -0.7226
   51CHL1  H15B 3720   4.512   3.335   7.406  0.9552  0.1097 -1.0236
   51CHL1   C16 3721   4.648   3.393   7.571  0.0053 -0.0698 -0.2264
   51CHL1  H16A 3722   4.622   3.465   7.651  0.1558 -1.2635  0.9485
   51CHL1  H16B 3723   4.627   3.296   7.622  1.1156  1.4237  3.3916
   51CHL1   C17 3724   4.804   3.401   7.550  0.5884 -0.2375 -0.3452
   51CHL1   H17 3725   4.831   3.295   7.530  0.1410 -0.0468 -2.1321
   51CHL1   C13 3726   4.819   3.489   7.424 -0.0206  1.3292  0.0965
   51CHL1   C18 3727   4.783   3.635   7.468 -0.5256  0.0410  0.2744
   51CHL1  H18A 3728   4.755   3.708   7.389  1.9387 -1.3411 -2.0540
   51CHL1  H18B 3729   4.706   3.641   7.547  0.0723 -2.3355  1.0949
   51CHL1  H18C 3730   4.885   3.666   7.502  0.7604 -3.3108 -0.1916
   51CHL1   C12 3731   4.939   3.477   7.330  0.9317  0.3182 -0.2613
   51CHL1  H12A 3732   5.023   3.521   7.386  2.2329 -2.2175 -0.0685
   51CHL1  H12B 3733   4.959   3.368   7.316  1.2570  0.3380  0.0555
   51CHL1   C11 3734   4.917   3.541   7.193  0.1101 -0.0484 -0.0319
   51CHL1  H11A 3735   4.916   3.650   7.214  1.6859 -0.0797  0.2919
   51CHL1  H11B 3736   4.992   3.512   7.117 -1.4230 -1.2929 -1.1540
   51CHL1    C9 3737   4.791   3.508   7.122  0.3677 -0.4167  0.4737
   51CHL1    H9 3738   4.817   3.404   7.094  0.2283  0.3806 -3.1316
   51CHL1   C10 3739   4.754   3.589   6.989  0.2483  0.5960 -0.1748
   51CHL1   C19 3740   4.770   3.738   7.023 -0.2041 -0.3793  0.2429
   51CHL1  H19A 3741   4.722   3.773   7.117 -0.0830  1.5727 -0.3797
   51CHL1  H19B 3742   4.877   3.761   7.044 -0.1290  1.7402 -2.0477
   51CHL1  H19C 3743   4.761   3.804   6.934  1.7925  0.4452  0.5910
   51CHL1    C1 3744   4.856   3.541   6.879  0.1731 -0.1420  0.5461
   51CHL1   H1A 3745   4.953   3.582   6.912  0.2132 -0.8474  1.3474
   51CHL1   H1B 3746   4.868   3.431   6.869 -3.6039 -0.5536 -1.4001
   51CHL1    C2 3747   4.832   3.596   6.742 -0.1587 -0.0513  0.3408
   51CHL1   H2A 3748   4.899   3.542   6.671 -0.9270 -0.9380  0.2770
   51CHL1   H2B 3749   4.843   3.707   6.736  1.4569 -0.2160 -0.3080
   51CHL1   C20 3750   4.884   3.437   7.676 -0.2524  0.9587  0.5956
   51CHL1   H20 3751   4.856   3.536   7.718  2.7131  1.1874  2.3093
   51CHL1   C21 3752   5.035   3.442   7.636  0.1052  0.3322  0.2738
   51CHL1  H21A 3753   5.053   3.349   7.579 -1.8484  1.0007 -1.5472
   51CHL1  H21B 3754   5.093   3.460   7.729 -1.3254 -0.1359  1.2687
   51CHL1  H21C 3755   5.062   3.530   7.573 -1.1965  0.0555 -0.7061
   51CHL1   C22 3756   4.869   3.328   7.781 -0.5594  0.3879 -0.2322
   51CHL1  H22A 3757   4.769   3.281   7.785 -0.3461 -0.0211  1.7641
   51CHL1  H22B 3758   4.936   3.248   7.743  0.5497  0.7863  0.8053
   51CHL1   C23 3759   4.893   3.361   7.930  0.1623 -0.3522  1.3199
   51CHL1  H23A 3760   4.982   3.427   7.940  1.8723 -2.5337  1.2431
   51CHL1  H23B 3761   4.801   3.414   7.962  0.1052 -0.6853  1.7110
   51CHL1   C24 3762   4.919   3.232   8.006 -0.4930 -0.2921 -0.2733
   51CHL1  H24A 3763   4.836   3.166   7.974 -0.2666 -1.1940  0.9673
   51CHL1  H24B 3764   5.013   3.175   7.988 -0.7823 -0.8370 -0.0758
   51CHL1   C25 3765   4.914   3.241   8.159 -0.0494  0.2717  0.2933
   51CHL1   H25 3766   4.980   3.326   8.190  0.5503  0.1989 -0.7399
   51CHL1   C26 3767   4.777   3.286   8.208 -0.3623  0.8470  0.1520
   51CHL1  H26A 3768   4.693   3.227   8.164 -2.7046  2.1099  2.6147
   51CHL1  H26B 3769   4.776   3.270   8.318 -1.2341 -0.3143  0.0026
   51CHL1  H26C 3770   4.770   3.389   8.167 -2.6769  0.0289 -1.7413
   51CHL1   C27 3771   4.950   3.110   8.231  0.0831 -0.0293 -0.6058
   51CHL1  H27A 3772   5.054   3.080   8.208  1.1821  1.0284  2.5512
   51CHL1  H27B 3773   4.936   3.126   8.340 -2.8733 -3.6667 -0.2515
   51CHL1  H27C 3774   4.885   3.021   8.219 -0.7435  0.5325 -0.4377
   52CHL1    C3 3775   5.186   3.010   6.926 -0.0946  0.3051  0.5572
   52CHL1    H3 3776   5.079   2.985   6.934 -0.1892  0.7857  0.8101
   52CHL1    O3 3777   5.205   3.055   6.794 -0.9643  0.3577 -0.0411
   52CHL1   H3' 3778   5.129   3.015   6.751 -0.7066  0.5889 -0.7322
   52CHL1    C4 3779   5.231   3.114   7.030  0.0619  0.1385 -0.0779
   52CHL1   H4A 3780   5.333   3.155   7.010 -0.3595  0.1347 -2.5198
   52CHL1   H4B 3781   5.161   3.199   7.016 -0.5536 -0.0651  1.5716
   52CHL1    C5 3782   5.211   3.063   7.168 -1.0135  0.0490  0.0214
   52CHL1    C6 3783   5.133   3.125   7.256  0.3486 -0.1444 -0.0717
   52CHL1    H6 3784   5.069   3.210   7.227 -0.5349 -0.7556  0.0194
   52CHL1    C7 3785   5.122   3.081   7.397  0.1930 -0.1702 -0.0164
   52CHL1   H7A 3786   5.128   3.166   7.468  2.9721  0.1254 -0.4955
   52CHL1   H7B 3787   5.017   3.048   7.415 -0.4621  0.9451 -1.5387
   52CHL1    C8 3788   5.231   2.984   7.439  0.0557 -0.2167  0.0227
   52CHL1    H8 3789   5.332   3.031   7.432  1.4523 -3.0073 -0.3336
   52CHL1   C14 3790   5.207   2.933   7.583  0.4749  0.3217  0.5583
   52CHL1   H14 3791   5.111   2.878   7.578  1.6246 -1.8905  1.6007
   52CHL1   C15 3792   5.182   3.030   7.703  0.1456  0.1008  0.2715
   52CHL1  H15A 3793   5.256   3.113   7.713  0.9903 -0.5559 -0.3206
   52CHL1  H15B 3794   5.079   3.071   7.706  0.6978  1.9087 -2.0571
   52CHL1   C16 3795   5.205   2.935   7.826 -0.5763 -0.6079 -0.0246
   52CHL1  H16A 3796   5.276   2.986   7.895 -0.7834  1.5323 -1.3019
   52CHL1  H16B 3797   5.111   2.926   7.886 -0.0951 -0.3362  0.7881
   52CHL1   C17 3798   5.254   2.797   7.770  0.3393 -0.6293 -0.2838
   52CHL1   H17 3799   5.162   2.737   7.755  1.3380 -2.0358 -1.0978
   52CHL1   C13 3800   5.311   2.825   7.631 -0.1205  0.0109  0.0652
   52CHL1   C18 3801   5.452   2.880   7.652 -0.2266  0.4161 -0.1896
   52CHL1  H18A 3802   5.516   2.800   7.695 -0.0047  0.3797 -0.5830
   52CHL1  H18B 3803   5.495   2.896   7.551 -2.1194  0.3040 -1.0664
   52CHL1  H18C 3804   5.461   2.982   7.693 -3.6024  0.7149  0.1548
   52CHL1   C12 3805   5.305   2.705   7.530 -0.5200  0.4662 -0.1269
   52CHL1  H12A 3806   5.387   2.637   7.563 -0.2052  0.8320 -0.1482
   52CHL1  H12B 3807   5.209   2.654   7.551  0.6610 -2.2323 -0.8137
   52CHL1   C11 3808   5.329   2.756   7.390 -0.1854  0.8592 -0.1512
   52CHL1  H11A 3809   5.440   2.758   7.390 -0.0495 -2.1018 -0.2715
   52CHL1  H11B 3810   5.314   2.670   7.321 -2.0969  0.5035  0.6239
   52CHL1    C9 3811   5.245   2.871   7.341 -0.2728 -0.7107  0.4424
   52CHL1    H9 3812   5.141   2.832   7.344  0.3868 -2.4666  1.1912
   52CHL1   C10 3813   5.285   2.927   7.202 -0.2627 -0.1634  0.4980
   52CHL1   C19 3814   5.439   2.963   7.198 -0.0540 -0.2013 -0.0127
   52CHL1  H19A 3815   5.499   2.870   7.209  1.1800  0.2202 -2.6027
   52CHL1  H19B 3816   5.474   3.005   7.102  0.6649 -0.2114  0.2450
   52CHL1  H19C 3817   5.464   3.026   7.286 -0.8416 -0.7584  0.6351
   52CHL1    C1 3818   5.244   2.829   7.088 -0.3166 -0.4248  0.7106
   52CHL1   H1A 3819   5.310   2.739   7.094  1.2596  0.3525 -2.5996
   52CHL1   H1B 3820   5.137   2.800   7.087 -0.6019  0.4629 -1.9478
   52CHL1    C2 3821   5.270   2.884   6.943  0.1144 -0.1800  0.2902
   52CHL1   H2A 3822   5.238   2.813   6.864  0.9036 -2.3285  1.8163
   52CHL1   H2B 3823   5.378   2.903   6.931  0.1155  0.1485  0.8048
   52CHL1   C20 3824   5.332   2.702   7.859 -0.6566  0.4692  0.3515
   52CHL1   H20 3825   5.369   2.617   7.798 -0.6222  2.5979 -2.8333
   52CHL1   C21 3826   5.230   2.643   7.956  0.3070  0.3166  0.5196
   52CHL1  H21A 3827   5.214   2.721   8.034  0.0691  1.2629 -0.4487
   52CHL1  H21B 3828   5.274   2.558   8.012  0.0658  0.7683  1.4113
   52CHL1  H21C 3829   5.131   2.612   7.915  0.3121 -1.2891  1.6275
   52CHL1   C22 3830   5.456   2.745   7.943  0.1638  0.0362 -0.0974
   52CHL1  H22A 3831   5.549   2.761   7.883  0.9564 -0.9984  0.7958
   52CHL1  H22B 3832   5.423   2.842   7.984 -2.5114 -0.0867 -1.7900
   52CHL1   C23 3833   5.501   2.641   8.050  0.3661 -0.5323 -0.9102
   52CHL1  H23A 3834   5.431   2.638   8.136  0.4178 -0.1118 -0.8496
   52CHL1  H23B 3835   5.505   2.539   8.006 -3.1861 -1.2718  0.1494
   52CHL1   C24 3836   5.636   2.684   8.090 -0.2621 -0.6576  0.4401
   52CHL1  H24A 3837   5.702   2.685   8.000  0.1189  1.5270  0.6994
   52CHL1  H24B 3838   5.645   2.779   8.147  1.7696 -0.4100 -0.2050
   52CHL1   C25 3839   5.693   2.586   8.199 -0.2299  0.0644  0.2301
   52CHL1   H25 3840   5.623   2.566   8.283 -2.1993 -0.3020 -1.4190
   52CHL1   C26 3841   5.725   2.445   8.135  0.5966 -0.2546 -0.0883
   52CHL1  H26A 3842   5.628   2.397   8.109  0.5525  0.5788 -1.5348
   52CHL1  H26B 3843   5.783   2.445   8.041 -0.1083 -1.2190 -0.5453
   52CHL1  H26C 3844   5.770   2.390   8.221  1.7464  1.0499  0.1751
   52CHL1   C27 3845   5.827   2.630   8.270  0.2739 -0.2942  0.8333
   52CHL1  H27A 3846   5.911   2.656   8.202 -0.6305  0.4524 -0.0188
   52CHL1  H27B 3847   5.808   2.714   8.341  0.8445  1.6240 -1.1951
   52CHL1  H27C 3848   5.859   2.550   8.341 -0.8186 -0.1292  1.5344
   53CHL1    C3 3849   3.508   0.861   6.858  0.2036  0.5230  0.1775
   53CHL1    H3 3850   3.484   0.757   6.826  0.3278 -0.2103  2.3096
   53CHL1    O3 3851   3.506   0.940   6.739 -0.0296 -0.4287 -0.5464
   53CHL1   H3' 3852   3.420   0.931   6.697 -0.6315  0.2202  0.4968
   53CHL1    C4 3853   3.411   0.904   6.967 -0.4137  0.0044  0.5470
   53CHL1   H4A 3854   3.433   1.012   6.979  2.3341 -0.5183  1.0057
   53CHL1   H4B 3855   3.307   0.907   6.929 -0.5115  0.2398  0.8320
   53CHL1    C5 3856   3.423   0.823   7.101  0.0452 -0.6525 -0.2498
   53CHL1    C6 3857   3.327   0.745   7.147 -0.7456  0.2574  0.5008
   53CHL1    H6 3858   3.230   0.746   7.096  0.2379  0.3031 -1.4765
   53CHL1    C7 3859   3.338   0.674   7.281 -0.6490 -0.5972 -0.7078
   53CHL1   H7A 3860   3.244   0.685   7.340 -0.8481  1.0168 -1.2863
   53CHL1   H7B 3861   3.361   0.569   7.252  1.6750 -0.2900 -0.1477
   53CHL1    C8 3862   3.450   0.736   7.368  0.4635 -0.2723 -0.4568
   53CHL1    H8 3863   3.409   0.837   7.390  2.5298  0.4014  0.6677
   53CHL1   C14 3864   3.473   0.649   7.495 -0.3571  0.3539  0.1632
   53CHL1   H14 3865   3.491   0.544   7.461  3.1576  0.5129  1.0823
   53CHL1   C15 3866   3.354   0.628   7.586 -0.0652  0.6181  0.8303
   53CHL1  H15A 3867   3.299   0.721   7.611  0.8073  1.6643 -0.9735
   53CHL1  H15B 3868   3.290   0.551   7.539  0.1018  0.6527  0.5497
   53CHL1   C16 3869   3.413   0.572   7.718 -0.0325 -0.4573 -0.0535
   53CHL1  H16A 3870   3.373   0.645   7.792  1.7104  1.5599 -0.9634
   53CHL1  H16B 3871   3.388   0.465   7.733 -0.8748 -0.1850  0.5936
   53CHL1   C17 3872   3.571   0.583   7.688  0.4014  0.2054 -0.7253
   53CHL1   H17 3873   3.595   0.484   7.643 -0.5559  0.1807 -1.2100
   53CHL1   C13 3874   3.585   0.691   7.578  0.0986  0.6338 -0.1754
   53CHL1   C18 3875   3.547   0.836   7.617 -0.5027  0.4617 -0.0326
   53CHL1  H18A 3876   3.628   0.872   7.684 -1.6636  0.2687  1.5385
   53CHL1  H18B 3877   3.525   0.914   7.541 -3.4451  0.1935  0.4172
   53CHL1  H18C 3878   3.458   0.829   7.684 -0.5673 -0.9836 -0.2306
   53CHL1   C12 3879   3.709   0.677   7.494 -0.3045  0.5798 -0.4076
   53CHL1  H12A 3880   3.799   0.709   7.552  0.1200  0.0703 -0.7775
   53CHL1  H12B 3881   3.718   0.573   7.456 -1.0888 -0.3367  1.7545
   53CHL1   C11 3882   3.705   0.771   7.372 -0.1391  0.3029 -0.2405
   53CHL1  H11A 3883   3.697   0.869   7.424  1.3104 -1.8095  4.5854
   53CHL1  H11B 3884   3.794   0.761   7.306 -0.4638  0.3164 -0.6813
   53CHL1    C9 3885   3.582   0.748   7.285  0.6456 -0.0257  0.4306
   53CHL1    H9 3886   3.602   0.644   7.254 -1.1371 -1.1247  2.6490
   53CHL1   C10 3887   3.566   0.836   7.159  0.4004  0.2787 -0.5069
   53CHL1   C19 3888   3.590   0.977   7.207 -0.3112  0.6858  0.5204
   53CHL1  H19A 3889   3.536   0.994   7.303  0.5409 -2.1599  1.6057
   53CHL1  H19B 3890   3.699   0.991   7.224 -0.0270 -1.1530  0.4319
   53CHL1  H19C 3891   3.553   1.058   7.141  0.2074 -0.5617 -1.3814
   53CHL1    C1 3892   3.656   0.787   7.045  0.3359  0.0167  0.7168
   53CHL1   H1A 3893   3.760   0.782   7.084  1.2148 -0.7830 -1.5409
   53CHL1   H1B 3894   3.640   0.678   7.036  0.3233  0.0191  0.7078
   53CHL1    C2 3895   3.650   0.858   6.912  0.8362 -0.7041  0.0493
   53CHL1   H2A 3896   3.721   0.792   6.857  1.0225 -2.6178  2.3849
   53CHL1   H2B 3897   3.694   0.960   6.921 -1.8759  0.4601  1.0549
   53CHL1   C20 3898   3.656   0.591   7.816 -0.2730 -0.8617  0.0716
   53CHL1   H20 3899   3.683   0.698   7.822 -0.0712 -0.9413  0.6825
   53CHL1   C21 3900   3.794   0.519   7.792  0.1644  0.1306  0.2823
   53CHL1  H21A 3901   3.842   0.552   7.697 -0.4641  1.1459  0.3090
   53CHL1  H21B 3902   3.768   0.411   7.788 -1.0110  0.3891  0.6974
   53CHL1  H21C 3903   3.871   0.543   7.868 -1.3264  3.5470  0.8956
   53CHL1   C22 3904   3.586   0.556   7.944 -0.0831 -0.8796 -0.4661
   53CHL1  H22A 3905   3.510   0.636   7.955  2.1070  1.3274 -0.4403
   53CHL1  H22B 3906   3.539   0.455   7.951 -2.0081 -0.1123 -1.6616
   53CHL1   C23 3907   3.680   0.581   8.060  0.6398 -1.0138 -0.0583
   53CHL1  H23A 3908   3.764   0.512   8.039  1.9370  0.2765  0.6719
   53CHL1  H23B 3909   3.711   0.688   8.063  1.2742 -1.0004 -3.5473
   53CHL1   C24 3910   3.613   0.539   8.193 -0.3714  0.3005 -0.3680
   53CHL1  H24A 3911   3.532   0.614   8.204 -1.2898 -0.6360 -0.6410
   53CHL1  H24B 3912   3.570   0.437   8.196  1.0653 -0.3267 -0.0689
   53CHL1   C25 3913   3.704   0.565   8.321  0.2921 -0.5351  0.3581
   53CHL1   H25 3914   3.757   0.660   8.298  1.4723 -1.3576 -0.4977
   53CHL1   C26 3915   3.612   0.562   8.439  0.2374  0.5297 -0.1828
   53CHL1  H26A 3916   3.516   0.613   8.416  1.2393  1.9629 -1.3663
   53CHL1  H26B 3917   3.604   0.456   8.472 -0.8742  0.7618  0.3755
   53CHL1  H26C 3918   3.650   0.608   8.533  2.3288 -1.5619  0.0823
   53CHL1   C27 3919   3.821   0.462   8.337  0.4324 -0.6071  0.2660
   53CHL1  H27A 3920   3.789   0.356   8.333 -0.9721 -0.2227  0.7091
   53CHL1  H27B 3921   3.893   0.465   8.253 -0.7145  1.6454 -0.7312
   53CHL1  H27C 3922   3.880   0.486   8.428 -1.2644  0.4095  1.1625
   54CHL1    C3 3923   4.378   1.628   6.755 -0.4596  0.3030  0.2904
   54CHL1    H3 3924   4.330   1.527   6.753 -0.5728  0.3540  0.3928
   54CHL1    O3 3925   4.428   1.668   6.625 -0.3287 -0.0608 -0.2988
   54CHL1   H3' 3926   4.496   1.734   6.642  1.5208 -1.1468 -2.7848
   54CHL1    C4 3927   4.269   1.713   6.810  0.3235  0.1904  0.4108
   54CHL1   H4A 3928   4.315   1.813   6.797  0.2722  0.5096  2.3675
   54CHL1   H4B 3929   4.176   1.711   6.748  0.1404 -2.5817  0.6708
   54CHL1    C5 3930   4.236   1.679   6.959  0.4437  0.4527  0.4090
   54CHL1    C6 3931   4.107   1.653   6.999 -0.2111 -0.0666 -0.1597
   54CHL1    H6 3932   4.025   1.653   6.925 -0.0295 -1.8470 -0.4160
   54CHL1    C7 3933   4.066   1.622   7.140 -0.1013  0.3973  0.3067
   54CHL1   H7A 3934   3.977   1.675   7.181 -0.8795 -0.9455  0.3807
   54CHL1   H7B 3935   4.029   1.518   7.150 -2.8360  1.3611  1.1349
   54CHL1    C8 3936   4.180   1.630   7.245 -0.5005  0.0046  0.4826
   54CHL1    H8 3937   4.184   1.736   7.278 -1.3148 -0.4013  1.9768
   54CHL1   C14 3938   4.151   1.552   7.372 -0.0582  0.0007  0.8449
   54CHL1   H14 3939   4.144   1.445   7.342 -2.3774  0.4412 -0.4441
   54CHL1   C15 3940   4.008   1.569   7.439 -0.4704  0.5360 -0.1813
   54CHL1  H15A 3941   3.974   1.674   7.446 -2.2847 -0.0038 -0.4482
   54CHL1  H15B 3942   3.928   1.516   7.384 -1.2772  1.6510 -0.1029
   54CHL1   C16 3943   4.032   1.525   7.585 -0.1526  0.2147 -0.3794
   54CHL1  H16A 3944   3.991   1.601   7.656 -2.0957  0.0706 -1.2782
   54CHL1  H16B 3945   3.977   1.429   7.593  0.3839 -0.2091 -1.6351
   54CHL1   C17 3946   4.182   1.488   7.596  0.0914  0.5149  0.0772
   54CHL1   H17 3947   4.185   1.383   7.560 -0.9187  1.2556 -2.3311
   54CHL1   C13 3948   4.252   1.565   7.485 -0.2242 -0.1631 -0.6946
   54CHL1   C18 3949   4.275   1.710   7.533 -0.3297  0.1751  0.2044
   54CHL1  H18A 3950   4.192   1.757   7.591  3.1013  3.3716  3.0389
   54CHL1  H18B 3951   4.363   1.722   7.599  2.0457 -1.6266 -2.4360
   54CHL1  H18C 3952   4.296   1.778   7.448  0.6146 -0.6050 -0.1994
   54CHL1   C12 3953   4.377   1.507   7.417  0.3963  0.6153  1.1434
   54CHL1  H12A 3954   4.456   1.504   7.495 -0.0679  1.5544  1.6800
   54CHL1  H12B 3955   4.349   1.402   7.395  1.0194  0.6762 -0.0211
   54CHL1   C11 3956   4.419   1.582   7.292 -0.7786 -0.1812 -1.0279
   54CHL1  H11A 3957   4.449   1.683   7.328  2.8596 -1.0281 -1.3028
   54CHL1  H11B 3958   4.520   1.543   7.266 -0.4510  0.9390 -1.5294
   54CHL1    C9 3959   4.308   1.586   7.186  0.4568  0.3807  0.3296
   54CHL1    H9 3960   4.298   1.478   7.161  0.6259 -0.2499  2.6998
   54CHL1   C10 3961   4.350   1.659   7.057  0.4529  0.5768 -0.1381
   54CHL1   C19 3962   4.399   1.806   7.085 -0.2396 -0.0833 -1.1920
   54CHL1  H19A 3963   4.441   1.850   6.992 -0.3987  0.1505 -1.1547
   54CHL1  H19B 3964   4.316   1.867   7.127  2.9244  1.8342  2.9077
   54CHL1  H19C 3965   4.478   1.789   7.160 -1.4178  0.9257  0.3389
   54CHL1    C1 3966   4.470   1.576   6.990  0.1992 -0.4684 -0.7253
   54CHL1   H1A 3967   4.559   1.600   7.052  0.5149 -0.2251 -1.2659
   54CHL1   H1B 3968   4.449   1.467   7.001 -0.2457 -0.4384 -1.2108
   54CHL1    C2 3969   4.499   1.630   6.847  0.3583  0.0771  0.3820
   54CHL1   H2A 3970   4.582   1.571   6.804  0.4267  0.5908 -0.2147
   54CHL1   H2B 3971   4.541   1.733   6.855  2.8487 -0.5987 -2.2048
   54CHL1   C20 3972   4.225   1.489   7.742  0.5599 -0.1348 -0.0660
   54CHL1   H20 3973   4.215   1.592   7.783  1.0818 -0.3628  0.6477
   54CHL1   C21 3974   4.367   1.454   7.743 -0.3283 -0.1436  0.2155
   54CHL1  H21A 3975   4.396   1.363   7.687  0.2897  0.7569 -0.9720
   54CHL1  H21B 3976   4.396   1.440   7.850  0.6674  1.5748  0.2097
   54CHL1  H21C 3977   4.432   1.542   7.724 -1.3959  0.3770 -1.2246
   54CHL1   C22 3978   4.143   1.393   7.829  0.0456  0.4678 -0.5354
   54CHL1  H22A 3979   4.034   1.400   7.813 -0.2335 -1.1372  0.4320
   54CHL1  H22B 3980   4.169   1.289   7.800 -2.5947 -0.3455 -0.2205
   54CHL1   C23 3981   4.168   1.410   7.981  0.0723 -0.5322 -0.1339
   54CHL1  H23A 3982   4.265   1.459   8.003  0.3663 -1.1234 -0.1110
   54CHL1  H23B 3983   4.090   1.484   8.009 -0.5476 -2.1527  2.8993
   54CHL1   C24 3984   4.154   1.288   8.078 -0.0493  0.0337  0.2158
   54CHL1  H24A 3985   4.053   1.245   8.064 -1.8348  2.7539  3.2670
   54CHL1  H24B 3986   4.223   1.206   8.050 -1.7202 -1.9457  1.6394
   54CHL1   C25 3987   4.166   1.314   8.235 -0.6173  0.5709 -0.1911
   54CHL1   H25 3988   4.139   1.217   8.282 -0.7284  1.8945  2.7087
   54CHL1   C26 3989   4.296   1.352   8.291  0.3132  0.1862 -0.5736
   54CHL1  H26A 3990   4.373   1.303   8.228 -0.0308  0.8969 -1.5574
   54CHL1  H26B 3991   4.310   1.461   8.279 -0.5908  0.2724 -0.9303
   54CHL1  H26C 3992   4.303   1.324   8.399  0.8371  1.8338 -0.1539
   54CHL1   C27 3993   4.051   1.410   8.273 -0.1529  0.0915 -0.7677
   54CHL1  H27A 3994   3.954   1.376   8.231 -0.5582  1.7205 -1.2053
   54CHL1  H27B 3995   4.056   1.410   8.384 -0.5077 -2.1512 -0.7076
   54CHL1  H27C 3996   4.070   1.513   8.237  1.4843  0.2412  0.4066
   55CHL1    C3 3997   1.531   3.517   6.758 -0.0713 -0.5644 -0.3211
   55CHL1    H3 3998   1.451   3.440   6.753 -1.3752  0.7354  0.0716
   55CHL1    O3 3999   1.560   3.555   6.625 -0.1492  0.0891  0.3008
   55CHL1   H3' 4000   1.640   3.505   6.607 -0.1805  0.0927  0.1472
   55CHL1    C4 4001   1.471   3.631   6.837 -0.3852 -0.1691 -0.6354
   55CHL1   H4A 4002   1.531   3.723   6.822  1.5520 -1.0546  1.2134
   55CHL1   H4B 4003   1.376   3.666   6.791 -0.0428 -0.2572 -1.4198
   55CHL1    C5 4004   1.454   3.607   6.986  0.5871 -0.2375  0.2381
   55CHL1    C6 4005   1.339   3.627   7.046  0.2192  0.3126  0.4826
   55CHL1    H6 4006   1.256   3.668   6.986  0.6716  0.8901  0.2318
   55CHL1    C7 4007   1.324   3.620   7.193 -0.3083  0.2193 -0.1155
   55CHL1   H7A 4008   1.270   3.706   7.239  0.4736  0.8722 -0.4060
   55CHL1   H7B 4009   1.253   3.539   7.223  0.3439 -0.8715 -1.4475
   55CHL1    C8 4010   1.457   3.598   7.277  0.2194  0.4270 -0.3050
   55CHL1    H8 4011   1.509   3.695   7.263  0.6917  0.2121 -0.0774
   55CHL1   C14 4012   1.435   3.551   7.419 -0.4279 -0.8468 -0.4451
   55CHL1   H14 4013   1.393   3.448   7.416 -1.2155 -0.7157  2.8267
   55CHL1   C15 4014   1.330   3.633   7.501 -0.3590 -0.8406 -0.3488
   55CHL1  H15A 4015   1.334   3.742   7.485 -0.0984 -0.8052 -0.0551
   55CHL1  H15B 4016   1.232   3.607   7.456  0.4392  1.4885 -3.7855
   55CHL1   C16 4017   1.363   3.601   7.650 -0.8321  0.2276 -0.3649
   55CHL1  H16A 4018   1.384   3.693   7.709 -1.3589 -1.3171  2.4000
   55CHL1  H16B 4019   1.279   3.560   7.710 -0.5902  0.3568  0.0630
   55CHL1   C17 4020   1.489   3.507   7.645  0.2245  0.2160  0.3428
   55CHL1   H17 4021   1.458   3.402   7.624 -0.8373  0.5464  0.1880
   55CHL1   C13 4022   1.560   3.545   7.502 -0.4172  0.6348  0.4322
   55CHL1   C18 4023   1.636   3.676   7.514  1.0554  0.2880  0.2393
   55CHL1  H18A 4024   1.678   3.719   7.421 -0.0293 -0.3106 -0.5517
   55CHL1  H18B 4025   1.572   3.746   7.573  0.6817  0.2712 -0.1370
   55CHL1  H18C 4026   1.720   3.653   7.583  0.6970  0.0078  0.5894
   55CHL1   C12 4027   1.642   3.430   7.435 -0.2649  0.2048  0.2202
   55CHL1  H12A 4028   1.743   3.421   7.482  0.6925  0.2507 -1.7132
   55CHL1  H12B 4029   1.583   3.335   7.437 -1.3114  0.8230 -0.4574
   55CHL1   C11 4030   1.669   3.467   7.281  0.7144 -0.2139 -0.2830
   55CHL1  H11A 4031   1.742   3.550   7.293  0.4785 -0.0187 -0.1736
   55CHL1  H11B 4032   1.730   3.385   7.238  0.0918 -0.3084 -1.0031
   55CHL1    C9 4033   1.544   3.496   7.199 -0.3831 -0.8642  0.7567
   55CHL1    H9 4034   1.488   3.401   7.186 -0.1605 -0.6950 -1.9564
   55CHL1   C10 4035   1.576   3.556   7.052  0.4587 -1.5528 -0.0894
   55CHL1   C19 4036   1.693   3.662   7.065  0.7371  0.1254  0.3445
   55CHL1  H19A 4037   1.688   3.743   7.141  1.3381  2.4563 -1.9311
   55CHL1  H19B 4038   1.784   3.603   7.087 -0.0065 -1.2283 -0.0852
   55CHL1  H19C 4039   1.705   3.723   6.973 -2.0437  1.5015  0.7858
   55CHL1    C1 4040   1.628   3.435   6.972  0.6063 -0.3597 -0.3488
   55CHL1   H1A 4041   1.722   3.404   7.023 -0.2588  1.5769  2.6288
   55CHL1   H1B 4042   1.565   3.346   6.994  0.6218 -0.7214 -1.6497
   55CHL1    C2 4043   1.651   3.451   6.824  0.2514 -0.2631  0.4850
   55CHL1   H2A 4044   1.668   3.354   6.773  1.2245  0.4753 -0.6510
   55CHL1   H2B 4045   1.742   3.512   6.804  0.1748  0.1268  1.2868
   55CHL1   C20 4046   1.572   3.508   7.770  0.3541 -0.2881  0.6274
   55CHL1   H20 4047   1.615   3.608   7.792 -1.3778  0.3214  1.5314
   55CHL1   C21 4048   1.675   3.392   7.765  0.1318  0.9717  0.1237
   55CHL1  H21A 4049   1.743   3.405   7.679  0.5514 -1.2438  0.0445
   55CHL1  H21B 4050   1.614   3.302   7.743  2.0115 -0.0119 -1.4232
   55CHL1  H21C 4051   1.717   3.374   7.867 -0.0643 -0.3393 -0.0114
   55CHL1   C22 4052   1.480   3.488   7.897  0.2488 -0.3162 -0.0321
   55CHL1  H22A 4053   1.550   3.513   7.980  2.0434 -1.2612 -1.2051
   55CHL1  H22B 4054   1.393   3.555   7.911  0.0371 -1.1054  3.6299
   55CHL1   C23 4055   1.409   3.352   7.923 -0.3464 -0.1435  0.7959
   55CHL1  H23A 4056   1.366   3.317   7.827 -0.6040  0.3467  0.7266
   55CHL1  H23B 4057   1.481   3.272   7.948 -2.7741 -3.6729 -2.3510
   55CHL1   C24 4058   1.300   3.360   8.030 -0.4676  0.1440  0.3426
   55CHL1  H24A 4059   1.332   3.412   8.122 -1.2186 -0.0471  0.7242
   55CHL1  H24B 4060   1.213   3.418   7.993 -0.3525  0.4004  0.4712
   55CHL1   C25 4061   1.257   3.220   8.079 -0.2291  0.0080  0.5700
   55CHL1   H25 4062   1.221   3.165   7.989  0.1784 -0.5247  0.7273
   55CHL1   C26 4063   1.372   3.139   8.153  0.4887 -0.0645 -0.4090
   55CHL1  H26A 4064   1.317   3.055   8.202  0.1585  1.2982  1.6554
   55CHL1  H26B 4065   1.450   3.103   8.082 -0.9831  0.0592 -2.1952
   55CHL1  H26C 4066   1.405   3.202   8.237 -1.6551  0.9710 -0.2635
   55CHL1   C27 4067   1.136   3.238   8.182 -0.2930 -0.5165 -0.3992
   55CHL1  H27A 4068   1.177   3.279   8.277 -0.8212  1.6569 -1.0582
   55CHL1  H27B 4069   1.065   3.312   8.141  0.9737  0.3102 -1.1677
   55CHL1  H27C 4070   1.087   3.142   8.211 -3.2555  0.6293 -1.2717
   56CHL1    C3 4071   1.165   1.576   6.805  0.7366 -0.3772 -0.7939
   56CHL1    H3 4072   1.059   1.576   6.838  0.7538  1.9820 -0.5715
   56CHL1    O3 4073   1.167   1.572   6.664 -0.6130  0.0381 -0.7262
   56CHL1   H3' 4074   1.259   1.593   6.646  0.1842  0.1221  2.7032
   56CHL1    C4 4075   1.237   1.694   6.874 -0.2323 -0.2228  0.3791
   56CHL1   H4A 4076   1.342   1.688   6.841 -0.6299  3.2274 -2.0059
   56CHL1   H4B 4077   1.200   1.791   6.836  1.9343  0.8285  0.8573
   56CHL1    C5 4078   1.225   1.676   7.022  0.0191  0.5112 -0.0385
   56CHL1    C6 4079   1.161   1.763   7.100 -0.2406  0.3401 -0.1718
   56CHL1    H6 4080   1.130   1.859   7.056 -0.6802  0.3588  0.1759
   56CHL1    C7 4081   1.168   1.775   7.249 -0.0673 -0.8700 -0.3289
   56CHL1   H7A 4082   1.194   1.876   7.288  1.3749 -0.3411 -2.4440
   56CHL1   H7B 4083   1.065   1.758   7.287  0.4417 -3.3226  0.1067
   56CHL1    C8 4084   1.261   1.666   7.311 -0.0234 -0.4923  0.0796
   56CHL1    H8 4085   1.363   1.707   7.294 -0.3379 -0.4534 -2.0473
   56CHL1   C14 4086   1.226   1.641   7.456  0.2549  0.1642 -0.1290
   56CHL1   H14 4087   1.115   1.627   7.452  0.0082  2.1016 -1.3720
   56CHL1   C15 4088   1.234   1.772   7.550  0.6100 -0.4488  0.1729
   56CHL1  H15A 4089   1.333   1.823   7.540 -1.5850  4.5988  1.3112
   56CHL1  H15B 4090   1.161   1.851   7.525  1.0216  0.4637  1.7107
   56CHL1   C16 4091   1.232   1.717   7.683 -0.7732  0.3432 -1.1721
   56CHL1  H16A 4092   1.328   1.750   7.729 -1.0463  1.1558 -1.1709
   56CHL1  H16B 4093   1.154   1.756   7.752 -0.8823  1.7049 -2.0361
   56CHL1   C17 4094   1.242   1.558   7.664 -0.3825  0.4043  0.6937
   56CHL1   H17 4095   1.134   1.536   7.655 -0.3795 -0.2301  2.0002
   56CHL1   C13 4096   1.302   1.533   7.521 -0.8850  1.0012 -0.2575
   56CHL1   C18 4097   1.457   1.557   7.540 -0.4572 -0.2162  0.3482
   56CHL1  H18A 4098   1.511   1.477   7.594  2.2133  0.6358 -0.8708
   56CHL1  H18B 4099   1.510   1.570   7.443 -1.5893  1.1658 -0.1255
   56CHL1  H18C 4100   1.474   1.659   7.581 -0.2047  1.3835 -3.3372
   56CHL1   C12 4101   1.291   1.403   7.454 -0.2062 -0.7374 -0.2437
   56CHL1  H12A 4102   1.351   1.324   7.501  1.0849  0.2415 -0.2030
   56CHL1  H12B 4103   1.182   1.379   7.454 -0.3602 -0.3430  2.7632
   56CHL1   C11 4104   1.329   1.418   7.304 -0.2814 -0.6965 -0.4918
   56CHL1  H11A 4105   1.438   1.439   7.304 -0.1665 -1.0940  1.5265
   56CHL1  H11B 4106   1.321   1.329   7.239 -0.1907  0.6403 -2.4363
   56CHL1    C9 4107   1.255   1.537   7.233  0.2501  0.1794 -0.0644
   56CHL1    H9 4108   1.146   1.521   7.228  0.1284  0.9721 -0.1227
   56CHL1   C10 4109   1.290   1.548   7.080 -0.2465  0.7535  0.8929
   56CHL1   C19 4110   1.438   1.535   7.049  0.1538  0.6163  0.4789
   56CHL1  H19A 4111   1.492   1.620   7.094 -0.0199  0.8870  0.1745
   56CHL1  H19B 4112   1.468   1.438   7.094 -1.6265  0.7576  2.1181
   56CHL1  H19C 4113   1.477   1.546   6.946 -0.9503  1.7938  0.1608
   56CHL1    C1 4114   1.224   1.428   7.003 -0.3312  0.5417 -0.5258
   56CHL1   H1A 4115   1.287   1.338   7.023 -1.2625 -0.2953 -1.2461
   56CHL1   H1B 4116   1.121   1.406   7.038  0.2077  2.2729  2.4694
   56CHL1    C2 4117   1.230   1.447   6.847 -0.1423  0.1251  0.2596
   56CHL1   H2A 4118   1.183   1.361   6.795  1.8204 -1.0410  0.3153
   56CHL1   H2B 4119   1.337   1.451   6.818 -0.4339 -0.2972 -0.9289
   56CHL1   C20 4120   1.290   1.477   7.795  0.5137  0.1549  0.4846
   56CHL1   H20 4121   1.400   1.478   7.777  0.4450 -1.7757 -0.3227
   56CHL1   C21 4122   1.235   1.335   7.784 -0.2882  0.4777 -0.0326
   56CHL1  H21A 4123   1.261   1.284   7.879  1.9666  1.9338  0.1994
   56CHL1  H21B 4124   1.283   1.276   7.703  0.9127 -2.2840  2.4847
   56CHL1  H21C 4125   1.125   1.334   7.766 -0.3386 -1.2746  0.1656
   56CHL1   C22 4126   1.259   1.552   7.927 -0.3102 -0.0468 -0.4313
   56CHL1  H22A 4127   1.332   1.635   7.938  0.3870 -0.6250 -0.6403
   56CHL1  H22B 4128   1.153   1.583   7.942 -0.0308  0.1573  1.3007
   56CHL1   C23 4129   1.279   1.467   8.060 -0.3439 -0.0678  0.6386
   56CHL1  H23A 4130   1.201   1.388   8.055 -0.1499 -0.3925  2.3089
   56CHL1  H23B 4131   1.377   1.414   8.054 -0.7570 -0.6939 -2.1946
   56CHL1   C24 4132   1.267   1.553   8.188  0.0558 -0.6845  0.6423
   56CHL1  H24A 4133   1.346   1.631   8.194 -0.9169  0.3381  0.4710
   56CHL1  H24B 4134   1.179   1.621   8.183  1.1456  0.9921  2.7738
   56CHL1   C25 4135   1.271   1.462   8.317  0.8045 -0.6599 -0.1861
   56CHL1   H25 4136   1.358   1.392   8.322 -0.9312 -2.8378  2.2445
   56CHL1   C26 4137   1.289   1.554   8.439  0.7823  0.2865 -0.5177
   56CHL1  H26A 4138   1.301   1.489   8.527  2.0025  1.1130 -0.0503
   56CHL1  H26B 4139   1.194   1.609   8.457 -0.5263 -2.4651  1.6992
   56CHL1  H26C 4140   1.376   1.621   8.421  0.8274  0.3156 -0.1891
   56CHL1   C27 4141   1.146   1.373   8.326  0.9185 -0.7316  0.2641
   56CHL1  H27A 4142   1.131   1.327   8.426 -0.9992  0.5139  0.6182
   56CHL1  H27B 4143   1.055   1.436   8.310  0.6390  0.1527  4.2374
   56CHL1  H27C 4144   1.153   1.293   8.250 -0.9782 -0.4583 -0.2669
   57SAPC     N 4145   0.964   6.029  10.894 -0.2812  0.0381 -0.3435
   57SAPC   C12 4146   0.874   6.064  10.775 -0.2791 -0.0603  0.1915
   57SAPC  H12A 4147   0.850   6.169  10.781 -1.7328 -0.3330 -0.3815
   57SAPC  H12B 4148   0.780   6.012  10.784  0.7452 -1.9808  0.4465
   57SAPC   C13 4149   1.005   5.888  10.895  0.6663  0.6529  0.3682
   57SAPC  H13A 4150   1.041   5.863  10.796 -0.4569 -1.2782  0.3926
   57SAPC  H13B 4151   1.087   5.865  10.962  0.1811  0.4017  0.8831
   57SAPC  H13C 4152   0.927   5.816  10.915  2.0684 -0.7673  0.9546
   57SAPC   C14 4153   1.094   6.105  10.883  0.6808  0.5114 -0.7621
   57SAPC  H14A 4154   1.176   6.065  10.941  0.6509 -0.6444 -1.4830
   57SAPC  H14B 4155   1.131   6.103  10.781  1.3770 -1.9317 -0.5131
   57SAPC  H14C 4156   1.084   6.206  10.919  0.9667  0.9633 -1.9113
   57SAPC   C15 4157   0.903   6.052  11.028 -0.1168  0.0178  0.4541
   57SAPC  H15A 4158   0.807   6.002  11.023  0.2916 -0.6811 -2.3271
   57SAPC  H15B 4159   0.961   6.005  11.106  1.4580  1.0275 -0.0693
   57SAPC  H15C 4160   0.882   6.155  11.053 -1.1574  0.4598 -1.9225
   57SAPC   C11 4161   0.923   6.035  10.633 -0.1492  0.0595 -0.1364
   57SAPC  H11A 4162   0.965   5.932  10.625  1.3417  0.4877  1.5489
   57SAPC  H11B 4163   1.007   6.104  10.611  0.3173 -0.5391 -0.2583
   57SAPC     P 4164   0.701   5.973  10.496 -0.0328 -0.5810  0.2577
   57SAPC   O13 4165   0.753   5.870  10.404  0.1697  0.0399 -0.2143
   57SAPC   O14 4166   0.637   5.925  10.623 -0.1998  0.0326 -0.3002
   57SAPC   O12 4167   0.821   6.070  10.535  0.4248 -0.4977 -0.6314
   57SAPC   O11 4168   0.606   6.076  10.417  0.1210  0.3709 -0.3061
   57SAPC    C1 4169   0.652   6.139  10.294  0.5217  0.7060 -0.3280
   57SAPC    HA 4170   0.649   6.248  10.315  2.2756  1.0916 -1.7755
   57SAPC    HB 4171   0.759   6.120  10.273  0.5350 -1.3155  1.2691
   57SAPC    C2 4172   0.564   6.117  10.163  0.0282 -0.5076 -0.1516
   57SAPC    HS 4173   0.463   6.143  10.201  0.4615 -1.9409  2.1676
   57SAPC   O21 4174   0.561   5.970  10.141  0.7197 -0.9010  0.1491
   57SAPC   C21 4175   0.459   5.928  10.069  0.6591 -0.7720  0.0206
   57SAPC   O22 4176   0.360   5.990  10.035 -0.3527  0.2512  0.1021
   57SAPC   C22 4177   0.494   5.783  10.042 -0.0962 -0.7141 -0.4926
   57SAPC   H2R 4178   0.603   5.789  10.022 -0.3624  1.3192 -1.6070
   57SAPC   H2S 4179   0.482   5.735  10.141 -0.8550  1.9977  0.8197
   57SAPC    C3 4180   0.603   6.208  10.046  0.0194 -0.1336 -0.7680
   57SAPC    HX 4181   0.712   6.192  10.033 -0.0047  0.4194 -1.7220
   57SAPC    HY 4182   0.587   6.316  10.065 -1.2154 -0.3972 -0.2455
   57SAPC   O31 4183   0.543   6.175   9.924  0.6268  0.4637  0.0138
   57SAPC   C31 4184   0.428   6.235   9.893 -0.2678 -0.2314  1.0580
   57SAPC   O32 4185   0.359   6.306   9.961  0.5537  0.6484  0.1689
   57SAPC   C32 4186   0.397   6.206   9.744  0.4307 -0.5503 -0.1195
   57SAPC   H2X 4187   0.330   6.117   9.741  0.2183 -0.4644  1.3580
   57SAPC   H2Y 4188   0.496   6.198   9.693  0.2001 -0.1901 -0.6256
   57SAPC   C23 4189   0.415   5.702   9.937 -0.2052 -0.1544 -0.0281
   57SAPC   H3R 4190   0.304   5.705   9.943 -0.2023 -1.6558  1.7902
   57SAPC   H3S 4191   0.439   5.595   9.957 -1.3309 -0.1808  1.3650
   57SAPC   C24 4192   0.448   5.743   9.797 -0.2365  0.1781  0.4186
   57SAPC   H4R 4193   0.557   5.728   9.782 -0.4840  1.1801 -3.2526
   57SAPC   H4S 4194   0.429   5.852   9.799 -1.3520 -0.0052  0.5756
   57SAPC   C25 4195   0.389   5.684   9.668 -0.3537 -0.0470 -0.3728
   57SAPC   H5R 4196   0.386   5.574   9.670 -0.6923 -0.1614 -3.2087
   57SAPC   C26 4197   0.350   5.751   9.557  0.4089  0.2121  0.1111
   57SAPC   H6R 4198   0.310   5.687   9.477 -1.1069  0.2412  0.8140
   57SAPC   C27 4199   0.347   5.899   9.528  0.0793  0.3272 -0.3845
   57SAPC   H7R 4200   0.391   5.964   9.607 -0.9111  2.3178 -1.3819
   57SAPC   H7S 4201   0.242   5.933   9.512 -0.2075  0.8841  2.2268
   57SAPC   C28 4202   0.439   5.918   9.402 -0.0734 -0.2553  0.5103
   57SAPC   H8R 4203   0.545   5.944   9.416 -0.3273  0.0074  2.1570
   57SAPC   C29 4204   0.399   5.901   9.276  0.7802 -0.7466  0.2684
   57SAPC   H9R 4205   0.478   5.907   9.199  1.8558 -0.5609  1.3594
   57SAPC  C210 4206   0.267   5.857   9.226  0.6091 -0.0300 -0.2299
   57SAPC  H10R 4207   0.233   5.778   9.296  1.0301  0.0613  0.0824
   57SAPC  H10S 4208   0.292   5.808   9.129 -0.8404  1.1273 -1.2316
   57SAPC  C211 4209   0.151   5.955   9.212 -0.0661 -0.4061 -0.0300
   57SAPC  H11R 4210   0.107   5.995   9.304  0.8049  1.0030 -0.2006
   57SAPC  C212 4211   0.088   5.984   9.093 -0.3389 -0.0725  0.1589
   57SAPC  H12R 4212   0.008   6.059   9.085  1.8807  2.8950  2.8271
   57SAPC  C213 4213   0.142   5.926   8.969  0.0534 -0.5733 -0.2244
   57SAPC  H13R 4214   0.157   5.817   8.987 -0.6422 -0.2843  2.6822
   57SAPC  H13S 4215   0.242   5.970   8.946 -0.8610  1.6103 -0.2819
   57SAPC  C214 4216   0.050   5.965   8.854  0.0898 -0.3651 -0.6974
   57SAPC  H14R 4217  -0.016   6.051   8.875  1.6371  0.8116 -0.4285
   57SAPC  C215 4218   0.050   5.936   8.723 -0.1399  0.0358  0.4381
   57SAPC  H15R 4219  -0.026   5.975   8.653  2.0686 -0.2215 -2.2758
   57SAPC  C216 4220   0.127   5.826   8.663  0.6631 -0.4548  0.1456
   57SAPC  H16R 4221   0.150   5.751   8.742 -0.0695  1.0164  1.8149
   57SAPC  H16S 4222   0.221   5.877   8.633 -0.2217  2.6005  2.0814
   57SAPC  C217 4223   0.052   5.759   8.549  0.2223  1.1898  0.5741
   57SAPC  H17R 4224   0.002   5.832   8.481 -0.2132 -0.9795 -1.6052
   57SAPC  H17S 4225  -0.025   5.689   8.588 -0.5803  0.8946 -1.3783
   57SAPC  C218 4226   0.139   5.672   8.463 -0.5183 -0.2389  0.3117
   57SAPC  H18R 4227   0.178   5.592   8.530 -0.1257  0.5234  1.0129
   57SAPC  H18S 4228   0.231   5.720   8.424 -1.2960  1.6249  0.6518
   57SAPC  C219 4229   0.058   5.611   8.348 -0.6717  0.1478 -0.0647
   57SAPC  H19R 4230   0.032   5.688   8.273  1.1873  0.4049 -0.5116
   57SAPC  H19S 4231  -0.040   5.574   8.384  0.0247 -3.1305 -1.1501
   57SAPC  C220 4232   0.126   5.494   8.287  0.3234  0.1246 -0.3894
   57SAPC  H20R 4233   0.077   5.463   8.193  0.6281 -3.4510  0.4547
   57SAPC  H20S 4234   0.126   5.406   8.356 -0.1600  1.2411  1.0957
   57SAPC  H20T 4235   0.227   5.518   8.247 -0.5511  1.0502 -2.1614
   57SAPC   C33 4236   0.312   6.321   9.679  0.2639  0.1745  0.4352
   57SAPC   H3X 4237   0.366   6.419   9.685  1.2017 -0.1924 -1.2740
   57SAPC   H3Y 4238   0.214   6.332   9.729  1.3963 -0.0051  2.8159
   57SAPC   C34 4239   0.286   6.292   9.529 -0.0433 -0.5035  0.5281
   57SAPC   H4X 4240   0.219   6.205   9.508 -0.3531  0.6217 -4.3677
   57SAPC   H4Y 4241   0.387   6.258   9.497 -0.3925 -3.2841  2.0385
   57SAPC   C35 4242   0.231   6.419   9.461  0.9442 -0.6898 -0.1253
   57SAPC   H5X 4243   0.301   6.504   9.474  0.0422  0.0942 -0.2476
   57SAPC   H5Y 4244   0.138   6.462   9.505  1.1980 -1.5085  1.2659
   57SAPC   C36 4245   0.205   6.396   9.312 -0.1554 -0.2272  0.1285
   57SAPC   H6X 4246   0.163   6.490   9.270 -3.0307 -1.1168  0.7973
   57SAPC   H6Y 4247   0.130   6.313   9.311  0.8311 -1.1357 -0.6155
   57SAPC   C37 4248   0.330   6.347   9.237 -0.3638 -0.4057 -0.9561
   57SAPC   H7X 4249   0.361   6.245   9.267  0.5172 -0.0504 -0.6194
   57SAPC   H7Y 4250   0.415   6.415   9.261 -0.6891  0.2875 -1.7486
   57SAPC   C38 4251   0.305   6.348   9.087  0.0244  0.6298 -0.5565
   57SAPC   H8X 4252   0.298   6.456   9.063  0.4110  1.5315  2.9150
   57SAPC   H8Y 4253   0.200   6.313   9.074 -0.1962  0.9361  0.3390
   57SAPC   C39 4254   0.401   6.271   8.998  0.2808 -0.0772  0.4720
   57SAPC   H9X 4255   0.418   6.171   9.043  0.7328 -0.4205 -0.4487
   57SAPC   H9Y 4256   0.495   6.330   9.004  0.9402 -0.8684 -1.2665
   57SAPC  C310 4257   0.361   6.259   8.853  0.6248 -0.6246 -0.2940
   57SAPC  H10X 4258   0.320   6.359   8.830  3.1695  0.1484 -1.8539
   57SAPC  H10Y 4259   0.280   6.184   8.838 -1.4183  0.8756  2.3051
   57SAPC  C311 4260   0.478   6.232   8.763  0.5632  0.3371 -0.0254
   57SAPC  H11X 4261   0.528   6.137   8.789  1.0244  0.1400 -1.5710
   57SAPC  H11Y 4262   0.549   6.317   8.775  0.5083  0.3709  0.0682
   57SAPC  C312 4263   0.442   6.236   8.613 -0.4435  0.4406  0.2788
   57SAPC  H12X 4264   0.346   6.186   8.590 -0.4290  0.0903  0.9565
   57SAPC  H12Y 4265   0.531   6.198   8.558 -2.2936 -1.0998 -1.7950
   57SAPC  C313 4266   0.421   6.383   8.564  0.1474  0.1863 -0.3098
   57SAPC  H13X 4267   0.502   6.448   8.604  0.1547 -1.4428  2.6065
   57SAPC  H13Y 4268   0.324   6.427   8.598 -0.0698 -0.7962  0.3922
   57SAPC  C314 4269   0.443   6.424   8.422 -0.1796 -0.3338  0.2635
   57SAPC  H14X 4270   0.495   6.344   8.365 -2.0865 -1.2263 -0.3076
   57SAPC  H14Y 4271   0.507   6.513   8.409  1.2963 -1.6969 -2.7405
   57SAPC  C315 4272   0.306   6.448   8.345  0.2674  0.2194 -0.1455
   57SAPC  H15X 4273   0.243   6.510   8.414  2.0996  1.8212  0.1957
   57SAPC  H15Y 4274   0.241   6.358   8.345 -2.2417  1.9100 -1.8778
   57SAPC  C316 4275   0.319   6.485   8.202  0.0618 -0.3874  0.2422
   57SAPC  H16X 4276   0.224   6.514   8.152  0.4144 -0.4386 -0.4832
   57SAPC  H16Y 4277   0.357   6.401   8.140  1.3428  1.2493 -1.2926
   57SAPC  C317 4278   0.395   6.620   8.180  0.3696 -0.0679  0.2028
   57SAPC  H17X 4279   0.495   6.606   8.226  0.3084  0.9933  0.7059
   57SAPC  H17Y 4280   0.342   6.698   8.239  3.6654  1.3990  1.4463
   57SAPC  C318 4281   0.404   6.670   8.034  0.4628 -0.2678 -0.5181
   57SAPC  H18X 4282   0.470   6.759   8.037  0.3846 -0.2130  2.2618
   57SAPC  H18Y 4283   0.300   6.697   8.002 -0.1222 -0.5306  1.0890
   57SAPC  H18Z 4284   0.451   6.591   7.972 -2.1079 -1.7451 -0.7161
   58SAPC     N 4285   5.236   2.482  10.852 -0.1864  0.6117  0.6486
   58SAPC   C12 4286   5.099   2.537  10.811 -0.2854  0.5396  0.2339
   58SAPC  H12A 4287   5.058   2.484  10.727  1.5257  2.6868 -2.1749
   58SAPC  H12B 4288   5.124   2.634  10.770 -1.7052  0.1881 -1.5879
   58SAPC   C13 4289   5.336   2.504  10.746 -0.4899 -0.5008 -0.3143
   58SAPC  H13A 4290   5.310   2.454  10.654 -1.6178  2.3565 -1.6627
   58SAPC  H13B 4291   5.344   2.609  10.723  0.3360 -0.3687  0.5248
   58SAPC  H13C 4292   5.425   2.451  10.778 -1.3081 -1.6371  0.1125
   58SAPC   C14 4293   5.296   2.546  10.968  1.1432 -0.4527 -0.6608
   58SAPC  H14A 4294   5.383   2.493  11.003  1.8446  1.8239  1.3100
   58SAPC  H14B 4295   5.312   2.649  10.939 -1.2475 -0.0003 -0.5920
   58SAPC  H14C 4296   5.232   2.547  11.055  1.0694 -0.6436 -0.7134
   58SAPC   C15 4297   5.220   2.332  10.873 -0.4859 -0.3405 -0.0522
   58SAPC  H15A 4298   5.136   2.330  10.942 -0.0663  3.0697  0.7659
   58SAPC  H15B 4299   5.185   2.276  10.788  1.9405  0.1367 -1.4566
   58SAPC  H15C 4300   5.310   2.287  10.910 -0.6725 -1.5393 -1.0211
   58SAPC   C11 4301   4.983   2.549  10.918 -0.1054  0.0261 -0.0798
   58SAPC  H11A 4302   4.892   2.592  10.870  0.7990  1.9447 -0.1505
   58SAPC  H11B 4303   5.012   2.625  10.994  0.8815 -1.2802  0.8895
   58SAPC     P 4304   4.846   2.321  10.906 -0.1715  0.5766 -0.0519
   58SAPC   O13 4305   4.908   2.189  10.922 -0.3290 -0.4852  0.2667
   58SAPC   O14 4306   4.705   2.341  10.954 -0.3516 -0.2463 -0.1360
   58SAPC   O12 4307   4.948   2.424  10.973  0.9465 -0.9021  0.1063
   58SAPC   O11 4308   4.853   2.359  10.755  0.3306 -0.0857  0.1917
   58SAPC    C1 4309   4.730   2.410  10.695 -0.2727  0.4499  0.8182
   58SAPC    HA 4310   4.654   2.331  10.714  0.9939 -1.1869 -0.6243
   58SAPC    HB 4311   4.687   2.497  10.749 -1.8469 -1.1717  2.3220
   58SAPC    C2 4312   4.740   2.447  10.543 -0.2838 -0.0027 -0.7256
   58SAPC    HS 4313   4.633   2.470  10.522 -1.0709  1.2011  3.5896
   58SAPC   O21 4314   4.793   2.331  10.474  0.0247 -0.2757  0.0571
   58SAPC   C21 4315   4.718   2.219  10.476 -0.1114 -0.1210  0.0220
   58SAPC   O22 4316   4.599   2.222  10.511 -0.1573 -0.2565 -0.6439
   58SAPC   C22 4317   4.795   2.101  10.423  0.5501  0.4276  0.1514
   58SAPC   H2R 4318   4.883   2.138  10.366  1.8419 -1.1433  1.0637
   58SAPC   H2S 4319   4.829   2.046  10.513  0.3327  1.0441  0.6220
   58SAPC    C3 4320   4.833   2.572  10.526 -0.4474 -0.8058 -0.4872
   58SAPC    HX 4321   4.941   2.550  10.543 -0.4192  1.1226  2.7846
   58SAPC    HY 4322   4.816   2.645  10.608 -1.2210  0.2690 -1.5646
   58SAPC   O31 4323   4.820   2.642  10.406 -0.4608 -0.1453 -0.5278
   58SAPC   C31 4324   4.711   2.701  10.387  0.5106  0.2712 -0.2918
   58SAPC   O32 4325   4.613   2.718  10.459  0.6240 -0.3952 -0.4616
   58SAPC   C32 4326   4.703   2.743  10.234  0.1896 -0.1197 -0.7929
   58SAPC   H2X 4327   4.731   2.648  10.184  1.9744 -0.1266  0.1257
   58SAPC   H2Y 4328   4.776   2.822  10.207 -0.4622  0.5208 -0.7047
   58SAPC   C23 4329   4.715   2.002  10.325  0.0876 -0.2270 -0.2425
   58SAPC   H3R 4330   4.646   1.947  10.392  1.5400 -0.5399  1.0537
   58SAPC   H3S 4331   4.775   1.923  10.275  0.7097  1.0173 -1.5315
   58SAPC   C24 4332   4.638   2.075  10.216 -0.0474 -0.3613  0.9330
   58SAPC   H4R 4333   4.697   2.151  10.160  0.8592 -1.5418  0.2406
   58SAPC   H4S 4334   4.554   2.139  10.253 -0.7987 -0.2021 -0.9367
   58SAPC   C25 4335   4.571   1.974  10.125  0.2697 -0.7916  0.0537
   58SAPC   H5R 4336   4.490   1.912  10.166 -1.3612  0.6997 -0.7884
   58SAPC   C26 4337   4.620   1.945  10.000  0.8943  0.5533  0.1622
   58SAPC   H6R 4338   4.563   1.875   9.937  0.1072  0.6652  0.7245
   58SAPC   C27 4339   4.736   1.999   9.925  0.4603 -0.4894  0.1717
   58SAPC   H7R 4340   4.778   2.090   9.974  1.6804 -2.1113  2.3288
   58SAPC   H7S 4341   4.713   2.027   9.820  1.4117 -1.7973 -0.4222
   58SAPC   C28 4342   4.852   1.896   9.922  0.2451 -0.5767 -1.1256
   58SAPC   H8R 4343   4.856   1.837  10.014  1.2860 -2.1831 -2.1361
   58SAPC   C29 4344   4.939   1.861   9.831 -0.0856 -0.5161  0.4416
   58SAPC   H9R 4345   5.012   1.782   9.856  0.6408  0.3744  1.2567
   58SAPC  C210 4346   4.944   1.902   9.684  0.0654 -0.0417 -0.8375
   58SAPC  H10R 4347   5.016   1.833   9.636  1.6870  1.2746 -0.4073
   58SAPC  H10S 4348   4.997   1.999   9.675  2.9171 -1.5358 -1.3768
   58SAPC  C211 4349   4.805   1.904   9.615  0.7178  0.3047  0.0099
   58SAPC  H11R 4350   4.723   1.868   9.679  0.5481  0.4687 -0.1147
   58SAPC  C212 4351   4.785   1.934   9.485  0.0842 -0.0101 -0.7036
   58SAPC  H12R 4352   4.685   1.919   9.443  0.1968 -1.2209 -0.5897
   58SAPC  C213 4353   4.880   1.975   9.373 -0.4456 -0.2755  0.4818
   58SAPC  H13R 4354   4.973   2.024   9.411 -0.7300  1.2784 -0.7104
   58SAPC  H13S 4355   4.831   2.057   9.315  1.0385 -1.2932 -2.4173
   58SAPC  C214 4356   4.925   1.853   9.297  0.2227 -0.1309  0.0411
   58SAPC  H14R 4357   4.997   1.783   9.344  1.0784 -0.3011 -1.4577
   58SAPC  C215 4358   4.880   1.794   9.188 -0.5135  0.0327 -0.3094
   58SAPC  H15R 4359   4.931   1.703   9.153 -1.5516  0.0589 -1.9805
   58SAPC  C216 4360   4.756   1.837   9.109 -0.3811  0.8856 -0.2701
   58SAPC  H16R 4361   4.684   1.898   9.167 -2.1682 -1.0308 -0.3348
   58SAPC  H16S 4362   4.696   1.748   9.079 -1.3653  1.5610 -0.3448
   58SAPC  C217 4363   4.804   1.925   8.996 -0.5255 -0.0037 -0.4860
   58SAPC  H17R 4364   4.892   1.882   8.943 -2.2159 -2.1944 -1.7051
   58SAPC  H17S 4365   4.832   2.022   9.041 -0.3734 -0.4523  0.4258
   58SAPC  C218 4366   4.707   1.966   8.886 -0.5421 -0.0071 -0.6854
   58SAPC  H18R 4367   4.695   1.870   8.831 -0.1971 -0.1591 -0.4971
   58SAPC  H18S 4368   4.764   2.037   8.823 -0.6022  0.7141  0.0600
   58SAPC  C219 4369   4.569   2.022   8.923 -0.0444 -0.5383  0.3596
   58SAPC  H19R 4370   4.568   2.112   8.989 -0.7594 -1.0778  1.1025
   58SAPC  H19S 4371   4.526   1.937   8.980  0.2700  0.3743  2.0226
   58SAPC  C220 4372   4.479   2.047   8.801  0.1618 -0.3822 -0.6434
   58SAPC  H20R 4373   4.504   2.151   8.771 -1.5116  1.0112  2.3318
   58SAPC  H20S 4374   4.370   2.050   8.819 -0.1772  1.2605 -2.5710
   58SAPC  H20T 4375   4.509   1.973   8.724  3.6993 -0.7181  0.8510
   58SAPC   C33 4376   4.564   2.779  10.186 -0.0936 -0.6369 -0.1290
   58SAPC   H3X 4377   4.534   2.864  10.250  1.0629 -0.9925  0.9153
   58SAPC   H3Y 4378   4.499   2.691  10.207  0.1327 -0.3850  1.7913
   58SAPC   C34 4379   4.548   2.827  10.038  0.9082  0.1323 -0.7394
   58SAPC   H4X 4380   4.603   2.924  10.039  0.9254  0.1280  0.4664
   58SAPC   H4Y 4381   4.445   2.850  10.005  0.9420  0.8986 -0.3427
   58SAPC   C35 4382   4.612   2.734   9.943  0.2817  0.8807  0.7752
   58SAPC   H5X 4383   4.566   2.633   9.941  1.9219  0.0748  1.7273
   58SAPC   H5Y 4384   4.716   2.708   9.974  0.4118 -0.1487 -0.4417
   58SAPC   C36 4385   4.621   2.802   9.805 -0.3141  0.6966  0.3204
   58SAPC   H6X 4386   4.679   2.897   9.799 -0.1907  0.6367  0.5549
   58SAPC   H6Y 4387   4.518   2.834   9.778 -0.6408  1.7729  2.5922
   58SAPC   C37 4388   4.678   2.701   9.707  0.0210  0.0526  0.0450
   58SAPC   H7X 4389   4.631   2.601   9.722  0.1812 -0.3706 -2.0618
   58SAPC   H7Y 4390   4.788   2.697   9.712  0.0602  1.8300  2.0864
   58SAPC   C38 4391   4.657   2.745   9.557  0.5368  0.2496 -0.3679
   58SAPC   H8X 4392   4.678   2.854   9.544 -0.3272  0.3089 -1.4389
   58SAPC   H8Y 4393   4.546   2.742   9.548  0.6943 -0.6571 -2.4170
   58SAPC   C39 4394   4.703   2.647   9.449 -0.0237 -0.0722  0.0863
   58SAPC   H9X 4395   4.700   2.545   9.493 -0.0136 -0.4549 -0.7817
   58SAPC   H9Y 4396   4.797   2.684   9.403 -0.2467  2.4476  1.4990
   58SAPC  C310 4397   4.608   2.651   9.323  0.0012  0.3264 -0.3847
   58SAPC  H10X 4398   4.616   2.753   9.280  0.5528 -0.0825 -1.3075
   58SAPC  H10Y 4399   4.508   2.623   9.361  1.6476 -0.6764  3.6396
   58SAPC  C311 4400   4.662   2.565   9.208 -0.3181  0.0646  0.1407
   58SAPC  H11X 4401   4.593   2.534   9.126  1.3215 -2.8694 -0.2511
   58SAPC  H11Y 4402   4.679   2.461   9.242  2.8881  0.7025  0.7785
   58SAPC  C312 4403   4.790   2.621   9.138 -0.2927 -0.0082  0.6376
   58SAPC  H12X 4404   4.867   2.631   9.218  3.2003 -0.3226 -2.4487
   58SAPC  H12Y 4405   4.769   2.728   9.119  0.0746  0.2692  1.7002
   58SAPC  C313 4406   4.849   2.546   9.021 -0.1946  0.6741 -0.4299
   58SAPC  H13X 4407   4.876   2.445   9.058 -0.3483 -0.4499 -3.1394
   58SAPC  H13Y 4408   4.945   2.586   8.981  0.4537  0.5880  0.9477
   58SAPC  C314 4409   4.760   2.539   8.895  1.0345 -0.8653  0.3327
   58SAPC  H14X 4410   4.651   2.527   8.911  0.3980  0.5578 -2.3144
   58SAPC  H14Y 4411   4.805   2.449   8.847  2.9084  0.4923 -0.5922
   58SAPC  C315 4412   4.801   2.660   8.808  0.0503 -0.5377 -0.3041
   58SAPC  H15X 4413   4.902   2.639   8.767 -0.0915  2.4883 -2.5595
   58SAPC  H15Y 4414   4.801   2.755   8.866  0.6274 -1.1146  0.6600
   58SAPC  C316 4415   4.705   2.694   8.693 -0.2154  0.5502 -0.1799
   58SAPC  H16X 4416   4.719   2.797   8.652 -0.2794  0.2879 -0.8837
   58SAPC  H16Y 4417   4.604   2.698   8.738 -1.1574  0.5049 -2.1738
   58SAPC  C317 4418   4.703   2.583   8.589  0.3093 -0.1631 -0.7304
   58SAPC  H17X 4419   4.627   2.619   8.516  0.2295 -0.4479 -0.7898
   58SAPC  H17Y 4420   4.655   2.493   8.634  2.2471 -1.0765 -0.3980
   58SAPC  C318 4421   4.830   2.536   8.519  0.2643 -0.3783  0.8227
   58SAPC  H18X 4422   4.891   2.471   8.585 -2.3165 -2.5206  1.2559
   58SAPC  H18Y 4423   4.897   2.619   8.488 -2.7112  1.9235  0.1775
   58SAPC  H18Z 4424   4.798   2.488   8.424  1.3314  0.8943 -0.2251
   59SAPC     N 4425   4.891   5.538  11.218 -0.0221  1.0783  0.1551
   59SAPC   C12 4426   4.887   5.675  11.172 -0.4834  0.0413 -0.3539
   59SAPC  H12A 4427   4.937   5.739  11.243  2.2371  0.2244 -2.2548
   59SAPC  H12B 4428   4.785   5.709  11.167 -1.9294 -3.7579 -0.2775
   59SAPC   C13 4429   4.847   5.433  11.115 -0.1226 -0.1108  0.2583
   59SAPC  H13A 4430   4.753   5.465  11.072  0.9498  1.2555 -1.2020
   59SAPC  H13B 4431   4.917   5.435  11.032 -2.2895 -0.4434 -1.6879
   59SAPC  H13C 4432   4.856   5.331  11.147 -0.4936 -0.2287 -0.0062
   59SAPC   C14 4433   5.034   5.496  11.246 -0.2925  0.1387  0.0228
   59SAPC  H14A 4434   5.094   5.492  11.156 -0.5969 -0.8819 -0.1436
   59SAPC  H14B 4435   5.079   5.568  11.313 -1.2810  0.7276  0.0807
   59SAPC  H14C 4436   5.034   5.392  11.273 -2.5720 -0.2604 -1.3081
   59SAPC   C15 4437   4.803   5.518  11.342 -0.5148 -0.2714  0.5274
   59SAPC  H15A 4438   4.714   5.577  11.328 -0.5550  0.6925  3.9615
   59SAPC  H15B 4439   4.778   5.413  11.350 -1.4706 -0.1951 -1.1220
   59SAPC  H15C 4440   4.849   5.565  11.428  1.9886  0.3514 -1.0599
   59SAPC   C11 4441   4.951   5.700  11.026  0.2515 -1.0126  0.8736
   59SAPC  H11A 4442   4.933   5.805  10.995  2.1850 -1.6777 -3.1695
   59SAPC  H11B 4443   4.900   5.634  10.953  2.1787 -0.4529 -1.1001
   59SAPC     P 4444   5.202   5.779  11.010 -0.5407  0.2238 -0.0663
   59SAPC   O13 4445   5.193   5.875  11.120  0.1449  0.4292 -0.3347
   59SAPC   O14 4446   5.330   5.713  10.978  0.3579  0.4703 -0.9929
   59SAPC   O12 4447   5.091   5.669  11.016 -0.2310 -0.2567 -0.4293
   59SAPC   O11 4448   5.158   5.852  10.878 -0.2617 -0.2643  0.0054
   59SAPC    C1 4449   5.108   5.793  10.764 -0.0181  1.0904 -0.0954
   59SAPC    HA 4450   5.085   5.687  10.787 -1.4026  1.7862  1.9872
   59SAPC    HB 4451   5.011   5.844  10.748 -0.7208 -0.6755 -1.7741
   59SAPC    C2 4452   5.196   5.800  10.639 -0.7873  0.3208  0.8496
   59SAPC    HS 4453   5.296   5.757  10.659 -0.8835 -0.9052 -1.0455
   59SAPC   O21 4454   5.209   5.933  10.603 -0.5209 -0.3479  0.0851
   59SAPC   C21 4455   5.310   5.975  10.536  0.7550 -0.4194 -0.6348
   59SAPC   O22 4456   5.397   5.901  10.496  0.4367 -0.9308 -1.5732
   59SAPC   C22 4457   5.293   6.130  10.510  0.0441  0.0128  0.3083
   59SAPC   H2R 4458   5.191   6.144  10.470  0.3528 -1.8728 -1.3388
   59SAPC   H2S 4459   5.292   6.176  10.611 -0.5917  1.5533 -0.3813
   59SAPC    C3 4460   5.135   5.705  10.524 -0.0380  0.0308 -0.4331
   59SAPC    HX 4461   5.150   5.600  10.555 -0.4151  0.2376  0.5103
   59SAPC    HY 4462   5.201   5.709  10.435  1.8161 -3.4313  0.6266
   59SAPC   O31 4463   4.990   5.732  10.503 -0.2740  0.2940 -0.0456
   59SAPC   C31 4464   4.976   5.832  10.409  0.1038  0.3387  0.1561
   59SAPC   O32 4465   5.060   5.905  10.371 -0.3743 -0.7703  0.4303
   59SAPC   C32 4466   4.826   5.836  10.370 -0.0296  0.0709  0.5596
   59SAPC   H2X 4467   4.773   5.891  10.451  2.2637  1.8155  1.0023
   59SAPC   H2Y 4468   4.794   5.731  10.355  1.4217 -0.2425 -0.6056
   59SAPC   C23 4469   5.398   6.193  10.414 -0.3181 -0.3892  0.0551
   59SAPC   H3R 4470   5.499   6.159  10.445 -0.0255  1.1698  0.8654
   59SAPC   H3S 4471   5.406   6.302  10.431 -0.3186 -0.4719  0.5989
   59SAPC   C24 4472   5.379   6.176  10.264 -0.2963 -0.6600  0.2135
   59SAPC   H4R 4473   5.466   6.225  10.215  0.0647 -0.4106  1.0826
   59SAPC   H4S 4474   5.286   6.228  10.233  0.5065  0.4874 -0.3095
   59SAPC   C25 4475   5.375   6.040  10.201  0.8822  0.7340  0.3750
   59SAPC   H5R 4476   5.412   5.967  10.273 -0.2867  1.6737  2.0140
   59SAPC   C26 4477   5.327   6.006  10.077  0.2018  0.5177 -0.2806
   59SAPC   H6R 4478   5.304   5.903  10.050 -2.4459  0.3132  2.2349
   59SAPC   C27 4479   5.272   6.103   9.973  0.2383  0.1987  0.4145
   59SAPC   H7R 4480   5.321   6.093   9.874 -1.6139  0.2060 -0.5597
   59SAPC   H7S 4481   5.285   6.208  10.005  1.9120  0.1437 -0.0360
   59SAPC   C28 4482   5.125   6.074   9.950 -0.1776  0.2140 -0.3586
   59SAPC   H8R 4483   5.082   6.015  10.032  1.0731  2.2879  1.9310
   59SAPC   C29 4484   5.048   6.131   9.854 -0.1679 -0.2241  0.2169
   59SAPC   H9R 4485   4.946   6.091   9.859  0.2915 -1.6274 -0.8548
   59SAPC  C210 4486   5.091   6.204   9.726  0.3861  0.7717 -0.7975
   59SAPC  H10R 4487   5.162   6.288   9.741 -1.1699  2.1988 -1.1406
   59SAPC  H10S 4488   5.009   6.248   9.666 -0.0710 -0.9274 -1.4832
   59SAPC  C211 4489   5.155   6.105   9.626 -0.1817 -0.3113 -0.2761
   59SAPC  H11R 4490   5.217   6.023   9.666  0.9047  0.4267 -0.3842
   59SAPC  C212 4491   5.124   6.096   9.497  0.6826  0.2464  0.1365
   59SAPC  H12R 4492   5.177   6.024   9.432 -1.8856 -1.3695 -0.3109
   59SAPC  C213 4493   5.038   6.182   9.414 -0.6296 -0.3868  0.6720
   59SAPC  H13R 4494   4.979   6.253   9.476  0.0431  0.1581  0.7041
   59SAPC  H13S 4495   4.959   6.118   9.370 -1.3888 -0.6847  2.4219
   59SAPC  C214 4496   5.121   6.238   9.300  0.4081 -0.8298  0.1146
   59SAPC  H14R 4497   5.206   6.306   9.318  1.2669 -1.7947 -0.1847
   59SAPC  C215 4498   5.089   6.225   9.165 -0.1117 -0.0367  0.2112
   59SAPC  H15R 4499   5.156   6.274   9.092  0.3236  0.4017  0.8815
   59SAPC  C216 4500   4.976   6.145   9.102 -0.0365 -0.6266 -0.3103
   59SAPC  H16R 4501   4.890   6.177   9.165  0.6740  1.4360 -0.2810
   59SAPC  H16S 4502   4.996   6.036   9.099  2.3551 -0.2187 -1.9309
   59SAPC  C217 4503   4.927   6.203   8.969 -0.4366 -0.0282  0.2598
   59SAPC  H17R 4504   4.937   6.314   8.969  2.1516 -0.0429  4.1265
   59SAPC  H17S 4505   4.827   6.159   8.951  0.4141 -1.1983 -2.1692
   59SAPC  C218 4506   5.007   6.159   8.842 -0.5048  0.0796 -0.6279
   59SAPC  H18R 4507   5.003   6.048   8.838  0.6725  0.0195 -0.5620
   59SAPC  H18S 4508   5.112   6.193   8.851 -0.3366 -0.6764  0.4623
   59SAPC  C219 4509   4.934   6.233   8.730 -0.6741 -0.2260  0.2588
   59SAPC  H19R 4510   4.931   6.343   8.745  3.3983  0.1419 -0.6734
   59SAPC  H19S 4511   4.832   6.190   8.719 -0.2395 -1.2327  0.0850
   59SAPC  C220 4512   5.003   6.207   8.591 -0.6813  0.6683 -0.2281
   59SAPC  H20R 4513   4.950   6.252   8.505 -1.7144  0.0603  0.0827
   59SAPC  H20S 4514   5.005   6.099   8.567  1.2611  0.4408  0.7259
   59SAPC  H20T 4515   5.109   6.241   8.598 -1.0796  1.9214  0.0060
   59SAPC   C33 4516   4.805   5.897  10.230  0.3037 -0.1867  0.2481
   59SAPC   H3X 4517   4.868   5.856  10.149  2.1269 -0.2950  1.6644
   59SAPC   H3Y 4518   4.838   6.003  10.237 -0.6353  0.0960  0.5965
   59SAPC   C34 4519   4.658   5.881  10.194 -0.2666 -0.8581  0.5465
   59SAPC   H4X 4520   4.592   5.936  10.265 -1.3811 -1.1733 -0.2213
   59SAPC   H4Y 4521   4.633   5.776  10.166 -2.2128  0.3056 -2.4661
   59SAPC   C35 4522   4.627   5.941  10.051 -0.4410  0.0209  0.9950
   59SAPC   H5X 4523   4.522   5.913  10.031  0.2559 -1.8882 -0.3038
   59SAPC   H5Y 4524   4.685   5.895   9.969 -3.8712 -1.9110 -0.5559
   59SAPC   C36 4525   4.654   6.092  10.062  0.3638  0.7093 -0.4634
   59SAPC   H6X 4526   4.765   6.097  10.071  0.3549  0.3456 -0.0898
   59SAPC   H6Y 4527   4.611   6.128  10.157  1.1771 -2.1400  1.1232
   59SAPC   C37 4528   4.602   6.183   9.938  0.4170 -0.1779  0.5660
   59SAPC   H7X 4529   4.657   6.280   9.946  0.6219 -0.4003  2.2486
   59SAPC   H7Y 4530   4.495   6.208   9.948  0.1709  0.2738 -2.2608
   59SAPC   C38 4531   4.627   6.122   9.797 -0.5330  0.2743 -0.1653
   59SAPC   H8X 4532   4.552   6.043   9.777 -2.2060  1.4742  1.0578
   59SAPC   H8Y 4533   4.730   6.085   9.778 -1.1018 -1.1879 -0.5276
   59SAPC   C39 4534   4.594   6.222   9.689 -0.2248  0.2342 -0.3305
   59SAPC   H9X 4535   4.629   6.324   9.717 -3.0867  2.4171 -3.8158
   59SAPC   H9Y 4536   4.484   6.224   9.679 -0.1223 -1.2757 -2.5576
   59SAPC  C310 4537   4.638   6.195   9.544 -0.8391  0.1609 -0.1092
   59SAPC  H10X 4538   4.595   6.098   9.513 -0.6559  0.4348 -1.2783
   59SAPC  H10Y 4539   4.748   6.178   9.541 -0.2260  3.4930 -1.2478
   59SAPC  C311 4540   4.598   6.315   9.452  0.1878  0.0614  0.3863
   59SAPC  H11X 4541   4.643   6.411   9.484  0.8972 -0.1581  0.0856
   59SAPC  H11Y 4542   4.487   6.316   9.450  0.1528  1.7739  1.3039
   59SAPC  C312 4543   4.619   6.290   9.300 -0.2261 -0.1369  0.7867
   59SAPC  H12X 4544   4.722   6.254   9.280  0.2485  2.7446 -3.1742
   59SAPC  H12Y 4545   4.611   6.386   9.245  1.2637 -0.8802 -0.8309
   59SAPC  C313 4546   4.517   6.190   9.252 -0.9443 -1.1275 -0.5592
   59SAPC  H13X 4547   4.421   6.246   9.251  0.4243  1.6028  2.1629
   59SAPC  H13Y 4548   4.501   6.101   9.317 -3.5881  0.6845  1.5385
   59SAPC  C314 4549   4.539   6.137   9.108  0.9567  0.8257  0.0136
   59SAPC  H14X 4550   4.621   6.062   9.114  0.3164  0.1140  0.1152
   59SAPC  H14Y 4551   4.572   6.214   9.036 -1.9016  1.5817 -0.6330
   59SAPC  C315 4552   4.408   6.070   9.056  0.4187  0.0036 -0.1334
   59SAPC  H15X 4553   4.317   6.129   9.081 -0.6099 -1.4367 -0.3733
   59SAPC  H15Y 4554   4.394   5.976   9.113  0.2883 -0.2859 -0.6429
   59SAPC  C316 4555   4.397   6.038   8.901 -1.1248 -0.3727  0.0921
   59SAPC  H16X 4556   4.303   5.981   8.881 -1.2780  0.0574 -0.4377
   59SAPC  H16Y 4557   4.488   5.982   8.870  0.8194  2.1017  0.9954
   59SAPC  C317 4558   4.422   6.166   8.821 -0.7689 -0.6284  0.1270
   59SAPC  H17X 4559   4.417   6.137   8.713 -0.9567  0.2498 -0.1099
   59SAPC  H17Y 4560   4.526   6.203   8.828  0.4696 -3.9736  1.7506
   59SAPC  C318 4561   4.314   6.270   8.836 -0.1500  0.3275  0.9064
   59SAPC  H18X 4562   4.285   6.295   8.941  0.2961  2.2403  0.6028
   59SAPC  H18Y 4563   4.226   6.220   8.790 -1.3867  1.6908  1.7293
   59SAPC  H18Z 4564   4.337   6.355   8.770 -0.0043 -2.2261 -2.6141
   60SAPC     N 4565   0.253   3.431  10.332 -0.1187  0.3346  0.2804
   60SAPC   C12 4566   0.284   3.384  10.462 -0.2769  0.0952  0.0900
   60SAPC  H12A 4567   0.248   3.453  10.537  0.0742 -0.0984  0.4398
   60SAPC  H12B 4568   0.389   3.400  10.484 -0.3973  0.8166  0.1844
   60SAPC   C13 4569   0.105   3.426  10.308 -0.2608 -0.1261 -0.0303
   60SAPC  H13A 4570   0.072   3.325  10.326  1.3687 -0.5863  0.5693
   60SAPC  H13B 4571   0.055   3.487  10.382  0.5904  0.7851 -0.1792
   60SAPC  H13C 4572   0.075   3.460  10.210  0.7604  0.9693  0.0114
   60SAPC   C14 4573   0.300   3.571  10.309 -0.0046 -0.4118 -0.1805
   60SAPC  H14A 4574   0.408   3.581  10.311 -0.0996  0.6363  0.5018
   60SAPC  H14B 4575   0.268   3.608  10.213  0.5829  2.3292  0.5752
   60SAPC  H14C 4576   0.258   3.643  10.378 -1.7199 -0.3962 -1.1816
   60SAPC   C15 4577   0.316   3.348  10.218 -0.0956  0.3987 -0.5309
   60SAPC  H15A 4578   0.258   3.353  10.127 -1.4546  0.3115  0.3150
   60SAPC  H15B 4579   0.421   3.371  10.204  0.1073  0.1500  0.5584
   60SAPC  H15C 4580   0.323   3.249  10.258  0.5109  0.8031  0.3894
   60SAPC   C11 4581   0.238   3.242  10.508 -1.0796 -0.4791  0.0966
   60SAPC  H11A 4582   0.130   3.237  10.483 -1.4691 -0.4573  1.6677
   60SAPC  H11B 4583   0.247   3.234  10.619  0.2421  0.4159  0.0719
   60SAPC     P 4584   0.281   3.000  10.424  0.1212  0.2237  0.1629
   60SAPC   O13 4585   0.378   2.903  10.489 -0.1591 -0.0919 -0.2949
   60SAPC   O14 4586   0.137   2.979  10.467 -0.6273  0.1678  0.4777
   60SAPC   O12 4587   0.336   3.147  10.456  0.0430  0.2483 -0.6190
   60SAPC   O11 4588   0.298   2.988  10.260  0.3101  0.3118 -0.0903
   60SAPC    C1 4589   0.425   2.941  10.212 -0.3586  0.3771  0.0565
   60SAPC    HA 4590   0.495   3.027  10.221  0.0522 -0.0939  1.5410
   60SAPC    HB 4591   0.471   2.857  10.268  0.7593 -0.5315 -2.0908
   60SAPC    C2 4592   0.427   2.883  10.059  0.4654 -0.2034 -0.6446
   60SAPC    HS 4593   0.400   2.964   9.988 -1.3885  1.2106  1.5165
   60SAPC   O21 4594   0.336   2.769  10.046  0.1826  0.3732  0.3860
   60SAPC   C21 4595   0.262   2.769   9.937  0.5522  0.2284  0.7316
   60SAPC   O22 4596   0.271   2.853   9.845  0.0274  0.5074  0.1527
   60SAPC   C22 4597   0.168   2.641   9.933 -0.1029 -1.2794 -0.8510
   60SAPC   H2R 4598   0.073   2.682   9.975  2.1006  2.3163  1.1152
   60SAPC   H2S 4599   0.154   2.609   9.827  0.5712 -0.4682 -1.1929
   60SAPC    C3 4600   0.569   2.831  10.010 -0.2441 -0.3877 -0.7098
   60SAPC    HX 4601   0.597   2.734  10.057  0.5657  0.5267  0.7823
   60SAPC    HY 4602   0.631   2.910  10.059 -0.0020 -1.3767  0.6326
   60SAPC   O31 4603   0.575   2.831   9.865  0.2392  0.6996  0.5870
   60SAPC   C31 4604   0.685   2.809   9.809  0.3541 -0.0287 -0.0608
   60SAPC   O32 4605   0.787   2.769   9.866 -0.0720  0.2336 -0.3808
   60SAPC   C32 4606   0.681   2.837   9.657 -0.1109  0.0833 -0.5661
   60SAPC   H2X 4607   0.721   2.940   9.643  0.8920 -0.1732  0.3538
   60SAPC   H2Y 4608   0.576   2.839   9.622  0.0663  0.0616 -1.1079
   60SAPC   C23 4609   0.212   2.526  10.032 -0.2981 -0.2715  0.1357
   60SAPC   H3R 4610   0.135   2.447  10.046  1.2921 -2.3814 -2.1631
   60SAPC   H3S 4611   0.226   2.565  10.135 -3.2996 -1.8983  1.2870
   60SAPC   C24 4612   0.339   2.451   9.980  0.2314 -0.0516 -0.3598
   60SAPC   H4R 4613   0.365   2.384  10.065  0.4994  1.8928  1.1827
   60SAPC   H4S 4614   0.414   2.533   9.973  0.5952 -0.5592 -3.3458
   60SAPC   C25 4615   0.327   2.372   9.853  0.0922  0.2958  0.2218
   60SAPC   H5R 4616   0.269   2.279   9.865  1.6631 -0.4354  2.8101
   60SAPC   C26 4617   0.371   2.401   9.731 -0.7908  0.0942  0.2309
   60SAPC   H6R 4618   0.357   2.338   9.642 -2.4125  0.0633  0.4673
   60SAPC   C27 4619   0.440   2.525   9.696  0.0820 -0.4869  1.2347
   60SAPC   H7R 4620   0.536   2.499   9.647  0.7417  3.6327 -0.0421
   60SAPC   H7S 4621   0.479   2.576   9.787  0.8620 -0.1678  0.7262
   60SAPC   C28 4622   0.365   2.621   9.610  0.0667 -0.9081  0.4206
   60SAPC   H8R 4623   0.327   2.714   9.655  0.1964 -0.8082  0.3267
   60SAPC   C29 4624   0.346   2.601   9.475 -0.1763 -0.4097 -0.2334
   60SAPC   H9R 4625   0.282   2.674   9.423 -0.8093  0.3184  1.4801
   60SAPC  C210 4626   0.375   2.484   9.384  0.1391  0.6421 -0.0202
   60SAPC  H10R 4627   0.412   2.405   9.452 -2.6103  0.2382  1.1346
   60SAPC  H10S 4628   0.469   2.505   9.328 -0.4740 -1.8382 -2.1889
   60SAPC  C211 4629   0.253   2.450   9.297  0.0407  0.0765 -0.1746
   60SAPC  H11R 4630   0.163   2.436   9.358  1.1766  2.8927  2.4108
   60SAPC  C212 4631   0.251   2.425   9.164  0.1064 -0.6593 -0.2343
   60SAPC  H12R 4632   0.162   2.400   9.105 -0.3385 -1.0996  0.6006
   60SAPC  C213 4633   0.375   2.441   9.086  0.3651 -0.8817  0.2121
   60SAPC  H13R 4634   0.452   2.377   9.134 -0.2266 -1.4095  0.4764
   60SAPC  H13S 4635   0.427   2.539   9.087  0.3230 -0.7702 -2.1472
   60SAPC  C214 4636   0.374   2.375   8.948  0.1492 -0.6925 -0.3389
   60SAPC  H14R 4637   0.389   2.266   8.945  0.9412 -0.6901  1.7302
   60SAPC  C215 4638   0.346   2.447   8.837 -0.1245  0.0293 -0.0507
   60SAPC  H15R 4639   0.348   2.383   8.747  1.7592  0.7834 -0.5821
   60SAPC  C216 4640   0.308   2.586   8.822  0.0747 -0.3306  0.0593
   60SAPC  H16R 4641   0.351   2.631   8.730  0.5641  2.2205  1.4365
   60SAPC  H16S 4642   0.350   2.658   8.896  0.1053 -0.8930  0.5945
   60SAPC  C217 4643   0.157   2.589   8.833  0.4478 -0.7905  0.1289
   60SAPC  H17R 4644   0.123   2.589   8.939 -1.7091  0.5208 -0.4907
   60SAPC  H17S 4645   0.107   2.500   8.787 -1.6662  0.5935 -0.4090
   60SAPC  C218 4646   0.099   2.720   8.754 -0.3156  0.1399  0.0071
   60SAPC  H18R 4647   0.131   2.813   8.805 -0.0853 -1.9432  4.0671
   60SAPC  H18S 4648  -0.012   2.713   8.756 -0.3328  0.6229  1.8984
   60SAPC  C219 4649   0.137   2.718   8.605  0.1493  0.0026 -0.0304
   60SAPC  H19R 4650   0.129   2.614   8.566  1.9040 -0.7991  1.5635
   60SAPC  H19S 4651   0.245   2.739   8.587  0.2745  0.2096  0.8858
   60SAPC  C220 4652   0.054   2.809   8.513  0.4382 -0.4719 -0.2431
   60SAPC  H20R 4653  -0.025   2.748   8.463 -0.3518 -0.8216  1.3681
   60SAPC  H20S 4654   0.128   2.861   8.448  0.7900  1.1081  1.3253
   60SAPC  H20T 4655   0.004   2.891   8.569  1.5223 -0.4217  0.6870
   60SAPC   C33 4656   0.757   2.740   9.569 -0.9210 -0.3898  0.1620
   60SAPC   H3X 4657   0.702   2.643   9.568  1.0894 -1.5765 -0.4613
   60SAPC   H3Y 4658   0.862   2.725   9.601 -0.9420 -0.5586  0.1531
   60SAPC   C34 4659   0.764   2.794   9.428 -0.3594  1.0242 -0.0466
   60SAPC   H4X 4660   0.835   2.877   9.407 -0.4526  0.7787 -1.4558
   60SAPC   H4Y 4661   0.669   2.828   9.381 -1.1421 -1.0596 -0.0507
   60SAPC   C35 4662   0.819   2.696   9.328  0.0115  0.3455 -0.3421
   60SAPC   H5X 4663   0.784   2.594   9.357 -1.3074  0.9221  0.1966
   60SAPC   H5Y 4664   0.928   2.681   9.347  0.1066 -1.0066 -1.7659
   60SAPC   C36 4665   0.784   2.718   9.184 -0.2104 -0.1693  0.4786
   60SAPC   H6X 4666   0.819   2.818   9.151  0.3762  0.2358  2.1964
   60SAPC   H6Y 4667   0.675   2.703   9.165 -0.3344  1.9722 -0.8017
   60SAPC   C37 4668   0.847   2.607   9.087 -0.9353 -0.3179 -0.3509
   60SAPC   H7X 4669   0.878   2.520   9.149  0.1423  0.9432  0.9652
   60SAPC   H7Y 4670   0.943   2.654   9.055  0.1485 -0.8311  1.9394
   60SAPC   C38 4671   0.758   2.581   8.962 -0.4663 -0.0618  1.0294
   60SAPC   H8X 4672   0.655   2.562   8.997 -0.5801  1.5458  1.6727
   60SAPC   H8Y 4673   0.793   2.486   8.918 -0.5033  0.1485  0.5322
   60SAPC   C39 4674   0.765   2.706   8.869 -0.5778 -0.6374 -0.1378
   60SAPC   H9X 4675   0.874   2.718   8.850 -0.7576 -0.6605 -1.2422
   60SAPC   H9Y 4676   0.733   2.799   8.920 -0.7286 -0.3541 -0.7477
   60SAPC  C310 4677   0.693   2.704   8.739 -0.7291 -0.8364 -0.0245
   60SAPC  H10X 4678   0.727   2.793   8.681  2.5767 -1.6804  0.4316
   60SAPC  H10Y 4679   0.588   2.722   8.769 -1.2163  0.2583 -2.1856
   60SAPC  C311 4680   0.709   2.578   8.656  0.1909  0.4001  0.7889
   60SAPC  H11X 4681   0.641   2.501   8.700  0.1195  1.3754  2.4730
   60SAPC  H11Y 4682   0.814   2.542   8.653 -0.4175 -1.5011 -1.7855
   60SAPC  C312 4683   0.659   2.598   8.513 -0.1349  0.4800  0.0870
   60SAPC  H12X 4684   0.725   2.670   8.461  0.9597  0.5798  1.5475
   60SAPC  H12Y 4685   0.562   2.652   8.513 -1.1499 -1.2516 -1.0888
   60SAPC  C313 4686   0.655   2.480   8.422  0.0145  0.3504  0.2986
   60SAPC  H13X 4687   0.608   2.520   8.329 -0.2221  0.9471  0.6634
   60SAPC  H13Y 4688   0.588   2.401   8.463 -0.0649  1.1506  1.8088
   60SAPC  C314 4689   0.798   2.408   8.405  0.4415  0.2668  0.3727
   60SAPC  H14X 4690   0.818   2.370   8.507 -3.3905 -0.3779  1.0461
   60SAPC  H14Y 4691   0.876   2.482   8.377 -0.9551  0.6919 -2.9306
   60SAPC  C315 4692   0.812   2.292   8.309 -0.9694 -0.2175  0.1796
   60SAPC  H15X 4693   0.729   2.221   8.328 -0.9462 -0.2451  0.1775
   60SAPC  H15Y 4694   0.905   2.233   8.321 -1.2438 -0.9242 -0.9959
   60SAPC  C316 4695   0.818   2.337   8.161  0.0470  0.3460 -0.6056
   60SAPC  H16X 4696   0.738   2.408   8.133 -0.8425 -0.6038 -0.5379
   60SAPC  H16Y 4697   0.813   2.243   8.102  1.2056 -1.4976  2.0364
   60SAPC  C317 4698   0.950   2.394   8.117 -0.0158  0.3027  0.0369
   60SAPC  H17X 4699   0.981   2.490   8.164  1.4108  0.0705 -0.3849
   60SAPC  H17Y 4700   0.929   2.420   8.011 -3.3828 -1.3280  0.1753
   60SAPC  C318 4701   1.071   2.300   8.127  0.4750 -0.3528  0.0683
   60SAPC  H18X 4702   1.161   2.336   8.074  0.4913  0.4075  0.6020
   60SAPC  H18Y 4703   1.048   2.206   8.073  1.5907  0.8040 -2.5727
   60SAPC  H18Z 4704   1.109   2.293   8.232  1.7878  0.7243 -0.3052
   61SAPC     N 4705   1.537   6.729  11.064  0.1903 -0.5806  0.1868
   61SAPC   C12 4706   1.549   6.648  10.930  0.0495 -0.1041 -0.2846
   61SAPC  H12A 4707   1.558   6.543  10.954 -3.8138 -1.1190 -2.3467
   61SAPC  H12B 4708   1.642   6.675  10.883  0.7513  1.7616  1.9643
   61SAPC   C13 4709   1.523   6.876  11.043  0.7033  0.7632  0.1634
   61SAPC  H13A 4710   1.603   6.913  10.980  1.1489 -0.4817 -0.0291
   61SAPC  H13B 4711   1.432   6.898  10.990  2.2780  0.4539 -2.9080
   61SAPC  H13C 4712   1.525   6.932  11.135  1.4583  1.3280 -0.1810
   61SAPC   C14 4713   1.421   6.681  11.138  0.1050 -0.4577  0.4710
   61SAPC  H14A 4714   1.441   6.587  11.186  0.2660 -0.7249 -0.1139
   61SAPC  H14B 4715   1.401   6.752  11.217 -0.0340 -0.4707  0.4482
   61SAPC  H14C 4716   1.329   6.665  11.085  0.4488 -0.9594  0.0200
   61SAPC   C15 4717   1.663   6.714  11.143 -0.0515  0.5530 -0.4103
   61SAPC  H15A 4718   1.655   6.756  11.243  1.5910 -0.0996  0.0282
   61SAPC  H15B 4719   1.683   6.611  11.166 -1.6838  0.5834  1.4469
   61SAPC  H15C 4720   1.744   6.762  11.091  0.3461 -0.6168 -0.8938
   61SAPC   C11 4721   1.437   6.653  10.827 -0.0552 -0.8895  0.2738
   61SAPC  H11A 4722   1.462   6.625  10.723  0.2209 -0.3338  0.1883
   61SAPC  H11B 4723   1.397   6.757  10.820  1.7607  0.0498  2.5834
   61SAPC     P 4724   1.324   6.409  10.853  0.1384  0.3295  0.0432
   61SAPC   O13 4725   1.456   6.348  10.893  0.2697 -0.3036  0.1476
   61SAPC   O14 4726   1.208   6.366  10.937  0.3347 -0.1697  0.6537
   61SAPC   O12 4727   1.332   6.562  10.876  0.1205 -0.2183  0.7772
   61SAPC   O11 4728   1.302   6.401  10.703 -0.0103 -0.7340  0.2721
   61SAPC    C1 4729   1.182   6.435  10.637  0.5920 -0.3297  0.0485
   61SAPC    HA 4730   1.128   6.339  10.623  0.5656 -0.1764 -0.9228
   61SAPC    HB 4731   1.118   6.505  10.696  0.6993  0.6439 -0.9574
   61SAPC    C2 4732   1.205   6.487  10.490  0.1158  0.5356  0.0786
   61SAPC    HS 4733   1.104   6.492  10.446  0.1527 -1.3269 -0.3082
   61SAPC   O21 4734   1.285   6.388  10.416  0.0731 -0.5355  0.4947
   61SAPC   C21 4735   1.242   6.345  10.302 -0.3978 -0.0895 -0.2676
   61SAPC   O22 4736   1.132   6.355  10.250 -1.0624 -0.1827 -0.3237
   61SAPC   C22 4737   1.356   6.258  10.250  0.2260  0.1036  0.7618
   61SAPC   H2R 4738   1.450   6.309  10.221  0.9257 -1.7426 -0.4125
   61SAPC   H2S 4739   1.389   6.192  10.333 -1.2035  0.4119  1.6032
   61SAPC    C3 4740   1.271   6.630  10.471  0.3434  0.2229 -1.1123
   61SAPC    HX 4741   1.371   6.620  10.518 -0.6695  1.7137  1.5997
   61SAPC    HY 4742   1.211   6.706  10.526 -2.1298 -3.2093  1.3982
   61SAPC   O31 4743   1.282   6.657  10.332 -0.5483 -0.4563  0.6330
   61SAPC   C31 4744   1.176   6.706  10.273 -0.1728 -0.3842 -0.3258
   61SAPC   O32 4745   1.066   6.713  10.328  0.1965  0.3794  0.5408
   61SAPC   C32 4746   1.208   6.755  10.135 -0.5965  0.2277 -0.1072
   61SAPC   H2X 4747   1.278   6.687  10.082 -2.1735 -1.5093 -0.0607
   61SAPC   H2Y 4748   1.257   6.855  10.140  0.6968 -0.4350  1.5952
   61SAPC   C23 4749   1.308   6.155  10.142  0.3454  0.5905 -0.2873
   61SAPC   H3R 4750   1.292   6.207  10.045  1.0003 -0.9258 -1.2402
   61SAPC   H3S 4751   1.218   6.105  10.185 -0.5236  0.4637 -2.1470
   61SAPC   C24 4752   1.420   6.039  10.114  0.2606 -0.1658 -0.0593
   61SAPC   H4R 4753   1.369   5.963  10.052 -2.8154  0.2186  1.7971
   61SAPC   H4S 4754   1.433   5.996  10.216  1.4447  0.7753  0.2087
   61SAPC   C25 4755   1.549   6.100  10.052 -0.2132  0.3461  0.0705
   61SAPC   H5R 4756   1.620   6.160  10.111  2.3153 -1.0588 -1.3630
   61SAPC   C26 4757   1.578   6.094   9.917  0.8970  0.8003 -0.5330
   61SAPC   H6R 4758   1.661   6.159   9.884  1.0357  0.9072  0.0080
   61SAPC   C27 4759   1.491   6.020   9.819 -0.0263  0.0690 -0.0682
   61SAPC   H7R 4760   1.420   5.947   9.864 -0.3623  0.7381  0.5070
   61SAPC   H7S 4761   1.568   5.953   9.775  0.6265 -1.3477  3.0071
   61SAPC   C28 4762   1.405   6.100   9.720 -0.7365  0.7831 -0.1764
   61SAPC   H8R 4763   1.324   6.140   9.783  0.3932  0.7635  1.3588
   61SAPC   C29 4764   1.420   6.118   9.587 -0.4503 -0.0908  0.4906
   61SAPC   H9R 4765   1.342   6.179   9.539 -0.2710 -0.0181  0.2908
   61SAPC  C210 4766   1.544   6.068   9.513 -0.3452  0.0458  0.4675
   61SAPC  H10R 4767   1.517   5.979   9.452  1.6291 -0.6414  0.5475
   61SAPC  H10S 4768   1.624   6.034   9.582  0.0286 -1.2897 -0.5749
   61SAPC  C211 4769   1.604   6.181   9.436 -0.0902  0.7959  1.0936
   61SAPC  H11R 4770   1.690   6.221   9.491  1.0829 -2.3311  1.7479
   61SAPC  C212 4771   1.551   6.241   9.328  0.0813  0.7145 -0.5854
   61SAPC  H12R 4772   1.616   6.314   9.278 -1.5487  1.6274 -1.4710
   61SAPC  C213 4773   1.422   6.188   9.262 -0.0657 -0.2568  0.2343
   61SAPC  H13R 4774   1.335   6.187   9.331 -0.1971  0.8501  0.0991
   61SAPC  H13S 4775   1.445   6.089   9.216 -0.6855  0.5261 -1.9230
   61SAPC  C214 4776   1.384   6.278   9.151  0.2861 -0.3636 -0.0401
   61SAPC  H14R 4777   1.327   6.367   9.180  0.4486 -0.2594 -0.0417
   61SAPC  C215 4778   1.431   6.274   9.028  0.6437  0.1038 -0.0016
   61SAPC  H15R 4779   1.390   6.351   8.960  0.6218  0.3500  0.2885
   61SAPC  C216 4780   1.522   6.173   8.971  0.0348 -0.1086 -1.2800
   61SAPC  H16R 4781   1.467   6.095   8.913  1.8962 -1.0265 -1.8832
   61SAPC  H16S 4782   1.585   6.130   9.052 -3.0607 -1.0775  0.8356
   61SAPC  C217 4783   1.615   6.243   8.871 -0.3063 -0.0417  0.1406
   61SAPC  H17R 4784   1.559   6.292   8.788  2.1836  0.6024 -1.2575
   61SAPC  H17S 4785   1.679   6.163   8.828  0.9457 -0.3141  2.3730
   61SAPC  C218 4786   1.707   6.360   8.912 -0.4411 -0.2884 -0.7568
   61SAPC  H18R 4787   1.805   6.338   8.865 -0.6221 -3.2027  0.0776
   61SAPC  H18S 4788   1.724   6.359   9.022  0.6772  2.2751 -0.8168
   61SAPC  C219 4789   1.664   6.500   8.884  0.3237  0.2451 -0.2161
   61SAPC  H19R 4790   1.570   6.541   8.927  0.4655  1.1659 -0.7627
   61SAPC  H19S 4791   1.661   6.512   8.774  1.6981  0.7161 -0.2187
   61SAPC  C220 4792   1.771   6.603   8.934  0.4179  0.4035  0.5370
   61SAPC  H20R 4793   1.768   6.614   9.044 -0.0051 -1.4251  0.7433
   61SAPC  H20S 4794   1.761   6.705   8.891 -0.0187  0.5580  0.9952
   61SAPC  H20T 4795   1.868   6.564   8.896 -0.0116 -0.4541  0.2879
   61SAPC   C33 4796   1.086   6.772  10.046 -0.1231 -0.1081  0.5132
   61SAPC   H3X 4797   1.033   6.869  10.048 -0.4885 -0.3016  0.2183
   61SAPC   H3Y 4798   1.015   6.688  10.057  0.8044 -0.9178  0.4881
   61SAPC   C34 4799   1.133   6.763   9.899 -0.4514  1.1031 -0.2709
   61SAPC   H4X 4800   1.206   6.679   9.893  1.3206  2.6728 -2.1115
   61SAPC   H4Y 4801   1.190   6.850   9.861 -0.8053  1.4178 -0.0792
   61SAPC   C35 4802   1.030   6.719   9.792 -0.7854 -0.3245 -0.1276
   61SAPC   H5X 4803   0.940   6.784   9.800  0.4375  1.5513 -0.8092
   61SAPC   H5Y 4804   1.015   6.610   9.807  3.0613 -0.7624  1.6360
   61SAPC   C36 4805   1.087   6.757   9.655  0.1162  0.5041 -0.2942
   61SAPC   H6X 4806   1.158   6.682   9.615  0.2115  0.2376  0.3672
   61SAPC   H6Y 4807   1.148   6.850   9.667  2.1862 -0.6095 -1.5797
   61SAPC   C37 4808   0.982   6.775   9.542 -0.3852 -0.3911  0.0090
   61SAPC   H7X 4809   0.904   6.845   9.577  1.4625  2.7084 -1.6052
   61SAPC   H7Y 4810   0.934   6.675   9.534 -0.1415 -0.5654  0.6401
   61SAPC   C38 4811   1.044   6.827   9.409 -0.0285  0.3166 -0.2811
   61SAPC   H8X 4812   1.126   6.762   9.371  2.1935  2.1536  1.1317
   61SAPC   H8Y 4813   1.089   6.926   9.431 -0.2146  0.2793  0.2846
   61SAPC   C39 4814   0.940   6.846   9.299  0.0229 -0.4793  0.9500
   61SAPC   H9X 4815   0.875   6.933   9.322 -0.9894 -1.5854  2.4652
   61SAPC   H9Y 4816   0.873   6.757   9.303  0.4883 -0.9458 -0.7223
   61SAPC  C310 4817   1.007   6.863   9.159  0.9555 -0.1180  0.2465
   61SAPC  H10X 4818   1.077   6.782   9.129 -0.6329 -0.2400 -3.7224
   61SAPC  H10Y 4819   1.066   6.958   9.155  0.5791  0.1006 -0.1660
   61SAPC  C311 4820   0.898   6.848   9.045 -0.6348  0.0111 -0.7437
   61SAPC  H11X 4821   0.808   6.911   9.063  0.4367  0.8131  2.6065
   61SAPC  H11Y 4822   0.863   6.743   9.036  2.5568 -1.3130  0.7504
   61SAPC  C312 4823   0.961   6.885   8.908  0.2671 -0.7573  0.4635
   61SAPC  H12X 4824   1.028   6.808   8.865  0.2992 -0.5429  0.1239
   61SAPC  H12Y 4825   1.033   6.968   8.925  0.7872 -1.2655  0.7915
   61SAPC  C313 4826   0.856   6.928   8.811  0.0542  0.0197  0.2125
   61SAPC  H13X 4827   0.915   6.967   8.726  1.4613 -1.9935  0.1920
   61SAPC  H13Y 4828   0.801   7.014   8.856 -0.5513 -0.6014  0.6925
   61SAPC  C314 4829   0.774   6.818   8.745 -0.9780  0.0190 -0.0450
   61SAPC  H14X 4830   0.706   6.765   8.815  0.3364 -0.9118  0.5717
   61SAPC  H14Y 4831   0.849   6.750   8.700 -0.1679  1.6054 -1.1866
   61SAPC  C315 4832   0.700   6.886   8.627  0.4335 -0.4134  0.2049
   61SAPC  H15X 4833   0.768   6.956   8.574  1.0196  1.7537  3.5395
   61SAPC  H15Y 4834   0.607   6.939   8.656  0.2567 -0.4529 -0.2854
   61SAPC  C316 4835   0.631   6.781   8.539  0.0089 -0.1348  0.5041
   61SAPC  H16X 4836   0.567   6.724   8.610 -0.4634 -1.4911 -0.9443
   61SAPC  H16Y 4837   0.706   6.713   8.494  0.0912 -0.5328  1.2261
   61SAPC  C317 4838   0.540   6.844   8.431 -0.1486 -0.3690  0.3520
   61SAPC  H17X 4839   0.481   6.923   8.483  0.6377 -1.0930  2.4389
   61SAPC  H17Y 4840   0.462   6.769   8.406 -2.0624  1.8559 -0.7834
   61SAPC  C318 4841   0.606   6.894   8.306  0.2733  0.0957 -0.2655
   61SAPC  H18X 4842   0.657   6.990   8.329 -0.1397 -0.4884  3.7497
   61SAPC  H18Y 4843   0.526   6.931   8.237 -0.1222  2.1542  1.1784
   61SAPC  H18Z 4844   0.662   6.817   8.250  0.3191  0.1942 -0.3552
   62SAPC     N 4845   0.105   0.214  11.095  0.0973 -0.0221 -0.4945
   62SAPC   C12 4846   0.144   0.197  10.949 -0.2632 -0.1985  0.2234
   62SAPC  H12A 4847   0.126   0.095  10.920 -0.8074 -0.2958  0.8871
   62SAPC  H12B 4848   0.250   0.217  10.948 -0.3310  0.1553 -0.0119
   62SAPC   C13 4849   0.162   0.096  11.172  0.3285  0.9748  0.2953
   62SAPC  H13A 4850   0.270   0.098  11.169  0.2910  1.4236 -1.9385
   62SAPC  H13B 4851   0.129   0.089  11.275  2.2014  0.5071  0.8974
   62SAPC  H13C 4852   0.132  -0.001  11.134  0.1908  0.7338  0.9917
   62SAPC   C14 4853   0.173   0.336  11.149  0.5787  0.3905 -0.6518
   62SAPC  H14A 4854   0.126   0.362  11.243  1.2424 -0.5725 -0.0379
   62SAPC  H14B 4855   0.277   0.320  11.171 -0.1453 -2.2354  1.4457
   62SAPC  H14C 4856   0.161   0.425  11.089  0.5927  1.6254  1.1055
   62SAPC   C15 4857  -0.041   0.213  11.110  0.2460  0.1031  0.5638
   62SAPC  H15A 4858  -0.085   0.277  11.035 -2.3183  0.5308  2.2813
   62SAPC  H15B 4859  -0.084   0.114  11.113  2.9299 -1.1997 -0.8874
   62SAPC  H15C 4860  -0.054   0.247  11.212  1.9433 -1.7788  1.4621
   62SAPC   C11 4861   0.071   0.280  10.842 -0.3455 -0.7718 -0.1094
   62SAPC  H11A 4862  -0.027   0.231  10.823 -0.6827 -0.4351  0.7401
   62SAPC  H11B 4863   0.125   0.258  10.748  0.4213 -1.0724  0.3957
   62SAPC     P 4864  -0.044   0.516  10.823  0.4471  0.1516 -0.4417
   62SAPC   O13 4865  -0.150   0.539  10.926 -0.7825 -0.2360  0.3843
   62SAPC   O14 4866   0.026   0.627  10.764  0.7348 -0.0485 -0.1097
   62SAPC   O12 4867   0.069   0.417  10.879  0.6707 -0.7364  0.5598
   62SAPC   O11 4868  -0.112   0.426  10.711 -0.2259 -0.5053  0.2570
   62SAPC    C1 4869  -0.079   0.430  10.575  0.5062  0.4130 -0.0867
   62SAPC    HA 4870  -0.077   0.533  10.535  2.9100  0.8939  1.0919
   62SAPC    HB 4871   0.024   0.392  10.563  0.5589  0.9968 -1.6839
   62SAPC    C2 4872  -0.170   0.337  10.483 -0.2106  0.3675 -0.1563
   62SAPC    HS 4873  -0.126   0.321  10.382 -2.3838  0.8964 -1.2536
   62SAPC   O21 4874  -0.298   0.411  10.470 -0.7098 -0.5185 -0.1583
   62SAPC   C21 4875  -0.304   0.468  10.345  0.3839 -0.7363  0.2833
   62SAPC   O22 4876  -0.204   0.508  10.280 -0.2728  0.6516 -0.0225
   62SAPC   C22 4877  -0.453   0.509  10.311 -0.7293  0.3278 -0.9738
   62SAPC   H2R 4878  -0.510   0.431  10.364 -0.8993  1.8292  1.1784
   62SAPC   H2S 4879  -0.466   0.602  10.369  0.2530 -0.9519  1.4271
   62SAPC    C3 4880  -0.185   0.193  10.551 -0.8838 -0.3756  0.4882
   62SAPC    HX 4881  -0.230   0.200  10.652 -0.4392 -0.3129  0.6831
   62SAPC    HY 4882  -0.081   0.160  10.567 -1.4189 -3.2069 -1.1488
   62SAPC   O31 4883  -0.270   0.116  10.463 -0.4452  0.2814 -0.1540
   62SAPC   C31 4884  -0.199   0.010  10.406  0.0905  0.0580  0.5601
   62SAPC   O32 4885  -0.106  -0.048  10.459 -0.0343 -0.1466 -0.4851
   62SAPC   C32 4886  -0.236  -0.013  10.258  0.0990  0.2968  0.4155
   62SAPC   H2X 4887  -0.217   0.083  10.205  0.4856 -0.0258 -0.0487
   62SAPC   H2Y 4888  -0.346  -0.028  10.256  0.1047  0.2543  0.4308
   62SAPC   C23 4889  -0.475   0.528  10.165  0.0705  0.4167 -0.1404
   62SAPC   H3R 4890  -0.424   0.450  10.105  1.8340  0.3842  1.3199
   62SAPC   H3S 4891  -0.428   0.622  10.130  0.4565  0.8200  1.3662
   62SAPC   C24 4892  -0.621   0.512  10.124 -0.6232 -0.1025  0.3612
   62SAPC   H4R 4893  -0.666   0.421  10.167 -0.8275 -0.6608 -0.9850
   62SAPC   H4S 4894  -0.631   0.490  10.015  1.8514  0.9913 -0.1593
   62SAPC   C25 4895  -0.684   0.638  10.169 -0.4319 -0.2132 -0.0750
   62SAPC   H5R 4896  -0.693   0.646  10.278 -2.6416  2.7937 -0.3592
   62SAPC   C26 4897  -0.728   0.738  10.088 -0.8681 -0.5832  0.2024
   62SAPC   H6R 4898  -0.790   0.816  10.134  1.5051  0.9140  1.0497
   62SAPC   C27 4899  -0.722   0.725   9.938  0.0648 -0.4770 -0.6531
   62SAPC   H7R 4900  -0.778   0.637   9.902 -1.4522  0.4244 -0.5644
   62SAPC   H7S 4901  -0.621   0.701   9.899  0.3486 -0.9914  0.3612
   62SAPC   C28 4902  -0.774   0.854   9.878  0.7567 -0.9234  0.3093
   62SAPC   H8R 4903  -0.846   0.907   9.942  0.5031 -2.2114  1.1163
   62SAPC   C29 4904  -0.735   0.895   9.755  0.2993 -0.0364  0.4116
   62SAPC   H9R 4905  -0.788   0.975   9.701  1.2152  0.0252 -0.4282
   62SAPC  C210 4906  -0.636   0.818   9.673 -0.2402  0.0405  0.3449
   62SAPC  H10R 4907  -0.646   0.710   9.698  1.3139 -0.5322 -1.2756
   62SAPC  H10S 4908  -0.536   0.839   9.716 -0.8838  0.7761  1.5431
   62SAPC  C211 4909  -0.644   0.851   9.527  0.4036 -0.7347 -0.4138
   62SAPC  H11R 4910  -0.618   0.956   9.508 -2.1320 -0.0701 -0.5119
   62SAPC  C212 4911  -0.680   0.767   9.426  0.3441  0.7426  1.1755
   62SAPC  H12R 4912  -0.678   0.800   9.321  1.5341  0.8593  1.2147
   62SAPC  C213 4913  -0.734   0.622   9.446  0.5118 -0.1983  0.1925
   62SAPC  H13R 4914  -0.678   0.588   9.536  1.2737  2.9248  1.0211
   62SAPC  H13S 4915  -0.712   0.552   9.363 -1.6031 -0.0946 -0.5147
   62SAPC  C214 4916  -0.884   0.618   9.476  0.0468  0.1975  0.0353
   62SAPC  H14R 4917  -0.905   0.673   9.569 -1.3048 -0.3501  0.0843
   62SAPC  C215 4918  -0.990   0.569   9.412 -0.0343  0.4528 -0.0355
   62SAPC  H15R 4919  -1.085   0.565   9.467  0.6492 -1.4076  1.0842
   62SAPC  C216 4920  -0.979   0.506   9.274  0.0357  0.3240  0.0194
   62SAPC  H16R 4921  -0.876   0.493   9.236  0.4061  0.9500  0.7874
   62SAPC  H16S 4922  -1.036   0.569   9.201 -0.3196  1.1395  0.9781
   62SAPC  C217 4923  -1.046   0.363   9.286  0.0753 -0.5504  0.4018
   62SAPC  H17R 4924  -1.076   0.334   9.183 -0.9432  0.6766  0.3301
   62SAPC  H17S 4925  -1.142   0.360   9.341 -0.5375 -1.0195 -0.6550
   62SAPC  C218 4926  -0.949   0.248   9.335  0.7449 -0.2898 -0.1306
   62SAPC  H18R 4927  -0.952   0.238   9.445 -0.5221  0.0936 -0.1188
   62SAPC  H18S 4928  -0.845   0.274   9.304  0.2177  1.9380 -0.1977
   62SAPC  C219 4929  -0.975   0.115   9.265  0.9262  0.2722 -0.3111
   62SAPC  H19R 4930  -0.906   0.037   9.303 -2.7765 -2.8432  0.6411
   62SAPC  H19S 4931  -0.966   0.124   9.154 -2.7212 -1.0966 -0.8436
   62SAPC  C220 4932  -1.111   0.059   9.287  0.2583  0.5701 -0.1053
   62SAPC  H20R 4933  -1.121  -0.028   9.219 -0.4454  0.2021  0.4504
   62SAPC  H20S 4934  -1.186   0.141   9.290 -0.1010  0.2534 -0.3677
   62SAPC  H20T 4935  -1.123   0.017   9.389  0.9826  2.9287  1.0343
   62SAPC   C33 4936  -0.149  -0.119  10.185 -0.2185 -0.2442 -0.2967
   62SAPC   H3X 4937  -0.155  -0.217  10.237  0.4693  1.5547  3.4666
   62SAPC   H3Y 4938  -0.044  -0.085  10.200  0.5612 -1.8067 -1.8034
   62SAPC   C34 4939  -0.183  -0.132  10.036 -0.1255  0.3403 -0.6301
   62SAPC   H4X 4940  -0.102  -0.191   9.988 -0.6520 -1.3205  0.4345
   62SAPC   H4Y 4941  -0.195  -0.032   9.990  0.5525  0.3531 -0.7906
   62SAPC   C35 4942  -0.321  -0.205  10.021 -0.6467  0.2541 -1.6404
   62SAPC   H5X 4943  -0.408  -0.150  10.062  1.5334  1.3582  1.9561
   62SAPC   H5Y 4944  -0.325  -0.303  10.072 -0.5215  0.5875 -0.9771
   62SAPC   C36 4945  -0.357  -0.241   9.878 -0.2491  0.1140 -0.6294
   62SAPC   H6X 4946  -0.447  -0.306   9.880  1.6228 -2.6915  1.4483
   62SAPC   H6Y 4947  -0.271  -0.294   9.832  0.6455  0.5894  0.4376
   62SAPC   C37 4948  -0.389  -0.112   9.798 -0.5154  0.0507 -0.5368
   62SAPC   H7X 4949  -0.305  -0.041   9.806 -0.6580  0.2498 -0.8014
   62SAPC   H7Y 4950  -0.472  -0.058   9.849 -1.4492 -1.5713 -0.2356
   62SAPC   C38 4951  -0.435  -0.147   9.659  0.3212 -0.4283  1.1355
   62SAPC   H8X 4952  -0.521  -0.217   9.660  1.4287 -1.8352  1.5588
   62SAPC   H8Y 4953  -0.353  -0.204   9.611  1.8532  1.0920  1.8398
   62SAPC   C39 4954  -0.484  -0.028   9.579  0.0831 -0.5502 -0.5323
   62SAPC   H9X 4955  -0.397   0.040   9.577 -0.3196  0.0837  1.4361
   62SAPC   H9Y 4956  -0.563   0.023   9.639 -0.7218 -1.4106 -0.8274
   62SAPC  C310 4957  -0.534  -0.071   9.445 -1.0573  0.4725  0.3249
   62SAPC  H10X 4958  -0.619  -0.143   9.455 -0.1986 -0.4391  1.3988
   62SAPC  H10Y 4959  -0.444  -0.120   9.404 -0.8524  0.7787  0.4048
   62SAPC  C311 4960  -0.566   0.047   9.354  0.7671 -0.3769 -0.0595
   62SAPC  H11X 4961  -0.484   0.120   9.366  0.4477 -0.2895  2.0517
   62SAPC  H11Y 4962  -0.656   0.098   9.395  0.2479 -0.5091 -1.0221
   62SAPC  C312 4963  -0.591   0.000   9.211 -0.2096 -0.1686  0.0582
   62SAPC  H12X 4964  -0.670  -0.078   9.212  0.4040 -0.7980  0.9041
   62SAPC  H12Y 4965  -0.497  -0.045   9.173 -1.7513 -2.3448 -1.4373
   62SAPC  C313 4966  -0.605   0.127   9.129 -0.5953 -0.6232  0.1732
   62SAPC  H13X 4967  -0.527   0.203   9.147 -0.6075 -0.9365  1.7597
   62SAPC  H13Y 4968  -0.694   0.177   9.174  1.1164  2.1355  0.7085
   62SAPC  C314 4969  -0.626   0.100   8.983 -0.0819 -0.3755 -0.6984
   62SAPC  H14X 4970  -0.545   0.032   8.949  1.1844 -0.0860  1.5148
   62SAPC  H14Y 4971  -0.629   0.195   8.926 -1.1994 -0.4914 -0.8629
   62SAPC  C315 4972  -0.760   0.028   8.948 -0.5748 -1.0106 -0.1957
   62SAPC  H15X 4973  -0.838   0.096   8.989 -1.4543 -2.7956  1.2506
   62SAPC  H15Y 4974  -0.779  -0.068   9.002  1.7308 -2.1601 -1.2827
   62SAPC  C316 4975  -0.785  -0.004   8.803 -0.1545  0.0008  0.3890
   62SAPC  H16X 4976  -0.714  -0.087   8.785  0.5749  0.6885  0.0269
   62SAPC  H16Y 4977  -0.752   0.081   8.739  1.1829 -0.7553  0.0584
   62SAPC  C317 4978  -0.933  -0.045   8.772  0.6545  0.1509  0.5274
   62SAPC  H17X 4979  -0.986   0.048   8.803  2.1225  1.1850  0.0241
   62SAPC  H17Y 4980  -0.966  -0.127   8.838 -1.0929  0.5200  0.1553
   62SAPC  C318 4981  -0.974  -0.104   8.633 -0.4232 -0.0709  0.7929
   62SAPC  H18X 4982  -0.922  -0.201   8.617  0.0175  0.6388 -3.0383
   62SAPC  H18Y 4983  -0.961  -0.035   8.547  3.0760  0.4576  1.6312
   62SAPC  H18Z 4984  -1.083  -0.126   8.643 -0.2216 -0.7438  1.6790
   63SAPC     N 4985   5.489   0.630   6.049 -0.3502 -0.1327 -0.0885
   63SAPC   C12 4986   5.432   0.529   6.139  0.3097  0.3757  0.2202
   63SAPC  H12A 4987   5.515   0.480   6.187  0.3269  2.8735  3.0986
   63SAPC  H12B 4988   5.383   0.454   6.080  1.4834  1.2512 -1.9819
   63SAPC   C13 4989   5.576   0.724   6.124 -0.7589 -0.5769 -0.2357
   63SAPC  H13A 4990   5.664   0.676   6.165 -0.6615  0.8629  1.3681
   63SAPC  H13B 4991   5.598   0.814   6.068 -0.2572 -0.6889 -0.2229
   63SAPC  H13C 4992   5.522   0.769   6.206  1.3812  2.2439 -0.2015
   63SAPC   C14 4993   5.568   0.562   5.944 -0.0825 -0.1943  0.5839
   63SAPC  H14A 4994   5.515   0.480   5.898  1.0116 -1.5511  1.6507
   63SAPC  H14B 4995   5.592   0.622   5.858 -0.9016  1.8433  1.7017
   63SAPC  H14C 4996   5.662   0.526   5.984  1.3541 -0.5809 -2.7910
   63SAPC   C15 4997   5.379   0.704   5.977  0.1767 -0.2571  0.3118
   63SAPC  H15A 4998   5.350   0.655   5.885 -2.0231 -1.6781  1.6609
   63SAPC  H15B 4999   5.293   0.724   6.039 -0.9920 -2.2035 -0.5534
   63SAPC  H15C 5000   5.405   0.805   5.950 -0.5800 -0.1739 -0.1142
   63SAPC   C11 5001   5.344   0.570   6.250  0.0178 -0.1315  0.0171
   63SAPC  H11A 5002   5.390   0.655   6.305  1.3652  0.1551 -1.4837
   63SAPC  H11B 5003   5.321   0.489   6.322 -1.2228 -2.3665 -2.6819
   63SAPC     P 5004   5.106   0.511   6.172  0.0021  0.1400  0.1639
   63SAPC   O13 5005   5.008   0.564   6.074  0.2074 -0.6708  0.1706
   63SAPC   O14 5006   5.168   0.384   6.132  0.3798 -0.2638  0.1342
   63SAPC   O12 5007   5.218   0.616   6.192  0.5823  0.2293  0.2097
   63SAPC   O11 5008   5.027   0.497   6.314 -0.4829 -0.3945  0.3183
   63SAPC    C1 5009   4.971   0.613   6.377 -0.5820 -0.4817  0.8757
   63SAPC    HA 5010   4.967   0.707   6.319  0.5542  0.2886  1.9916
   63SAPC    HB 5011   4.864   0.590   6.399 -1.2111  0.9881 -0.4410
   63SAPC    C2 5012   5.041   0.651   6.507 -0.2638 -0.1205 -0.4376
   63SAPC    HS 5013   5.147   0.625   6.485 -0.1561 -1.4284  1.4019
   63SAPC   O21 5014   5.013   0.555   6.611 -0.4227 -0.2600  0.2253
   63SAPC   C21 5015   5.108   0.545   6.700  0.6934  1.0503 -0.1525
   63SAPC   O22 5016   5.213   0.597   6.698  0.1813  0.2697  0.0994
   63SAPC   C22 5017   5.064   0.456   6.809 -0.1092  0.0003 -0.4118
   63SAPC   H2R 5018   4.997   0.380   6.763  1.0717  0.2846 -2.6938
   63SAPC   H2S 5019   5.152   0.414   6.863 -0.2542 -0.4652 -0.5291
   63SAPC    C3 5020   5.030   0.808   6.557  0.7486  0.0776 -0.0626
   63SAPC    HX 5021   4.922   0.835   6.561  0.8028  0.1914  0.8750
   63SAPC    HY 5022   5.063   0.868   6.470  2.9149  1.7881  1.8149
   63SAPC   O31 5023   5.099   0.850   6.677 -0.1967 -0.5172  0.0279
   63SAPC   C31 5024   5.211   0.914   6.657 -0.0917  0.2706  0.6461
   63SAPC   O32 5025   5.270   0.936   6.555  0.7196 -0.5025  0.6671
   63SAPC   C32 5026   5.257   0.983   6.788 -0.1830  0.5112  0.2678
   63SAPC   H2X 5027   5.353   1.034   6.767  0.0869  0.1398  0.6009
   63SAPC   H2Y 5028   5.276   0.909   6.868 -0.8793  0.2801  0.2257
   63SAPC   C23 5029   4.975   0.530   6.924 -0.7934  0.2300  0.1896
   63SAPC   H3R 5030   4.940   0.445   6.987 -0.6486 -1.0739 -1.4302
   63SAPC   H3S 5031   4.893   0.583   6.871 -0.1515 -0.2775 -1.3632
   63SAPC   C24 5032   5.060   0.629   7.014 -0.0063 -0.4682 -0.0289
   63SAPC   H4R 5033   5.086   0.720   6.956  0.9113  1.4287  3.0980
   63SAPC   H4S 5034   5.153   0.582   7.052  0.0303  2.4249  4.2114
   63SAPC   C25 5035   4.972   0.669   7.135  0.5455  0.0768  0.5695
   63SAPC   H5R 5036   4.917   0.764   7.129 -2.2503 -1.4500  0.3158
   63SAPC   C26 5037   4.966   0.600   7.254 -0.2634 -0.3442 -0.3280
   63SAPC   H6R 5038   4.897   0.626   7.336 -1.1488 -1.5621 -0.6672
   63SAPC   C27 5039   5.037   0.473   7.282 -0.2406  0.1422 -0.1583
   63SAPC   H7R 5040   5.141   0.477   7.321  0.3190 -0.4269 -1.5403
   63SAPC   H7S 5041   5.057   0.425   7.184  1.3395 -0.8349  0.6066
   63SAPC   C28 5042   4.954   0.376   7.365  1.1991 -0.2767  0.0853
   63SAPC   H8R 5043   4.865   0.341   7.311  0.6506  1.0447  0.1120
   63SAPC   C29 5044   4.977   0.336   7.493 -1.0187  0.0182 -0.0401
   63SAPC   H9R 5045   4.906   0.273   7.549 -0.8878 -0.6202 -0.5844
   63SAPC  C210 5046   5.095   0.382   7.571  0.9679  0.0845 -0.4871
   63SAPC  H10R 5047   5.121   0.485   7.538  1.1824 -0.0051 -0.5968
   63SAPC  H10S 5048   5.179   0.315   7.544  1.3545  0.2143  0.3506
   63SAPC  C211 5049   5.069   0.371   7.720  0.1104 -0.1683  0.2218
   63SAPC  H11R 5050   5.066   0.268   7.758  3.1739  0.7108  3.4088
   63SAPC  C212 5051   5.043   0.473   7.806 -0.5812  0.6864 -0.8414
   63SAPC  H12R 5052   5.029   0.445   7.912  0.2328  0.1769 -0.8549
   63SAPC  C213 5053   5.039   0.622   7.769  0.1412  0.1207  0.2675
   63SAPC  H13R 5054   4.932   0.652   7.759 -0.2329 -1.3204 -0.3960
   63SAPC  H13S 5055   5.082   0.636   7.667  0.5659  0.4986  0.4941
   63SAPC  C214 5056   5.105   0.719   7.866  0.0657 -0.3794 -0.8024
   63SAPC  H14R 5057   5.205   0.752   7.835  0.6620 -1.4263 -0.0364
   63SAPC  C215 5058   5.054   0.776   7.979  0.6832  0.9231  0.9239
   63SAPC  H15R 5059   5.113   0.842   8.045  0.0852  1.3218  1.0612
   63SAPC  C216 5060   4.917   0.767   8.030 -0.1124 -1.1960 -0.5315
   63SAPC  H16R 5061   4.850   0.718   7.956 -0.2920 -1.2531 -0.3313
   63SAPC  H16S 5062   4.868   0.865   8.049  1.0058 -0.8511  0.6713
   63SAPC  C217 5063   4.901   0.694   8.167 -0.6918 -0.2628  0.2460
   63SAPC  H17R 5064   4.942   0.591   8.155 -0.5171 -0.3699  1.6022
   63SAPC  H17S 5065   4.794   0.693   8.196 -0.8414 -0.9311 -0.3028
   63SAPC  C218 5066   4.979   0.769   8.272  0.2630 -0.2911 -0.6979
   63SAPC  H18R 5067   5.072   0.812   8.230  0.6475 -0.9093 -0.4902
   63SAPC  H18S 5068   5.014   0.704   8.354 -0.5532  2.8125  2.3338
   63SAPC  C219 5069   4.892   0.878   8.335 -0.6444  0.1635 -0.7602
   63SAPC  H19R 5070   4.787   0.842   8.344 -0.0150 -1.2954  1.7909
   63SAPC  H19S 5071   4.904   0.969   8.272  2.2132 -0.0232 -0.6335
   63SAPC  C220 5072   4.940   0.910   8.481  1.0460 -0.2153  1.0909
   63SAPC  H20R 5073   4.874   0.984   8.531  2.5801  1.1499  1.1742
   63SAPC  H20S 5074   5.033   0.969   8.467  1.7162 -1.7854 -2.0366
   63SAPC  H20T 5075   4.959   0.816   8.536  2.8299 -2.5292 -2.9754
   63SAPC   C33 5076   5.163   1.092   6.834 -0.0375 -0.4587  0.0767
   63SAPC   H3X 5077   5.053   1.084   6.817  0.2132 -0.9216 -1.4907
   63SAPC   H3Y 5078   5.173   1.185   6.775  0.6458 -0.7214 -0.2262
   63SAPC   C34 5079   5.191   1.129   6.982  0.3351  0.4032  0.0513
   63SAPC   H4X 5080   5.113   1.200   7.018 -1.8769 -2.4622  1.3576
   63SAPC   H4Y 5081   5.293   1.173   6.988  0.2698  0.6992 -0.8445
   63SAPC   C35 5082   5.160   1.014   7.085 -0.3370 -0.4363  0.0420
   63SAPC   H5X 5083   5.232   0.929   7.076  0.4045 -0.0303  1.7916
   63SAPC   H5Y 5084   5.058   0.974   7.072  0.1544 -1.3385 -1.2544
   63SAPC   C36 5085   5.188   1.081   7.225  0.7247 -0.0278 -0.2557
   63SAPC   H6X 5086   5.130   1.176   7.222 -1.8671 -1.5226 -1.6919
   63SAPC   H6Y 5087   5.295   1.108   7.222  0.8930 -0.6743 -0.2430
   63SAPC   C37 5088   5.147   0.985   7.343  0.7499  0.5688 -0.2635
   63SAPC   H7X 5089   5.046   0.951   7.311 -0.1285  1.4846  1.3845
   63SAPC   H7Y 5090   5.137   1.055   7.429  1.2451 -1.9105  1.9666
   63SAPC   C38 5091   5.238   0.872   7.377 -0.2007 -0.7299 -0.2095
   63SAPC   H8X 5092   5.238   0.814   7.282 -2.3508  0.8127 -1.2536
   63SAPC   H8Y 5093   5.194   0.808   7.456 -0.9403 -0.8290 -0.6833
   63SAPC   C39 5094   5.382   0.909   7.404 -0.1785  1.0003  0.5647
   63SAPC   H9X 5095   5.390   0.968   7.498 -0.1995 -0.5277  1.5504
   63SAPC   H9Y 5096   5.424   0.960   7.314  1.5507 -2.1872 -0.5751
   63SAPC  C310 5097   5.468   0.778   7.419  0.4143 -0.9764  0.5430
   63SAPC  H10X 5098   5.576   0.787   7.396 -0.1322  1.8476 -1.3864
   63SAPC  H10Y 5099   5.430   0.719   7.333  2.7030 -1.1751 -0.3995
   63SAPC  C311 5100   5.456   0.703   7.556 -0.0575  0.1483  0.7673
   63SAPC  H11X 5101   5.520   0.613   7.547 -1.0457 -0.6945  1.7900
   63SAPC  H11Y 5102   5.356   0.653   7.558  0.0838 -0.2079 -0.2609
   63SAPC  C312 5103   5.500   0.793   7.676  0.5810  0.3574  0.5330
   63SAPC  H12X 5104   5.415   0.863   7.696  0.3714  0.0037  0.8881
   63SAPC  H12Y 5105   5.596   0.844   7.651  0.4416  0.0388 -0.6855
   63SAPC  C313 5106   5.520   0.711   7.807  1.1847 -0.4783 -0.7313
   63SAPC  H13X 5107   5.611   0.649   7.798  0.7654 -1.5495  1.6997
   63SAPC  H13Y 5108   5.428   0.650   7.822 -0.0150  1.3223 -0.4491
   63SAPC  C314 5109   5.562   0.806   7.920 -0.2798 -0.2424  0.2249
   63SAPC  H14X 5110   5.473   0.870   7.934  0.5674  1.4078 -1.5069
   63SAPC  H14Y 5111   5.638   0.877   7.882  0.3824 -1.2529 -0.4041
   63SAPC  C315 5112   5.602   0.741   8.051  0.4239  0.2025 -0.3461
   63SAPC  H15X 5113   5.682   0.806   8.092 -0.3501  1.2364 -0.4384
   63SAPC  H15Y 5114   5.636   0.635   8.040  1.6422  0.4640  0.6752
   63SAPC  C316 5115   5.487   0.743   8.149  0.3076  0.4512  0.2862
   63SAPC  H16X 5116   5.394   0.710   8.098  1.4806  0.1253 -1.7547
   63SAPC  H16Y 5117   5.465   0.850   8.169 -1.7441  0.1045  0.0594
   63SAPC  C317 5118   5.506   0.648   8.263 -0.7665  0.7548  0.0356
   63SAPC  H17X 5119   5.591   0.691   8.320  0.3039 -0.6609 -0.4376
   63SAPC  H17Y 5120   5.534   0.546   8.229  1.1722  0.8701  1.1222
   63SAPC  C318 5121   5.392   0.632   8.358  0.2706  0.7279  0.8592
   63SAPC  H18X 5122   5.315   0.581   8.295 -0.6888  1.7598  1.1425
   63SAPC  H18Y 5123   5.350   0.725   8.403 -1.7045  1.2109 -1.6835
   63SAPC  H18Z 5124   5.403   0.560   8.441 -2.2553 -0.2616  0.4469
   64SAPC     N 5125   0.849   6.519   5.987 -0.4762 -0.1809 -0.4904
   64SAPC   C12 5126   0.741   6.625   5.973  0.2854 -0.1837  1.5093
   64SAPC  H12A 5127   0.647   6.595   6.015 -1.3295  0.3752 -1.4377
   64SAPC  H12B 5128   0.723   6.645   5.868  2.9666 -0.2382  0.9693
   64SAPC   C13 5129   0.973   6.552   5.911 -0.6274 -0.6127 -0.6737
   64SAPC  H13A 5130   1.008   6.646   5.951 -0.5941 -1.7472  2.2684
   64SAPC  H13B 5131   1.040   6.470   5.931 -1.2577 -0.3023  3.6864
   64SAPC  H13C 5132   0.943   6.563   5.808  0.7633  0.7259 -0.9682
   64SAPC   C14 5133   0.894   6.504   6.131  0.0235 -0.5021  1.0688
   64SAPC  H14A 5134   0.991   6.457   6.127  0.4391  0.3947 -1.0853
   64SAPC  H14B 5135   0.910   6.603   6.171 -0.0406 -0.6141  1.3771
   64SAPC  H14C 5136   0.821   6.448   6.188 -0.8385 -0.3644  0.1500
   64SAPC   C15 5137   0.803   6.383   5.937  0.0168  0.0079 -0.5519
   64SAPC  H15A 5138   0.807   6.372   5.830  0.3601 -1.9627 -0.3777
   64SAPC  H15B 5139   0.863   6.301   5.975 -2.9046 -1.9431  0.1964
   64SAPC  H15C 5140   0.703   6.362   5.971  0.0210 -0.1067 -0.6099
   64SAPC   C11 5141   0.753   6.765   6.027  0.3702 -0.2108 -0.4086
   64SAPC  H11A 5142   0.698   6.823   5.950  0.4859 -0.4722 -0.6897
   64SAPC  H11B 5143   0.859   6.797   6.018  0.3128 -0.0836 -0.6470
   64SAPC     P 5144   0.562   6.744   6.198  0.1788  0.3964 -0.3857
   64SAPC   O13 5145   0.468   6.837   6.136 -0.2475  0.1271  0.6108
   64SAPC   O14 5146   0.539   6.598   6.194  0.3383  1.0674 -0.2593
   64SAPC   O12 5147   0.714   6.781   6.161  0.0419  0.4031  0.3200
   64SAPC   O11 5148   0.565   6.784   6.345  0.5475 -0.8652 -0.0376
   64SAPC    C1 5149   0.594   6.924   6.374 -0.6355  0.0377  0.1528
   64SAPC    HA 5150   0.630   6.989   6.291 -0.2219 -1.0477 -0.5473
   64SAPC    HB 5151   0.492   6.960   6.396 -0.0735  2.1549 -0.4738
   64SAPC    C2 5152   0.678   6.929   6.505  0.2887  0.1913 -0.2670
   64SAPC    HS 5153   0.770   6.868   6.499  1.1913  1.5243 -0.3073
   64SAPC   O21 5154   0.583   6.895   6.609 -0.0785 -0.2820 -0.2151
   64SAPC   C21 5155   0.597   6.768   6.649 -0.2739 -0.3046  0.2489
   64SAPC   O22 5156   0.679   6.687   6.612 -1.0086  0.1559 -0.3475
   64SAPC   C22 5157   0.477   6.727   6.734 -0.6354  0.4565 -0.2268
   64SAPC   H2R 5158   0.467   6.793   6.822  2.7485  0.2400  0.4574
   64SAPC   H2S 5159   0.397   6.730   6.656 -0.8553  0.3286 -0.0088
   64SAPC    C3 5160   0.732   7.073   6.530 -0.2297 -0.2458 -0.5200
   64SAPC    HX 5161   0.647   7.136   6.493  0.2609  1.5206  1.1725
   64SAPC    HY 5162   0.829   7.088   6.479  0.2944 -0.6741  0.3316
   64SAPC   O31 5163   0.753   7.095   6.672 -0.4797 -0.1619  0.1044
   64SAPC   C31 5164   0.780   7.224   6.707 -0.4093 -0.2697  0.6728
   64SAPC   O32 5165   0.810   7.311   6.618  0.2088  1.4388 -0.1616
   64SAPC   C32 5166   0.786   7.232   6.857  0.1311 -0.6166  0.3772
   64SAPC   H2X 5167   0.789   7.129   6.900  0.6680  0.2377  2.5087
   64SAPC   H2Y 5168   0.689   7.278   6.884  0.3028  0.6388 -1.0645
   64SAPC   C23 5169   0.509   6.581   6.782  0.3742  1.0931  0.1568
   64SAPC   H3R 5170   0.603   6.590   6.840 -0.8102  2.5729  1.9799
   64SAPC   H3S 5171   0.529   6.508   6.700 -0.1847 -0.0836  1.0322
   64SAPC   C24 5172   0.390   6.531   6.869 -0.9299  0.1628 -0.2102
   64SAPC   H4R 5173   0.301   6.520   6.803 -0.7541 -2.3638 -0.1217
   64SAPC   H4S 5174   0.375   6.607   6.949  1.0855 -0.7235  1.0903
   64SAPC   C25 5175   0.421   6.400   6.945  0.0361  0.5396 -0.3638
   64SAPC   H5R 5176   0.358   6.318   6.909  2.3465 -2.5565  2.0942
   64SAPC   C26 5177   0.509   6.384   7.046 -0.4351  0.4214 -0.3555
   64SAPC   H6R 5178   0.515   6.287   7.098 -0.2185  0.7734  0.2801
   64SAPC   C27 5179   0.598   6.486   7.115  0.2620  0.4019 -0.4689
   64SAPC   H7R 5180   0.615   6.571   7.046 -0.4031  1.6143  0.8072
   64SAPC   H7S 5181   0.695   6.433   7.126  0.1266  0.0390 -0.9698
   64SAPC   C28 5182   0.529   6.521   7.242  1.0530 -0.3455  0.1549
   64SAPC   H8R 5183   0.430   6.566   7.225 -0.1871 -2.4504  1.3688
   64SAPC   C29 5184   0.558   6.487   7.363 -0.0304  0.8095 -0.2107
   64SAPC   H9R 5185   0.507   6.519   7.456 -0.0944  0.2884 -0.0658
   64SAPC  C210 5186   0.671   6.388   7.383 -0.3955  0.1760  1.1643
   64SAPC  H10R 5187   0.768   6.437   7.363 -0.5582 -0.4474 -1.5701
   64SAPC  H10S 5188   0.663   6.302   7.312 -1.5299  1.3685 -0.2285
   64SAPC  C211 5189   0.669   6.340   7.533 -0.0218 -0.1148  0.1205
   64SAPC  H11R 5190   0.603   6.253   7.549  0.7821 -0.7321  0.1805
   64SAPC  C212 5191   0.714   6.398   7.643 -0.5325  0.1244  0.3032
   64SAPC  H12R 5192   0.695   6.348   7.739  1.8594  0.1692  0.8598
   64SAPC  C213 5193   0.779   6.533   7.656 -0.0143  0.1780  0.7138
   64SAPC  H13R 5194   0.772   6.592   7.563 -3.0015 -3.6242 -1.7878
   64SAPC  H13S 5195   0.889   6.519   7.670  0.7587  1.3366 -3.0119
   64SAPC  C214 5196   0.720   6.615   7.766  0.0162 -0.1122 -1.1113
   64SAPC  H14R 5197   0.636   6.673   7.725 -0.1123 -0.7829 -1.8216
   64SAPC  C215 5198   0.780   6.657   7.877  0.2867 -1.0388 -0.1209
   64SAPC  H15R 5199   0.728   6.728   7.944  0.1504 -0.9314 -0.3394
   64SAPC  C216 5200   0.914   6.612   7.929  0.4049 -0.0553  0.0024
   64SAPC  H16R 5201   0.997   6.676   7.892  0.6949 -0.1748  0.4365
   64SAPC  H16S 5202   0.935   6.509   7.892  0.1983  0.1072 -0.5744
   64SAPC  C217 5203   0.918   6.613   8.083  0.0928 -0.3951 -0.9300
   64SAPC  H17R 5204   0.876   6.709   8.119  0.6906  0.0024 -1.2669
   64SAPC  H17S 5205   1.026   6.608   8.110 -0.0424  0.6138 -0.1469
   64SAPC  C218 5206   0.847   6.502   8.151 -0.1415 -0.5064 -0.4401
   64SAPC  H18R 5207   0.895   6.407   8.119 -0.1377 -1.2697  1.6809
   64SAPC  H18S 5208   0.744   6.494   8.112 -0.2962 -0.7744  0.0109
   64SAPC  C219 5209   0.833   6.516   8.301  0.7251  0.2973 -0.2431
   64SAPC  H19R 5210   0.751   6.587   8.325  0.8370  0.1225  0.6955
   64SAPC  H19S 5211   0.936   6.536   8.338  1.4731 -0.3963 -1.8475
   64SAPC  C220 5212   0.804   6.378   8.357 -0.6251 -0.0978 -0.2760
   64SAPC  H20R 5213   0.899   6.319   8.358 -0.7484 -0.3027 -0.4925
   64SAPC  H20S 5214   0.720   6.326   8.306 -1.2510  1.9448 -1.3951
   64SAPC  H20T 5215   0.786   6.378   8.467  2.7838 -1.2706  0.4344
   64SAPC   C33 5216   0.907   7.323   6.901 -0.2830  0.1707  0.4286
   64SAPC   H3X 5217   0.892   7.424   6.858  0.9378  0.2594  0.1697
   64SAPC   H3Y 5218   0.997   7.295   6.842  0.2016 -1.4976  1.8642
   64SAPC   C34 5219   0.930   7.324   7.047  0.0254 -0.3142 -0.6625
   64SAPC   H4X 5220   0.995   7.410   7.073  1.0044 -2.1829  3.9665
   64SAPC   H4Y 5221   0.980   7.233   7.086 -2.4606 -1.2703  0.4871
   64SAPC   C35 5222   0.800   7.335   7.131 -0.1294  0.0386 -0.7399
   64SAPC   H5X 5223   0.742   7.240   7.132 -0.3710  0.1807  0.5159
   64SAPC   H5Y 5224   0.729   7.411   7.093  0.2892  1.6863  1.5743
   64SAPC   C36 5225   0.833   7.368   7.277  0.1819 -0.3471 -0.6733
   64SAPC   H6X 5226   0.895   7.460   7.283 -0.6870  0.5531 -3.5174
   64SAPC   H6Y 5227   0.892   7.284   7.320  0.5443 -1.5440 -3.2822
   64SAPC   C37 5228   0.703   7.384   7.356  0.6221  0.0556 -0.5753
   64SAPC   H7X 5229   0.647   7.288   7.354 -0.2868  0.5962 -1.3551
   64SAPC   H7Y 5230   0.638   7.463   7.315 -2.7968 -0.9876  2.3252
   64SAPC   C38 5231   0.742   7.419   7.504 -0.1155  0.3414  0.3345
   64SAPC   H8X 5232   0.789   7.519   7.515 -0.4532  0.4802  0.5428
   64SAPC   H8Y 5233   0.800   7.339   7.554  1.1596  1.0799  0.0814
   64SAPC   C39 5234   0.617   7.440   7.595  0.1085 -0.1587 -0.3464
   64SAPC   H9X 5235   0.563   7.344   7.612  1.8313 -1.2198 -0.6714
   64SAPC   H9Y 5236   0.549   7.503   7.534 -0.8963 -0.7507  0.1320
   64SAPC  C310 5237   0.658   7.502   7.730 -0.2944 -0.2014  0.0051
   64SAPC  H10X 5238   0.684   7.609   7.715  1.2311 -0.1567  2.4072
   64SAPC  H10Y 5239   0.757   7.455   7.751 -0.5730 -0.9180 -0.2330
   64SAPC  C311 5240   0.570   7.468   7.846  0.2948 -0.1892 -0.1843
   64SAPC  H11X 5241   0.537   7.362   7.851  0.3320 -0.1524  2.6768
   64SAPC  H11Y 5242   0.477   7.527   7.829 -0.1758 -0.7739  0.2961
   64SAPC  C312 5243   0.642   7.514   7.970  0.8958 -0.7772  0.1985
   64SAPC  H12X 5244   0.646   7.624   7.977 -0.4532 -0.8115  2.0248
   64SAPC  H12Y 5245   0.740   7.462   7.974  0.1222 -2.2875  0.4627
   64SAPC  C313 5246   0.565   7.472   8.103 -0.3981 -0.0211 -0.8011
   64SAPC  H13X 5247   0.610   7.528   8.188 -2.2914 -2.2074  1.8038
   64SAPC  H13Y 5248   0.589   7.366   8.125  3.7235  0.5962 -1.5186
   64SAPC  C314 5249   0.425   7.514   8.098  0.1765  0.2176  0.2814
   64SAPC  H14X 5250   0.369   7.446   8.030  0.8095 -1.8623  1.7402
   64SAPC  H14Y 5251   0.421   7.616   8.055  0.9658  0.8390  1.6195
   64SAPC  C315 5252   0.375   7.521   8.246 -0.4523  0.3126  0.2254
   64SAPC  H15X 5253   0.421   7.613   8.290  0.5634  1.8012 -3.5907
   64SAPC  H15Y 5254   0.417   7.436   8.304  0.0806 -0.5040 -1.3209
   64SAPC  C316 5255   0.222   7.518   8.268 -0.5651  0.0273 -0.6513
   64SAPC  H16X 5256   0.182   7.417   8.242  1.5251 -1.2799  0.8888
   64SAPC  H16Y 5257   0.166   7.601   8.220  0.2049  1.3833  0.7297
   64SAPC  C317 5258   0.200   7.541   8.412  0.1033  0.0751 -0.6153
   64SAPC  H17X 5259   0.244   7.641   8.435 -0.2477  0.2293 -0.5981
   64SAPC  H17Y 5260   0.250   7.457   8.465 -1.0351 -0.0257  0.3371
   64SAPC  C318 5261   0.055   7.549   8.458 -0.2359 -0.2858 -0.4765
   64SAPC  H18X 5262  -0.008   7.460   8.437 -1.4581  0.3851  0.2075
   64SAPC  H18Y 5263   0.003   7.634   8.410 -0.4110  1.0590  1.9562
   64SAPC  H18Z 5264   0.056   7.583   8.564  1.3905  0.3548 -0.6699
   65SAPC     N 5265   1.182   1.346   5.571 -0.0098  0.0736  0.5151
   65SAPC   C12 5266   1.093   1.418   5.679 -0.7439  0.0873 -0.2730
   65SAPC  H12A 5267   0.988   1.413   5.657 -0.6411 -1.0980 -0.5479
   65SAPC  H12B 5268   1.128   1.520   5.679  2.6178 -0.7821  3.3581
   65SAPC   C13 5269   1.148   1.385   5.432 -0.1730  0.6114  0.6450
   65SAPC  H13A 5270   1.220   1.343   5.363 -0.9996  0.8256 -0.3828
   65SAPC  H13B 5271   1.059   1.330   5.405  0.7609 -2.1713  2.7129
   65SAPC  H13C 5272   1.135   1.489   5.406  2.7620  0.3655 -2.4688
   65SAPC   C14 5273   1.332   1.387   5.595  1.3181  1.0023  0.6287
   65SAPC  H14A 5274   1.397   1.351   5.517  0.7439  0.5208  0.3701
   65SAPC  H14B 5275   1.349   1.494   5.599 -0.6308  1.4825 -1.6476
   65SAPC  H14C 5276   1.361   1.344   5.690 -1.0003 -1.8894  0.1575
   65SAPC   C15 5277   1.168   1.200   5.587 -0.4743 -0.1658 -0.2946
   65SAPC  H15A 5278   1.224   1.150   5.508 -1.5478  1.6161 -2.3018
   65SAPC  H15B 5279   1.194   1.171   5.687 -0.5761  0.0712 -0.1986
   65SAPC  H15C 5280   1.065   1.176   5.566 -0.1692 -2.0932  0.2341
   65SAPC   C11 5281   1.123   1.387   5.833  0.5710  0.1936  0.0830
   65SAPC  H11A 5282   1.106   1.280   5.855 -0.8188  0.3042 -0.3484
   65SAPC  H11B 5283   1.049   1.445   5.893 -1.0486 -1.3061 -0.3953
   65SAPC     P 5284   1.348   1.334   5.955 -0.2269  0.1312 -0.0106
   65SAPC   O13 5285   1.344   1.199   5.905 -0.0672 -0.3026  0.3346
   65SAPC   O14 5286   1.479   1.397   5.971 -0.3909 -0.1685 -0.7617
   65SAPC   O12 5287   1.250   1.431   5.873  0.8372  0.6553  0.2390
   65SAPC   O11 5288   1.277   1.322   6.099  0.1146 -0.2764  0.1193
   65SAPC    C1 5289   1.215   1.433   6.162  0.6704 -0.6822 -0.1415
   65SAPC    HA 5290   1.200   1.517   6.091  3.8901  0.9619  0.9258
   65SAPC    HB 5291   1.128   1.397   6.220  0.6826  0.2338  0.4514
   65SAPC    C2 5292   1.315   1.488   6.270  0.1281  0.3589  0.2529
   65SAPC    HS 5293   1.413   1.499   6.220  0.2434 -0.2278  0.3365
   65SAPC   O21 5294   1.327   1.391   6.373 -0.3126  0.0177  0.3293
   65SAPC   C21 5295   1.449   1.390   6.431  1.0524  0.5711  0.7824
   65SAPC   O22 5296   1.549   1.451   6.401  0.3726 -0.0222  0.3335
   65SAPC   C22 5297   1.437   1.311   6.563  0.0676 -0.0525 -0.0795
   65SAPC   H2R 5298   1.386   1.386   6.627  0.8074 -1.2541  2.0074
   65SAPC   H2S 5299   1.366   1.227   6.551 -2.3062  1.4147  2.5343
   65SAPC    C3 5300   1.277   1.634   6.320  0.4142  0.4322 -0.6123
   65SAPC    HX 5301   1.213   1.628   6.411 -0.0920 -0.2942 -0.9995
   65SAPC    HY 5302   1.219   1.698   6.250 -0.0400  1.1665  0.4111
   65SAPC   O31 5303   1.396   1.709   6.336 -0.2074  0.0265  0.3055
   65SAPC   C31 5304   1.447   1.712   6.459  0.5858  0.3345 -0.1305
   65SAPC   O32 5305   1.385   1.666   6.551  0.0043 -0.0098 -1.1149
   65SAPC   C32 5306   1.582   1.789   6.469  0.1913 -0.5520  0.3582
   65SAPC   H2X 5307   1.572   1.893   6.432  1.1700  0.6918  3.2889
   65SAPC   H2Y 5308   1.659   1.733   6.411  1.4767 -0.4797  1.9052
   65SAPC   C23 5309   1.574   1.273   6.625 -0.2064  0.0028 -0.3070
   65SAPC   H3R 5310   1.647   1.356   6.615  0.3688 -0.3764  0.5834
   65SAPC   H3S 5311   1.618   1.182   6.580  1.3879  0.8182 -0.4697
   65SAPC   C24 5312   1.554   1.245   6.782 -0.7298 -0.4772  0.1619
   65SAPC   H4R 5313   1.517   1.331   6.842  1.5251  0.4964  0.2520
   65SAPC   H4S 5314   1.657   1.241   6.822 -0.6714  3.8890  0.8959
   65SAPC   C25 5315   1.481   1.119   6.805  0.1333  0.0211 -0.0061
   65SAPC   H5R 5316   1.396   1.092   6.739 -1.8891  3.2378  1.0709
   65SAPC   C26 5317   1.529   1.025   6.893  0.1440 -0.5705 -0.1089
   65SAPC   H6R 5318   1.467   0.934   6.902 -1.2756  0.5357  2.1930
   65SAPC   C27 5319   1.649   1.032   6.978  0.3624  0.6976  0.0202
   65SAPC   H7R 5320   1.739   1.029   6.912 -0.8884 -0.6948 -1.7283
   65SAPC   H7S 5321   1.647   0.935   7.032 -0.3550  0.5220 -0.3055
   65SAPC   C28 5322   1.658   1.140   7.079 -0.4946 -0.1209 -0.0772
   65SAPC   H8R 5323   1.713   1.226   7.039  1.2710 -1.8095 -1.5147
   65SAPC   C29 5324   1.608   1.132   7.207 -1.0846 -0.0560 -0.0576
   65SAPC   H9R 5325   1.632   1.220   7.269  0.7009 -2.2697  2.6008
   65SAPC  C210 5326   1.532   1.017   7.252  0.0925  0.9158 -0.9216
   65SAPC  H10R 5327   1.599   0.954   7.314 -0.0153  1.4627 -0.2335
   65SAPC  H10S 5328   1.491   0.952   7.172 -0.9943 -1.3625  1.3473
   65SAPC  C211 5329   1.417   1.068   7.330 -0.6024 -0.4752  0.2427
   65SAPC  H11R 5330   1.350   1.130   7.269  1.7127  0.6311 -1.3244
   65SAPC  C212 5331   1.391   1.046   7.457  0.1665  0.3356  0.0059
   65SAPC  H12R 5332   1.297   1.085   7.501  0.0291  2.2933 -1.8485
   65SAPC  C213 5333   1.488   0.980   7.555  0.1676 -0.2659  0.2755
   65SAPC  H13R 5334   1.559   0.911   7.505  0.0393 -0.3303  0.1811
   65SAPC  H13S 5335   1.432   0.900   7.608  1.0504 -2.0168 -1.3621
   65SAPC  C214 5336   1.567   1.082   7.630 -0.9611  0.4430  0.8950
   65SAPC  H14R 5337   1.636   1.140   7.567  1.9371 -2.0482  1.5388
   65SAPC  C215 5338   1.570   1.097   7.763 -0.8056 -0.2376 -1.0469
   65SAPC  H15R 5339   1.626   1.182   7.803  1.1199 -1.0888 -1.8242
   65SAPC  C216 5340   1.503   1.006   7.865  0.2042  0.7747  0.0209
   65SAPC  H16R 5341   1.505   0.902   7.827 -0.0154  0.8540 -0.2165
   65SAPC  H16S 5342   1.396   1.036   7.868 -0.6683 -2.1775  1.4610
   65SAPC  C217 5343   1.547   1.012   8.008  1.3103  0.0961  0.3476
   65SAPC  H17R 5344   1.542   1.120   8.032 -2.1353  0.9250 -3.1241
   65SAPC  H17S 5345   1.646   0.969   8.035  0.0103 -2.3500  1.5236
   65SAPC  C218 5346   1.446   0.942   8.094 -0.6020  0.6538  0.4621
   65SAPC  H18R 5347   1.439   0.835   8.062 -0.2575  0.4920  0.9244
   65SAPC  H18S 5348   1.348   0.991   8.074 -0.3874  0.6894 -0.5627
   65SAPC  C219 5349   1.477   0.958   8.247 -0.3290 -0.0680 -0.1348
   65SAPC  H19R 5350   1.492   1.066   8.270  0.4892 -0.1263 -0.3742
   65SAPC  H19S 5351   1.567   0.902   8.279 -0.0423 -0.2256 -1.1820
   65SAPC  C220 5352   1.363   0.906   8.335  0.1041 -0.9442 -0.2595
   65SAPC  H20R 5353   1.393   0.916   8.442  1.0146  0.3054 -0.6154
   65SAPC  H20S 5354   1.339   0.798   8.321  0.5725 -1.0157 -0.5252
   65SAPC  H20T 5355   1.268   0.960   8.315  0.3476 -1.1250 -2.0100
   65SAPC   C33 5356   1.643   1.786   6.613  0.0943 -0.0420  0.4028
   65SAPC   H3X 5357   1.574   1.830   6.688 -1.0856 -0.8133 -0.1936
   65SAPC   H3Y 5358   1.728   1.858   6.603 -0.7718  1.4064  2.6891
   65SAPC   C34 5359   1.684   1.645   6.658 -0.5643  0.5361 -0.6625
   65SAPC   H4X 5360   1.750   1.606   6.578 -0.3510  2.6468 -1.5916
   65SAPC   H4Y 5361   1.596   1.581   6.679 -0.2864  0.8498  1.7699
   65SAPC   C35 5362   1.769   1.653   6.778 -0.2801  0.9438 -0.6831
   65SAPC   H5X 5363   1.727   1.728   6.849 -0.2002 -0.4689  0.9349
   65SAPC   H5Y 5364   1.870   1.692   6.755  1.1241 -1.4461  0.9225
   65SAPC   C36 5365   1.800   1.516   6.842  0.1987 -0.1807  0.0724
   65SAPC   H6X 5366   1.826   1.430   6.777  0.4253 -1.4160  1.7318
   65SAPC   H6Y 5367   1.705   1.489   6.893 -0.4753 -0.1879 -1.1320
   65SAPC   C37 5368   1.905   1.520   6.948  0.4978  0.5490  0.2219
   65SAPC   H7X 5369   1.984   1.592   6.917  0.8729 -0.6340 -1.7304
   65SAPC   H7Y 5370   1.958   1.423   6.959  1.4219  1.1479  1.2525
   65SAPC   C38 5371   1.855   1.564   7.085  0.2358 -0.4396  0.2151
   65SAPC   H8X 5372   1.777   1.643   7.077  0.9487  0.2588  0.0775
   65SAPC   H8Y 5373   1.940   1.617   7.133 -0.3129 -1.2108  2.1680
   65SAPC   C39 5374   1.798   1.456   7.173  0.2638  0.0760 -0.6152
   65SAPC   H9X 5375   1.857   1.364   7.192 -0.9526 -1.0633 -2.0860
   65SAPC   H9Y 5376   1.705   1.415   7.129 -0.8966 -0.3979  2.0608
   65SAPC  C310 5377   1.754   1.512   7.308 -0.3468 -0.6043  0.0212
   65SAPC  H10X 5378   1.691   1.429   7.347 -0.4563  0.3446  1.9541
   65SAPC  H10Y 5379   1.700   1.609   7.303  0.1801 -0.2965  0.2866
   65SAPC  C311 5380   1.871   1.536   7.409 -0.6530 -0.5935 -0.2791
   65SAPC  H11X 5381   1.921   1.632   7.383  0.3193 -1.1958 -0.6923
   65SAPC  H11Y 5382   1.947   1.455   7.404  0.5486  0.4957 -0.1224
   65SAPC  C312 5383   1.829   1.544   7.560 -0.3215 -0.5058  0.1987
   65SAPC  H12X 5384   1.761   1.461   7.590 -0.4142  0.1520  1.9269
   65SAPC  H12Y 5385   1.769   1.637   7.565  0.1995 -0.2140  1.2948
   65SAPC  C313 5386   1.950   1.563   7.653 -0.3295  0.0098  0.6763
   65SAPC  H13X 5387   2.023   1.636   7.610  1.0535 -1.7921 -0.2014
   65SAPC  H13Y 5388   2.009   1.469   7.662  1.6139  1.2053  1.0070
   65SAPC  C314 5389   1.904   1.599   7.795  0.4652  0.7607  0.1355
   65SAPC  H14X 5390   1.841   1.514   7.828 -3.2423  2.0030 -3.0102
   65SAPC  H14Y 5391   1.843   1.691   7.780 -0.2623  0.3016  0.2255
   65SAPC  C315 5392   2.018   1.614   7.893 -0.4814 -0.2255  0.0944
   65SAPC  H15X 5393   2.088   1.690   7.852  2.5017 -3.0760 -0.4341
   65SAPC  H15Y 5394   2.073   1.519   7.881 -0.5229 -0.4350  1.4306
   65SAPC  C316 5395   1.980   1.646   8.043 -0.4381 -0.2082 -0.0859
   65SAPC  H16X 5396   1.895   1.576   8.056  0.8712 -1.8251  0.0800
   65SAPC  H16Y 5397   1.937   1.749   8.041  2.2632  1.0301  1.0302
   65SAPC  C317 5398   2.088   1.641   8.150  0.5208 -0.0944 -1.0685
   65SAPC  H17X 5399   2.145   1.546   8.140 -0.8508 -1.0777  0.0882
   65SAPC  H17Y 5400   2.046   1.636   8.253  2.2174  0.8113 -0.3048
   65SAPC  C318 5401   2.190   1.757   8.143  0.1973 -0.5345  0.2942
   65SAPC  H18X 5402   2.138   1.853   8.161  0.0054 -0.4267 -0.7364
   65SAPC  H18Y 5403   2.217   1.752   8.035 -1.4094 -1.0867 -0.1019
   65SAPC  H18Z 5404   2.286   1.729   8.193  2.0766 -1.9553 -3.6271
   66SAPC     N 5405   4.255   3.696   6.468  0.0986  0.0682 -0.9975
   66SAPC   C12 5406   4.341   3.571   6.478  0.0925  0.3766 -0.6008
   66SAPC  H12A 5407   4.329   3.534   6.579  1.7251 -0.0575 -0.5368
   66SAPC  H12B 5408   4.444   3.602   6.489 -0.0816  0.2684  1.7582
   66SAPC   C13 5409   4.269   3.780   6.589 -0.2676 -0.4022 -1.0457
   66SAPC  H13A 5410   4.206   3.868   6.586 -1.2566 -1.0188  0.5898
   66SAPC  H13B 5411   4.240   3.722   6.675 -0.6362 -2.2380 -2.3441
   66SAPC  H13C 5412   4.372   3.810   6.600  0.6749 -2.7615 -2.5395
   66SAPC   C14 5413   4.287   3.775   6.345 -0.8903  0.1899 -0.3051
   66SAPC  H14A 5414   4.271   3.707   6.262  2.6931 -1.0020 -0.1835
   66SAPC  H14B 5415   4.225   3.862   6.335 -0.4282  1.0171  3.0435
   66SAPC  H14C 5416   4.390   3.809   6.348 -0.7249 -0.2696  3.0278
   66SAPC   C15 5417   4.106   3.671   6.469  0.4188  0.8079 -0.3592
   66SAPC  H15A 5418   4.075   3.616   6.382 -1.8662  2.5040 -0.6932
   66SAPC  H15B 5419   4.080   3.612   6.556 -1.4630 -0.4314 -1.7029
   66SAPC  H15C 5420   4.050   3.763   6.470 -1.3422 -0.2198 -1.3561
   66SAPC   C11 5421   4.333   3.463   6.359 -0.2284 -0.3613  0.0840
   66SAPC  H11A 5422   4.418   3.394   6.377  0.0200  0.1036  0.7634
   66SAPC  H11B 5423   4.345   3.524   6.267  2.4014  0.5577  0.9480
   66SAPC     P 5424   4.155   3.304   6.474 -0.5352  0.2426 -0.1639
   66SAPC   O13 5425   4.082   3.365   6.586 -0.1519 -0.5988 -0.7045
   66SAPC   O14 5426   4.081   3.189   6.409 -0.4637  0.0691  0.3226
   66SAPC   O12 5427   4.206   3.398   6.361 -0.2143  0.1229  0.5650
   66SAPC   O11 5428   4.281   3.242   6.534  0.8471 -0.1179 -0.8038
   66SAPC    C1 5429   4.287   3.114   6.600 -0.2245 -0.7969 -0.1539
   66SAPC    HA 5430   4.190   3.063   6.611 -1.8378  1.8433 -1.1422
   66SAPC    HB 5431   4.340   3.037   6.539 -1.0319 -1.5800  0.1178
   66SAPC    C2 5432   4.386   3.117   6.729  0.4273 -0.1808  0.4301
   66SAPC    HS 5433   4.426   3.017   6.756 -0.3089 -0.0945  1.9442
   66SAPC   O21 5434   4.316   3.175   6.844 -0.2974 -0.0655  0.4894
   66SAPC   C21 5435   4.223   3.092   6.889 -0.1836  0.1580 -0.4001
   66SAPC   O22 5436   4.199   2.982   6.842 -0.3428 -0.0212 -0.1025
   66SAPC   C22 5437   4.139   3.162   6.999 -0.2436 -0.6376  0.4177
   66SAPC   H2R 5438   4.069   3.229   6.945 -0.2287 -1.2492 -0.3668
   66SAPC   H2S 5439   4.072   3.085   7.041 -1.9258  0.3098 -0.4315
   66SAPC    C3 5440   4.510   3.201   6.699  0.9122 -0.4301 -0.0557
   66SAPC    HX 5441   4.482   3.308   6.690  2.9723  0.2360  0.8051
   66SAPC    HY 5442   4.553   3.160   6.605  1.5979  0.7023 -0.2572
   66SAPC   O31 5443   4.602   3.193   6.807  0.3205 -0.4030  0.2014
   66SAPC   C31 5444   4.697   3.105   6.802 -0.1175 -0.2817 -0.7335
   66SAPC   O32 5445   4.716   3.021   6.716 -0.0768  0.5129 -0.3344
   66SAPC   C32 5446   4.784   3.138   6.927  0.0903 -0.2362 -0.0142
   66SAPC   H2X 5447   4.763   3.243   6.957  0.3717  0.2901 -1.5584
   66SAPC   H2Y 5448   4.887   3.141   6.886 -0.6268 -0.6258 -1.9569
   66SAPC   C23 5449   4.221   3.229   7.117 -0.1756  0.1153 -0.2163
   66SAPC   H3R 5450   4.303   3.298   7.088  2.0887 -0.7628  3.4799
   66SAPC   H3S 5451   4.269   3.143   7.169 -1.2817 -1.8125 -2.1983
   66SAPC   C24 5452   4.136   3.297   7.229  0.4939  0.3321 -0.6446
   66SAPC   H4R 5453   4.204   3.342   7.305  0.5607  0.9877 -1.0815
   66SAPC   H4S 5454   4.065   3.227   7.278  1.7612  0.4022  1.4010
   66SAPC   C25 5455   4.049   3.406   7.173 -0.1779 -0.1842 -0.4257
   66SAPC   H5R 5456   3.954   3.365   7.136 -1.3177  1.6813  0.2751
   66SAPC   C26 5457   4.068   3.542   7.183 -0.3604 -0.3548 -0.1895
   66SAPC   H6R 5458   3.991   3.615   7.155 -0.1929  0.6224  1.7340
   66SAPC   C27 5459   4.171   3.622   7.261 -0.7968  0.3463 -0.2516
   66SAPC   H7R 5460   4.258   3.630   7.193 -0.3893  0.6361  0.2978
   66SAPC   H7S 5461   4.209   3.563   7.347  1.3299 -0.4319 -1.6410
   66SAPC   C28 5462   4.140   3.757   7.306  0.2557 -0.1448 -0.0566
   66SAPC   H8R 5463   4.030   3.768   7.308  0.2837  0.3365 -0.9634
   66SAPC   C29 5464   4.217   3.855   7.352 -0.7796  0.8172 -0.3887
   66SAPC   H9R 5465   4.169   3.950   7.382 -2.4497 -0.7282  2.1560
   66SAPC  C210 5466   4.372   3.839   7.361  0.4887  0.3399 -0.2713
   66SAPC  H10R 5467   4.422   3.897   7.280 -0.5982  1.9861  0.1899
   66SAPC  H10S 5468   4.401   3.735   7.338  0.9136 -0.2265  2.4598
   66SAPC  C211 5469   4.414   3.895   7.496 -0.2688  0.2121  0.0004
   66SAPC  H11R 5470   4.441   4.001   7.486 -1.7016  0.9820  3.1675
   66SAPC  C212 5471   4.411   3.845   7.622 -0.1309  0.8580 -0.1881
   66SAPC  H12R 5472   4.451   3.909   7.702  0.1487  0.5607 -0.0879
   66SAPC  C213 5473   4.370   3.710   7.663 -0.5884  0.2720 -0.0880
   66SAPC  H13R 5474   4.465   3.658   7.687  0.0379  0.0553 -2.8033
   66SAPC  H13S 5475   4.332   3.651   7.577 -0.4914  0.7148 -0.4326
   66SAPC  C214 5476   4.279   3.726   7.783  0.5159 -0.3232 -0.2966
   66SAPC  H14R 5477   4.235   3.826   7.786 -2.2203 -1.4456  0.3215
   66SAPC  C215 5478   4.237   3.643   7.882  0.1494  0.2186  0.8248
   66SAPC  H15R 5479   4.182   3.678   7.970  2.9810  1.3478  2.2857
   66SAPC  C216 5480   4.284   3.502   7.899 -0.7457  0.7376  0.5227
   66SAPC  H16R 5481   4.393   3.501   7.878 -0.6385  0.7430  1.0675
   66SAPC  H16S 5482   4.244   3.445   7.813  4.3220 -0.6422 -1.2296
   66SAPC  C217 5483   4.239   3.435   8.036  0.3267  0.0681 -0.1131
   66SAPC  H17R 5484   4.128   3.435   8.048  0.4355 -1.2648  1.1076
   66SAPC  H17S 5485   4.292   3.490   8.116 -0.9457  1.3964 -0.1324
   66SAPC  C218 5486   4.269   3.280   8.044  0.5169 -0.7036  0.4323
   66SAPC  H18R 5487   4.371   3.263   8.003  0.3612 -1.5762  0.3982
   66SAPC  H18S 5488   4.205   3.212   7.984 -0.0661 -0.5740  0.8996
   66SAPC  C219 5489   4.272   3.228   8.185 -0.2259  0.1101 -0.8042
   66SAPC  H19R 5490   4.339   3.291   8.248 -3.0098 -0.1640  2.8044
   66SAPC  H19S 5491   4.322   3.129   8.186  0.1744  0.3114 -0.6049
   66SAPC  C220 5492   4.133   3.219   8.244  0.1092 -0.6761 -0.5315
   66SAPC  H20R 5493   4.131   3.158   8.337  0.8343 -1.7881 -1.2260
   66SAPC  H20S 5494   4.070   3.150   8.183 -1.6162  0.7006 -0.3981
   66SAPC  H20T 5495   4.093   3.322   8.255  1.0176 -0.4266  0.6620
   66SAPC   C33 5496   4.766   3.038   7.042  0.4447 -0.9386  0.2327
   66SAPC   H3X 5497   4.838   3.074   7.119 -0.9802  0.7432  0.8497
   66SAPC   H3Y 5498   4.785   2.934   7.009 -0.5095 -1.3703  0.9956
   66SAPC   C34 5499   4.621   3.044   7.098 -0.4280  0.0988  0.8854
   66SAPC   H4X 5500   4.551   3.021   7.015  1.4613 -0.9430 -0.5054
   66SAPC   H4Y 5501   4.594   3.150   7.118 -0.3530  0.3386 -0.2402
   66SAPC   C35 5502   4.599   2.946   7.216 -0.1587  0.3205  0.0988
   66SAPC   H5X 5503   4.616   2.841   7.185  0.5646  0.6084 -0.4834
   66SAPC   H5Y 5504   4.493   2.957   7.248 -0.0955 -1.2697  0.9920
   66SAPC   C36 5505   4.685   2.968   7.342  0.4537 -0.0429 -0.6608
   66SAPC   H6X 5506   4.660   3.065   7.391  0.8141 -0.7040  0.8794
   66SAPC   H6Y 5507   4.795   2.973   7.325  0.5290  1.5545  0.1315
   66SAPC   C37 5508   4.645   2.873   7.457  0.6259  0.2555 -0.4600
   66SAPC   H7X 5509   4.651   2.762   7.445 -3.9417 -0.2157 -0.1038
   66SAPC   H7Y 5510   4.539   2.895   7.482  1.1003  0.9262  1.0874
   66SAPC   C38 5511   4.733   2.919   7.584 -0.0546  0.0859 -0.6202
   66SAPC   H8X 5512   4.712   3.028   7.589 -1.3520 -0.1127 -1.2470
   66SAPC   H8Y 5513   4.834   2.901   7.542 -0.5117  0.3279 -1.9064
   66SAPC   C39 5514   4.716   2.849   7.713  0.1117 -0.6224 -0.1770
   66SAPC   H9X 5515   4.738   2.742   7.696 -2.4883 -1.4858  1.2609
   66SAPC   H9Y 5516   4.619   2.868   7.764 -1.4757 -2.4471 -2.3391
   66SAPC  C310 5517   4.826   2.887   7.813  0.0431  0.0967  0.1276
   66SAPC  H10X 5518   4.889   2.968   7.773  2.6094 -1.1018  1.5188
   66SAPC  H10Y 5519   4.891   2.797   7.820  0.2304 -0.0443 -2.6195
   66SAPC  C311 5520   4.754   2.920   7.945 -0.0425 -0.3804 -0.0570
   66SAPC  H11X 5521   4.687   3.009   7.938 -0.0591 -0.3910 -0.0362
   66SAPC  H11Y 5522   4.839   2.950   8.010  0.2682  3.0419 -1.8082
   66SAPC  C312 5523   4.668   2.805   8.007 -0.0438 -0.5019 -0.0455
   66SAPC  H12X 5524   4.720   2.710   7.984  3.0400  1.0980 -0.0933
   66SAPC  H12Y 5525   4.561   2.795   7.976 -0.4941  0.8560  0.9495
   66SAPC  C313 5526   4.662   2.811   8.163 -0.1561 -0.1639  0.0543
   66SAPC  H13X 5527   4.761   2.799   8.211 -0.6061  0.6933  1.2389
   66SAPC  H13Y 5528   4.597   2.726   8.193 -0.9488  0.7231  0.9260
   66SAPC  C314 5529   4.592   2.938   8.211 -0.4549  0.6303 -0.6855
   66SAPC  H14X 5530   4.504   2.967   8.151 -1.3273  1.6210  1.0154
   66SAPC  H14Y 5531   4.667   3.019   8.193 -0.5353  0.4076 -2.2134
   66SAPC  C315 5532   4.567   2.929   8.363  0.1791  0.3053  0.1605
   66SAPC  H15X 5533   4.559   3.032   8.403 -0.0655 -0.3486  1.8795
   66SAPC  H15Y 5534   4.651   2.878   8.414  1.2881  3.6197  1.8751
   66SAPC  C316 5535   4.437   2.862   8.394  0.4655  0.3969  0.2159
   66SAPC  H16X 5536   4.450   2.753   8.375 -0.2297  0.3202  0.1557
   66SAPC  H16Y 5537   4.360   2.898   8.323  0.6344 -0.1314 -0.2408
   66SAPC  C317 5538   4.398   2.892   8.539  0.0251  0.4655  0.3420
   66SAPC  H17X 5539   4.372   3.000   8.545 -1.1737  0.1736  0.5646
   66SAPC  H17Y 5540   4.481   2.867   8.608  1.1919 -0.4480 -1.3130
   66SAPC  C318 5541   4.279   2.813   8.586  0.9436 -0.5250  0.1962
   66SAPC  H18X 5542   4.191   2.850   8.530  1.8804 -1.1524 -1.7600
   66SAPC  H18Y 5543   4.250   2.818   8.693  0.7070  1.4644  0.0785
   66SAPC  H18Z 5544   4.289   2.705   8.564 -1.9086 -1.2637  2.0272
   67SAPC     N 5545   1.616   3.002   5.618  0.0364 -0.4477 -0.4368
   67SAPC   C12 5546   1.621   3.003   5.773  0.4657 -0.4903 -0.2165
   67SAPC  H12A 5547   1.598   3.101   5.812 -2.8038 -1.8008  1.5305
   67SAPC  H12B 5548   1.713   2.961   5.813  0.7113  0.9809  0.8101
   67SAPC   C13 5549   1.585   2.864   5.561  0.5295 -0.4965  0.2574
   67SAPC  H13A 5550   1.644   2.792   5.615  1.6872  1.1831  1.3312
   67SAPC  H13B 5551   1.480   2.851   5.584  0.5832  2.0211  2.4568
   67SAPC  H13C 5552   1.599   2.865   5.454 -2.7190 -0.4775 -0.2928
   67SAPC   C14 5553   1.510   3.090   5.567  0.2012 -0.2190 -0.1961
   67SAPC  H14A 5554   1.518   3.191   5.604 -1.5369 -1.1868  3.2550
   67SAPC  H14B 5555   1.509   3.085   5.459 -1.0730  1.5106 -0.2974
   67SAPC  H14C 5556   1.413   3.064   5.607 -0.4844  0.0112 -1.6468
   67SAPC   C15 5557   1.748   3.036   5.575 -0.7579 -0.4604 -0.8560
   67SAPC  H15A 5558   1.775   3.133   5.614 -0.0366 -0.1237 -2.1299
   67SAPC  H15B 5559   1.814   2.957   5.609 -1.6427 -0.8256  0.0821
   67SAPC  H15C 5560   1.770   3.037   5.469  1.5133  0.3102 -0.4273
   67SAPC   C11 5561   1.508   2.931   5.854  0.1799 -0.1367  0.0024
   67SAPC  H11A 5562   1.417   2.979   5.813  0.3930  0.2984  0.0380
   67SAPC  H11B 5563   1.513   2.949   5.963 -0.9271  0.4016 -0.0248
   67SAPC     P 5564   1.573   2.683   5.907 -0.3963 -0.4829  0.0750
   67SAPC   O13 5565   1.537   2.545   5.859  0.0523 -0.1565  0.0820
   67SAPC   O14 5566   1.716   2.724   5.894  0.1350  0.5628  0.4566
   67SAPC   O12 5567   1.484   2.791   5.833 -0.1990 -0.7164  0.1481
   67SAPC   O11 5568   1.531   2.698   6.055  0.0750  0.3513  0.0122
   67SAPC    C1 5569   1.403   2.657   6.100  1.0131 -1.1965  0.0327
   67SAPC    HA 5570   1.322   2.707   6.043  1.1511  0.2452  1.0542
   67SAPC    HB 5571   1.411   2.548   6.081  1.2370 -0.7474 -2.8427
   67SAPC    C2 5572   1.382   2.668   6.257  0.4109  0.1703  0.2499
   67SAPC    HS 5573   1.299   2.602   6.290 -0.7994  1.5859  0.0860
   67SAPC   O21 5574   1.348   2.799   6.297  0.5280 -0.3716  0.3771
   67SAPC   C21 5575   1.231   2.848   6.252 -0.1182 -0.5534  0.2750
   67SAPC   O22 5576   1.151   2.775   6.189  0.0129  0.1357 -0.0784
   67SAPC   C22 5577   1.193   2.987   6.311 -0.5210  0.3861  0.6448
   67SAPC   H2R 5578   1.277   3.055   6.286 -0.9442 -0.0928 -2.4998
   67SAPC   H2S 5579   1.110   3.026   6.249 -1.2650  0.9699  1.9807
   67SAPC    C3 5580   1.508   2.605   6.333 -0.0607  0.0143 -0.2483
   67SAPC    HX 5581   1.590   2.667   6.291 -2.2257  1.2069 -3.0311
   67SAPC    HY 5582   1.518   2.507   6.282 -0.3853  0.5870 -1.4452
   67SAPC   O31 5583   1.478   2.584   6.470 -0.0138  0.1992  0.0750
   67SAPC   C31 5584   1.542   2.661   6.552 -0.1621 -0.2312  0.5900
   67SAPC   O32 5585   1.626   2.743   6.523  0.1974  0.1431 -0.2815
   67SAPC   C32 5586   1.520   2.596   6.687 -0.1646  0.3517 -0.7879
   67SAPC   H2X 5587   1.572   2.498   6.684  1.1643  0.9664  0.8955
   67SAPC   H2Y 5588   1.409   2.592   6.691 -0.2026  1.3329 -0.5943
   67SAPC   C23 5589   1.150   2.995   6.455  0.2759 -0.4511 -0.2845
   67SAPC   H3R 5590   1.062   2.929   6.469 -0.8709  0.5223 -2.4729
   67SAPC   H3S 5591   1.130   3.103   6.468  2.3573 -0.1044  0.5238
   67SAPC   C24 5592   1.253   2.944   6.558 -0.1002  0.5525 -0.4426
   67SAPC   H4R 5593   1.333   3.021   6.564 -0.6912  1.1597 -0.1684
   67SAPC   H4S 5594   1.302   2.849   6.531  0.1379 -0.5260  3.1715
   67SAPC   C25 5595   1.201   2.918   6.701  0.7443 -0.1744 -0.0357
   67SAPC   H5R 5596   1.158   2.818   6.709 -2.8639  1.3626  3.1728
   67SAPC   C26 5597   1.186   2.994   6.810  0.1797 -0.1941  0.2632
   67SAPC   H6R 5598   1.162   2.938   6.902  0.6950  0.1639  0.6156
   67SAPC   C27 5599   1.233   3.136   6.825  0.8623  0.2485 -0.0475
   67SAPC   H7R 5600   1.317   3.157   6.755  0.7148 -1.0471 -0.6465
   67SAPC   H7S 5601   1.275   3.144   6.927 -4.1140  1.3109  2.2235
   67SAPC   C28 5602   1.123   3.239   6.836  0.2417 -0.3553 -0.2417
   67SAPC   H8R 5603   1.113   3.298   6.744 -1.4096  0.3088  0.3337
   67SAPC   C29 5604   1.054   3.276   6.945  0.2871 -0.4531 -0.3451
   67SAPC   H9R 5605   0.987   3.362   6.935  0.9450 -0.1065 -2.0694
   67SAPC  C210 5606   1.071   3.224   7.087  0.1558  0.4727  0.3425
   67SAPC  H10R 5607   1.061   3.114   7.082  0.6036  0.3737  1.3463
   67SAPC  H10S 5608   0.985   3.261   7.147  1.1190 -0.4004  2.3294
   67SAPC  C211 5609   1.198   3.258   7.157  0.3137 -0.0070  1.1651
   67SAPC  H11R 5610   1.261   3.336   7.112 -0.3078 -0.5028 -0.6388
   67SAPC  C212 5611   1.238   3.216   7.271  0.2245  0.0303  0.0463
   67SAPC  H12R 5612   1.338   3.246   7.306 -0.4636 -0.0043  2.1465
   67SAPC  C213 5613   1.170   3.109   7.357  0.0813 -0.1043 -1.0823
   67SAPC  H13R 5614   1.122   3.039   7.285  2.6779 -0.5612 -2.4897
   67SAPC  H13S 5615   1.100   3.161   7.427  1.3288 -0.0546  0.1834
   67SAPC  C214 5616   1.272   3.025   7.436 -0.1669 -0.2906  0.0151
   67SAPC  H14R 5617   1.329   3.070   7.519  0.0673 -1.2281  0.3704
   67SAPC  C215 5618   1.301   2.897   7.402 -0.5960 -0.1121  0.0501
   67SAPC  H15R 5619   1.372   2.845   7.468 -1.9213  2.0308  3.4261
   67SAPC  C216 5620   1.251   2.807   7.293 -0.3211  0.3614 -0.1020
   67SAPC  H16R 5621   1.328   2.751   7.236  0.1453 -0.2658  1.0952
   67SAPC  H16S 5622   1.210   2.867   7.209  0.9908  0.5463 -0.6255
   67SAPC  C217 5623   1.154   2.699   7.332 -0.1604  0.2125 -0.2787
   67SAPC  H17R 5624   1.065   2.722   7.394  0.6999  0.1888  0.9907
   67SAPC  H17S 5625   1.223   2.635   7.392  1.1862  0.0500 -1.9205
   67SAPC  C218 5626   1.113   2.605   7.215  0.3369 -0.0165 -0.8156
   67SAPC  H18R 5627   1.056   2.516   7.251 -0.2452  0.7451  0.2037
   67SAPC  H18S 5628   1.204   2.582   7.156  1.1651  0.4382  0.2520
   67SAPC  C219 5629   1.024   2.686   7.115  0.2244 -0.9791  0.2009
   67SAPC  H19R 5630   1.052   2.791   7.092 -1.4255 -0.2739  1.1548
   67SAPC  H19S 5631   0.922   2.692   7.160 -0.1772  0.3834 -0.8456
   67SAPC  C220 5632   1.004   2.619   6.975 -0.7395 -0.0675  0.4771
   67SAPC  H20R 5633   0.933   2.534   6.979 -0.4260 -0.3881 -0.5496
   67SAPC  H20S 5634   1.104   2.583   6.941 -0.4724  1.8353 -0.8797
   67SAPC  H20T 5635   0.990   2.700   6.901 -1.5340  1.3701  2.1257
   67SAPC   C33 5636   1.580   2.679   6.806  0.2081 -0.5172  0.1245
   67SAPC   H3X 5637   1.512   2.766   6.817  0.0276 -0.4473 -1.4145
   67SAPC   H3Y 5638   1.681   2.720   6.787  0.9650 -1.9175  0.9466
   67SAPC   C34 5639   1.580   2.590   6.927 -0.1419  0.2368 -0.0119
   67SAPC   H4X 5640   1.613   2.487   6.899 -1.0009 -0.5215  1.6079
   67SAPC   H4Y 5641   1.481   2.570   6.975  0.6310 -2.0939  0.7692
   67SAPC   C35 5642   1.680   2.636   7.034  0.7340  0.6043  0.3563
   67SAPC   H5X 5643   1.651   2.736   7.075  0.3435  0.5756  0.1534
   67SAPC   H5Y 5644   1.782   2.645   6.989  1.2159 -0.7053  1.1326
   67SAPC   C36 5645   1.696   2.539   7.152 -0.4549 -0.5420 -0.6206
   67SAPC   H6X 5646   1.724   2.437   7.117  0.3068 -0.0658 -1.4294
   67SAPC   H6Y 5647   1.597   2.532   7.203 -0.1004 -0.2448  0.1262
   67SAPC   C37 5648   1.787   2.594   7.260 -0.5497  0.1295 -0.3198
   67SAPC   H7X 5649   1.755   2.697   7.287 -0.3414  0.7963 -2.4320
   67SAPC   H7Y 5650   1.897   2.591   7.243 -0.6240  1.4962 -1.1583
   67SAPC   C38 5651   1.769   2.518   7.394  0.0746  0.1398 -0.4551
   67SAPC   H8X 5652   1.801   2.413   7.378  0.4277  0.1990 -0.1375
   67SAPC   H8Y 5653   1.660   2.527   7.417  0.2406  0.5061  0.2250
   67SAPC   C39 5654   1.860   2.573   7.500 -0.2973  0.1461  0.2686
   67SAPC   H9X 5655   1.840   2.679   7.527  0.5189  0.0613  1.2188
   67SAPC   H9Y 5656   1.964   2.555   7.465 -0.8493 -0.5086 -1.0997
   67SAPC  C310 5657   1.836   2.504   7.631  0.7200 -0.2615 -0.0954
   67SAPC  H10X 5658   1.847   2.394   7.620  2.0192 -0.0968 -0.5265
   67SAPC  H10Y 5659   1.733   2.526   7.669 -0.1524  3.0586 -3.7977
   67SAPC  C311 5660   1.919   2.560   7.745  0.0268  0.4196 -0.2252
   67SAPC  H11X 5661   1.893   2.668   7.746 -3.3633 -0.3115  1.1277
   67SAPC  H11Y 5662   2.027   2.544   7.722  0.5865  2.5720  0.7271
   67SAPC  C312 5663   1.886   2.493   7.879  0.3616  0.7017 -0.4774
   67SAPC  H12X 5664   1.906   2.384   7.869  0.6019  0.3753  2.4860
   67SAPC  H12Y 5665   1.780   2.500   7.910  0.5844 -1.7641  1.1288
   67SAPC  C313 5666   1.976   2.542   7.994  0.5715  0.7972  0.3639
   67SAPC  H13X 5667   1.950   2.647   8.016 -2.7424  0.2381 -0.3847
   67SAPC  H13Y 5668   2.085   2.533   7.974  0.9358  1.1564  2.0787
   67SAPC  C314 5669   1.938   2.468   8.131  0.8759 -0.2764  1.0721
   67SAPC  H14X 5670   1.947   2.361   8.102 -0.8562  0.2199 -1.6197
   67SAPC  H14Y 5671   1.832   2.501   8.140  0.9289  0.5533 -0.8380
   67SAPC  C315 5672   2.026   2.517   8.249 -0.2675 -0.1660  0.1926
   67SAPC  H15X 5673   2.001   2.623   8.274 -1.2394  0.2825 -2.4187
   67SAPC  H15Y 5674   2.129   2.495   8.214 -0.2314 -1.2242  0.9141
   67SAPC  C316 5675   1.999   2.440   8.380  0.5287  0.1635  0.0358
   67SAPC  H16X 5676   2.018   2.332   8.362  0.6947  0.2506 -0.3297
   67SAPC  H16Y 5677   1.889   2.443   8.396  0.4196 -2.2816  0.1062
   67SAPC  C317 5678   2.068   2.491   8.504  0.7063 -0.2295 -0.2643
   67SAPC  H17X 5679   2.169   2.448   8.522  2.0047  2.2689 -1.1538
   67SAPC  H17Y 5680   2.007   2.457   8.591  3.1112 -0.4274  1.4178
   67SAPC  C318 5681   2.095   2.638   8.521 -0.0823 -0.7221  0.6967
   67SAPC  H18X 5682   2.109   2.701   8.430  1.3407 -1.4558  0.3836
   67SAPC  H18Y 5683   2.192   2.652   8.573 -0.5408  3.6186  0.7398
   67SAPC  H18Z 5684   2.024   2.685   8.592 -1.8833  0.1295 -1.5095
   68SAPC     N 5685   0.428   1.583   5.848 -0.2892 -0.6339 -0.3880
   68SAPC   C12 5686   0.353   1.629   5.968  0.3543  0.0583 -0.2174
   68SAPC  H12A 5687   0.300   1.544   6.008  1.1822  0.0236  0.8651
   68SAPC  H12B 5688   0.277   1.694   5.927  0.6651  0.5096 -0.0928
   68SAPC   C13 5689   0.472   1.690   5.759  0.6493  0.3136 -0.1352
   68SAPC  H13A 5690   0.553   1.746   5.806 -0.5153 -1.6989  4.9974
   68SAPC  H13B 5691   0.485   1.661   5.656  2.0093 -2.6177  0.7390
   68SAPC  H13C 5692   0.394   1.764   5.755 -0.3669 -0.6962  0.4760
   68SAPC   C14 5693   0.549   1.505   5.895 -0.7391 -0.0204  0.4629
   68SAPC  H14A 5694   0.626   1.577   5.920  1.0122 -1.7478  0.2485
   68SAPC  H14B 5695   0.527   1.450   5.985  1.5403  1.1745  1.8436
   68SAPC  H14C 5696   0.579   1.439   5.816 -1.9597 -0.4985  0.3724
   68SAPC   C15 5697   0.334   1.486   5.770  0.5819 -0.2408 -1.1055
   68SAPC  H15A 5698   0.303   1.409   5.839  0.9449  1.1426  0.7018
   68SAPC  H15B 5699   0.244   1.536   5.737  0.7278  0.6471 -0.2199
   68SAPC  H15C 5700   0.383   1.433   5.690 -0.0071 -1.8334 -0.4345
   68SAPC   C11 5701   0.430   1.699   6.085 -0.4986  0.1386 -0.1368
   68SAPC  H11A 5702   0.518   1.641   6.120 -0.1510  0.7012 -0.0634
   68SAPC  H11B 5703   0.370   1.709   6.178 -0.2081 -2.0376  0.3510
   68SAPC     P 5704   0.379   1.944   6.023  0.2090 -0.4094  0.3360
   68SAPC   O13 5705   0.450   2.069   5.990 -0.1269 -0.4207 -0.4420
   68SAPC   O14 5706   0.261   1.905   5.938 -0.3489 -0.5362 -0.0695
   68SAPC   O12 5707   0.475   1.825   6.040 -0.2530  0.7674  0.7935
   68SAPC   O11 5708   0.323   1.962   6.167  0.5622  0.5798  0.6306
   68SAPC    C1 5709   0.405   2.010   6.271 -0.4487 -1.0456  0.7288
   68SAPC    HA 5710   0.497   1.949   6.282 -0.3098 -1.5040 -2.1334
   68SAPC    HB 5711   0.427   2.117   6.247 -0.3856 -1.4699 -1.2093
   68SAPC    C2 5712   0.347   2.014   6.408  1.2662  0.3463 -0.4312
   68SAPC    HS 5713   0.292   1.918   6.419 -2.0292  2.0402 -0.9341
   68SAPC   O21 5714   0.248   2.120   6.416  0.0122  0.2570  0.5071
   68SAPC   C21 5715   0.141   2.096   6.497  0.3493 -0.6349 -0.3956
   68SAPC   O22 5716   0.104   1.985   6.536 -0.4662 -0.2768 -0.3160
   68SAPC   C22 5717   0.068   2.229   6.533 -0.3028  0.3807 -0.2265
   68SAPC   H2R 5718   0.146   2.307   6.521  2.1295 -2.1135 -1.5639
   68SAPC   H2S 5719  -0.017   2.247   6.463  0.1554  2.2562 -0.3743
   68SAPC    C3 5720   0.455   2.009   6.525 -0.0053 -0.3338 -0.3317
   68SAPC    HX 5721   0.535   2.082   6.500 -1.1254 -0.0481 -3.6830
   68SAPC    HY 5722   0.511   1.914   6.533  2.4554  0.6782 -3.4765
   68SAPC   O31 5723   0.403   2.068   6.647  0.0935  0.4029  0.0536
   68SAPC   C31 5724   0.358   1.983   6.732 -0.0783 -0.4242 -0.1228
   68SAPC   O32 5725   0.364   1.856   6.722  0.0009 -0.6822  0.2118
   68SAPC   C32 5726   0.301   2.063   6.845 -0.1055  0.4879 -0.6138
   68SAPC   H2X 5727   0.253   2.145   6.787  1.3645 -0.2132 -2.9779
   68SAPC   H2Y 5728   0.384   2.101   6.908  1.4858 -0.5297 -2.0090
   68SAPC   C23 5729   0.024   2.222   6.682  0.5129 -0.0538  0.8334
   68SAPC   H3R 5730   0.091   2.277   6.751 -0.8180  0.5151  1.7107
   68SAPC   H3S 5731   0.025   2.116   6.716 -0.2072 -0.5211 -0.5140
   68SAPC   C24 5732  -0.117   2.284   6.698  0.6123 -0.3334 -0.6066
   68SAPC   H4R 5733  -0.114   2.388   6.659  2.6921 -0.2587 -0.3644
   68SAPC   H4S 5734  -0.134   2.309   6.805  0.0950 -0.6337 -0.6179
   68SAPC   C25 5735  -0.239   2.212   6.651  0.0380  0.7132  0.0290
   68SAPC   H5R 5736  -0.263   2.238   6.547  2.3752  1.7868 -0.2927
   68SAPC   C26 5737  -0.326   2.141   6.728 -0.3887 -0.0300 -0.5206
   68SAPC   H6R 5738  -0.421   2.106   6.685 -2.2335  1.0823  2.3266
   68SAPC   C27 5739  -0.290   2.099   6.873 -0.8569  0.1705 -0.1097
   68SAPC   H7R 5740  -0.378   2.126   6.935  0.6413  3.0547  0.9696
   68SAPC   H7S 5741  -0.210   2.161   6.920 -0.5152  0.1620 -0.6716
   68SAPC   C28 5742  -0.263   1.949   6.875  0.0736 -0.1034  0.0719
   68SAPC   H8R 5743  -0.178   1.925   6.809 -0.8759 -0.8110 -0.9462
   68SAPC   C29 5744  -0.336   1.857   6.945  0.3381 -0.7082 -0.0237
   68SAPC   H9R 5745  -0.305   1.752   6.948  2.1866 -0.1990 -0.1922
   68SAPC  C210 5746  -0.443   1.888   7.046  0.3429 -0.2647 -0.2907
   68SAPC  H10R 5747  -0.501   1.794   7.057  0.2409 -0.0785  0.8553
   68SAPC  H10S 5748  -0.517   1.959   7.004 -0.9494 -0.5387  1.4038
   68SAPC  C211 5749  -0.399   1.948   7.184  0.5249  0.0193  0.5810
   68SAPC  H11R 5750  -0.397   2.058   7.190  1.8797  0.3973 -3.5894
   68SAPC  C212 5751  -0.346   1.881   7.293 -0.8399  0.2024  0.3374
   68SAPC  H12R 5752  -0.310   1.933   7.383  1.8477 -1.5223  0.3547
   68SAPC  C213 5753  -0.329   1.731   7.312  0.4437 -0.4646  0.0107
   68SAPC  H13R 5754  -0.339   1.666   7.223  0.0013 -3.6815  2.2255
   68SAPC  H13S 5755  -0.415   1.692   7.371 -1.2088  1.2413 -1.1534
   68SAPC  C214 5756  -0.189   1.708   7.359 -0.4679 -0.6258 -0.0048
   68SAPC  H14R 5757  -0.109   1.760   7.306  0.6534  1.2840  3.2745
   68SAPC  C215 5758  -0.153   1.641   7.478  0.1569 -0.6777  0.9272
   68SAPC  H15R 5759  -0.046   1.642   7.503  0.5471  0.3885 -0.5934
   68SAPC  C216 5760  -0.250   1.592   7.587  0.0738 -0.6565  0.3599
   68SAPC  H16R 5761  -0.269   1.483   7.582 -0.8736 -0.4517 -1.1479
   68SAPC  H16S 5762  -0.350   1.639   7.586 -0.3769 -1.5953  0.6913
   68SAPC  C217 5763  -0.178   1.631   7.719 -0.2762 -0.1622 -0.1789
   68SAPC  H17R 5764  -0.173   1.740   7.743  0.9492 -0.1236 -0.5278
   68SAPC  H17S 5765  -0.070   1.606   7.726  0.6793  3.6401  1.5159
   68SAPC  C218 5766  -0.243   1.558   7.835  0.6628  0.4215  0.5166
   68SAPC  H18R 5767  -0.238   1.450   7.807 -1.0431  0.2250  0.8165
   68SAPC  H18S 5768  -0.353   1.573   7.831  0.5261 -0.3882  1.1041
   68SAPC  C219 5769  -0.195   1.586   7.979 -0.4082  0.1583  0.1652
   68SAPC  H19R 5770  -0.202   1.694   8.003  3.3220  0.2502  1.6148
   68SAPC  H19S 5771  -0.087   1.559   7.974 -1.0999 -2.6377 -2.6906
   68SAPC  C220 5772  -0.263   1.490   8.079 -0.4797  0.0655  0.4432
   68SAPC  H20R 5773  -0.180   1.452   8.141  0.2440  1.5571  0.4168
   68SAPC  H20S 5774  -0.305   1.396   8.036 -1.2227  1.3123 -1.7223
   68SAPC  H20T 5775  -0.342   1.535   8.143 -1.4416 -2.1610  0.9373
   68SAPC   C33 5776   0.196   1.983   6.927  0.1483  0.6483  0.3859
   68SAPC   H3X 5777   0.227   1.880   6.954 -0.1236  0.6779  0.8236
   68SAPC   H3Y 5778   0.101   1.979   6.869  0.6224  1.3514 -0.4606
   68SAPC   C34 5779   0.163   2.052   7.061 -0.4694 -0.1262 -0.1586
   68SAPC   H4X 5780   0.136   2.156   7.033  2.9096  1.6354  2.3835
   68SAPC   H4Y 5781   0.251   2.053   7.129  0.3473  0.0151 -1.1955
   68SAPC   C35 5782   0.039   1.989   7.125 -0.1727  0.4607 -0.2128
   68SAPC   H5X 5783   0.062   1.885   7.158 -1.0202  0.9841  2.2404
   68SAPC   H5Y 5784  -0.039   1.974   7.047 -1.0553  0.3098  0.6781
   68SAPC   C36 5785  -0.023   2.062   7.248 -0.5833 -0.8533  0.7336
   68SAPC   H6X 5786  -0.115   2.011   7.284 -1.3116  0.1939  0.4038
   68SAPC   H6Y 5787  -0.072   2.151   7.202 -0.2972 -2.1054 -2.1796
   68SAPC   C37 5788   0.058   2.084   7.376 -0.7730  0.0016 -0.6205
   68SAPC   H7X 5789   0.133   2.165   7.364  0.4494 -0.8667  0.7925
   68SAPC   H7Y 5790   0.119   1.994   7.403  0.3792  0.5364 -1.3685
   68SAPC   C38 5791  -0.018   2.111   7.507  1.0550 -0.2171  0.4172
   68SAPC   H8X 5792  -0.089   2.027   7.524  2.7926 -2.0912 -1.0762
   68SAPC   H8Y 5793  -0.068   2.209   7.497 -1.0804 -1.2741  0.3334
   68SAPC   C39 5794   0.063   2.112   7.639  0.1302  0.3921 -0.5477
   68SAPC   H9X 5795   0.128   2.202   7.646  0.2297  0.3595 -0.9975
   68SAPC   H9Y 5796   0.143   2.036   7.645 -0.8153 -0.5915  0.1114
   68SAPC  C310 5797  -0.034   2.098   7.764  0.1045 -0.1087 -0.8078
   68SAPC  H10X 5798  -0.061   1.992   7.784  1.7377 -0.6384 -1.2530
   68SAPC  H10Y 5799  -0.122   2.162   7.745 -0.5775 -1.3693 -2.0589
   68SAPC  C311 5800   0.033   2.143   7.896 -0.0366 -0.1493 -0.2059
   68SAPC  H11X 5801   0.082   2.242   7.885 -0.4311  0.4289  2.5072
   68SAPC  H11Y 5802   0.117   2.078   7.929 -0.1749  0.1418  0.7645
   68SAPC  C312 5803  -0.069   2.184   8.002  0.6793 -0.5998  0.3498
   68SAPC  H12X 5804  -0.137   2.101   8.028 -0.3524 -0.6389 -2.2092
   68SAPC  H12Y 5805  -0.133   2.266   7.963  1.4011 -1.3126 -2.5545
   68SAPC  C313 5806  -0.001   2.236   8.130 -0.0440 -0.0107  0.1226
   68SAPC  H13X 5807   0.084   2.304   8.108  0.5187 -1.2627 -1.7472
   68SAPC  H13Y 5808   0.055   2.151   8.177 -1.6673 -2.4061 -2.0166
   68SAPC  C314 5809  -0.102   2.289   8.237 -0.2837 -0.6263 -0.5625
   68SAPC  H14X 5810  -0.163   2.210   8.285  0.4023  0.9015  3.1362
   68SAPC  H14Y 5811  -0.173   2.359   8.187  0.3859  0.3321 -0.2066
   68SAPC  C315 5812  -0.032   2.375   8.342  0.0193  0.0635  0.3566
   68SAPC  H15X 5813  -0.022   2.482   8.314  1.9909 -0.4836 -1.2525
   68SAPC  H15Y 5814   0.072   2.343   8.362  0.8843  1.5126 -1.5331
   68SAPC  C316 5815  -0.088   2.362   8.484 -0.4290 -0.1808 -0.3458
   68SAPC  H16X 5816  -0.199   2.372   8.481 -0.6859 -1.4036  2.1629
   68SAPC  H16Y 5817  -0.046   2.444   8.546  0.7900 -2.4437  2.0589
   68SAPC  C317 5818  -0.040   2.242   8.580  0.3157  0.5418 -0.5292
   68SAPC  H17X 5819  -0.072   2.147   8.532  1.0139 -0.4608  0.9516
   68SAPC  H17Y 5820  -0.096   2.254   8.675 -2.3196 -1.6094 -1.6383
   68SAPC  C318 5821   0.114   2.232   8.601 -0.1073  0.4745 -0.6239
   68SAPC  H18X 5822   0.168   2.185   8.516  0.0257  0.2439 -0.4134
   68SAPC  H18Y 5823   0.123   2.168   8.691 -1.9441 -0.7155 -1.2355
   68SAPC  H18Z 5824   0.160   2.332   8.617 -2.1807  1.5842 -1.2167
   69SLPC     N 5825   2.265   4.847  10.940  0.6570 -0.4081 -0.5249
   69SLPC   C13 5826   2.289   4.732  10.841  0.3291 -0.1856  0.4891
   69SLPC  H13A 5827   2.394   4.732  10.815  0.9016 -2.8814  2.4275
   69SLPC  H13B 5828   2.260   4.637  10.884 -1.4165  0.2620  0.3677
   69SLPC  H13C 5829   2.231   4.754  10.753  0.3676  0.8486  0.7030
   69SLPC   C14 5830   2.350   4.836  11.061  0.5078  1.1439 -0.3616
   69SLPC  H14A 5831   2.387   4.934  11.088  0.9306  1.2467 -1.2599
   69SLPC  H14B 5832   2.307   4.777  11.140  0.5409  1.8370  0.1791
   69SLPC  H14C 5833   2.438   4.781  11.031 -0.2120 -0.9196  1.0842
   69SLPC   C15 5834   2.121   4.829  10.984 -0.5242  0.2992  0.8270
   69SLPC  H15A 5835   2.084   4.907  11.049 -0.5854  0.2700  0.8272
   69SLPC  H15B 5836   2.052   4.815  10.902 -0.9545 -1.6946  1.4758
   69SLPC  H15C 5837   2.117   4.741  11.047  0.0739 -1.9239 -1.9891
   69SLPC   C12 5838   2.295   4.986  10.880 -0.3296 -0.5974 -0.8685
   69SLPC  H12A 5839   2.398   4.987  10.847 -0.4710  1.0371 -1.3610
   69SLPC  H12B 5840   2.293   5.053  10.965  0.6470 -0.3775 -1.0083
   69SLPC   C11 5841   2.213   5.037  10.760  0.1955  0.2880  0.3842
   69SLPC  H11A 5842   2.225   5.147  10.755  0.1606  0.3001  0.5679
   69SLPC  H11B 5843   2.103   5.023  10.773 -0.0421 -0.3738 -1.8683
   69SLPC     P 5844   2.379   5.003  10.564  0.2930 -0.0271  0.0803
   69SLPC   O13 5845   2.433   5.137  10.592 -0.3132 -0.0082 -0.2570
   69SLPC   O14 5846   2.473   4.888  10.576  0.5704 -0.3319 -0.1396
   69SLPC   O12 5847   2.254   4.975  10.643 -0.3606  0.3909  0.0443
   69SLPC   O11 5848   2.324   5.007  10.417  0.4342 -0.2330 -0.0436
   69SLPC    C1 5849   2.186   5.020  10.377 -0.0387  0.2296 -0.1222
   69SLPC    HA 5850   2.131   4.945  10.438  1.6022 -2.1703 -1.4243
   69SLPC    HB 5851   2.145   5.121  10.396 -0.8919 -0.2829  0.9142
   69SLPC    C2 5852   2.163   4.986  10.225  0.7879 -0.7485  0.1786
   69SLPC    HS 5853   2.143   4.879  10.204 -1.2262 -0.6292  1.2423
   69SLPC   O21 5854   2.278   5.019  10.152 -0.1781  0.5934  0.2127
   69SLPC   C21 5855   2.377   4.931  10.140  0.1977 -0.1605  0.8105
   69SLPC   O22 5856   2.366   4.812  10.171 -0.3751  0.2408  0.0711
   69SLPC   C22 5857   2.506   5.002  10.093 -0.2472 -0.0265 -0.4459
   69SLPC   H2R 5858   2.569   5.035  10.178  0.0372 -2.7296  0.5120
   69SLPC   H2S 5859   2.569   4.931  10.035  0.2255  0.6399 -0.7500
   69SLPC    C3 5860   2.036   5.068  10.171 -0.5230  0.4002 -0.2604
   69SLPC    HX 5861   2.067   5.173  10.189  2.3236 -0.5198  0.7629
   69SLPC    HY 5862   1.945   5.053  10.233 -1.2562 -3.2133 -1.9496
   69SLPC   O31 5863   2.001   5.038  10.034 -0.4231 -0.2590 -0.2331
   69SLPC   C31 5864   2.052   5.124   9.937 -0.0575  0.0379  0.1270
   69SLPC   O32 5865   2.110   5.231   9.963  0.2462  0.9847 -0.3956
   69SLPC   C32 5866   2.042   5.063   9.791 -0.7585 -0.1356 -0.5238
   69SLPC   H2X 5867   1.954   4.996   9.793 -1.5127  0.8303 -0.5690
   69SLPC   H2Y 5868   2.143   5.023   9.765  0.0278  2.0456 -1.0802
   69SLPC   C23 5869   2.468   5.118   9.997 -0.2612 -0.2120  0.2841
   69SLPC   H3R 5870   2.561   5.178   9.985 -0.3203  0.3218  2.1634
   69SLPC   H3S 5871   2.394   5.194  10.031 -0.2826  1.0265 -2.2900
   69SLPC   C24 5872   2.431   5.066   9.858  0.2057  0.3867 -0.1207
   69SLPC   H4R 5873   2.328   5.025   9.872  0.0655 -0.6161 -3.3531
   69SLPC   H4S 5874   2.499   4.985   9.825 -1.2435 -0.9434  0.0050
   69SLPC   C25 5875   2.425   5.170   9.745  0.2173  0.2618  0.5131
   69SLPC   H5R 5876   2.527   5.213   9.756  0.0107  0.5918  1.1712
   69SLPC   H5S 5877   2.347   5.245   9.768  0.2775  0.5129 -0.0877
   69SLPC   C26 5878   2.415   5.114   9.600  0.1945  0.3080 -0.1101
   69SLPC   H6R 5879   2.309   5.124   9.570  0.4134  1.1045 -0.6576
   69SLPC   H6S 5880   2.430   5.004   9.603 -1.4000  0.0179 -1.3134
   69SLPC   C27 5881   2.511   5.175   9.498 -0.4354 -0.1266 -0.3220
   69SLPC   H7R 5882   2.613   5.165   9.540 -0.7309  0.1032  0.4852
   69SLPC   H7S 5883   2.507   5.286   9.502  2.3007  0.0736 -0.8467
   69SLPC   C28 5884   2.495   5.112   9.365 -0.8053 -0.0561  0.1413
   69SLPC   H8R 5885   2.396   5.143   9.322  1.6852  3.9596 -3.6310
   69SLPC   H8S 5886   2.508   5.002   9.366  0.9008  0.1329  0.3600
   69SLPC   C29 5887   2.604   5.162   9.274 -0.4016 -0.2060  0.4807
   69SLPC   H9R 5888   2.705   5.140   9.311  1.0601  0.5708 -2.7312
   69SLPC  C210 5889   2.588   5.214   9.152 -0.7491 -0.2345 -0.4563
   69SLPC  H10R 5890   2.680   5.221   9.093  0.8764 -1.4576  1.7844
   69SLPC  C211 5891   2.456   5.238   9.083  0.9583 -0.1665 -0.0284
   69SLPC  H11R 5892   2.371   5.241   9.155  1.3666  0.8025  0.4189
   69SLPC  H11S 5893   2.441   5.143   9.026  0.9733 -2.5111  3.5730
   69SLPC  C212 5894   2.461   5.366   9.008  0.3885 -0.5452  0.4159
   69SLPC  H12R 5895   2.480   5.452   9.073 -0.8956 -0.8043  1.1589
   69SLPC  C213 5896   2.463   5.375   8.877  0.3296 -0.2960  0.3480
   69SLPC  H13R 5897   2.471   5.474   8.829  0.0267  0.1726  1.2585
   69SLPC  C214 5898   2.437   5.270   8.776  0.0623  0.0271  0.4289
   69SLPC  H14R 5899   2.509   5.188   8.796 -0.2795 -0.6108 -0.8667
   69SLPC  H14S 5900   2.471   5.307   8.677 -2.8092  0.5321 -0.4348
   69SLPC  C215 5901   2.297   5.221   8.764  0.1217 -0.0517  0.6561
   69SLPC  H15R 5902   2.249   5.307   8.714  1.5732 -0.6364 -1.9670
   69SLPC  H15S 5903   2.257   5.206   8.866  0.1059  0.7014  0.7659
   69SLPC  C216 5904   2.276   5.093   8.672  0.3382 -0.6494 -0.3172
   69SLPC  H16R 5905   2.174   5.054   8.688 -1.3359  2.8087 -1.4845
   69SLPC  H16S 5906   2.348   5.018   8.710 -1.0131 -0.3483  3.1504
   69SLPC  C217 5907   2.297   5.122   8.514 -0.1295  0.0640 -0.7415
   69SLPC  H17R 5908   2.271   5.028   8.462 -1.1865 -0.7850  1.1819
   69SLPC  H17S 5909   2.405   5.133   8.494 -0.4612  0.7657 -2.2292
   69SLPC  C218 5910   2.210   5.233   8.461 -0.1391  0.3760 -0.7436
   69SLPC  H18R 5911   2.229   5.240   8.352  1.6684  2.1275 -0.3685
   69SLPC  H18S 5912   2.236   5.335   8.497  2.5960  0.6550 -3.1633
   69SLPC  H18T 5913   2.104   5.213   8.489 -0.1001  3.6731  2.5528
   69SLPC   C33 5914   2.007   5.167   9.685 -0.2729  0.5812  0.5467
   69SLPC   H3X 5915   2.088   5.243   9.687  1.5933 -1.2809 -0.0039
   69SLPC   H3Y 5916   1.913   5.223   9.704 -0.0145  1.4368 -0.5743
   69SLPC   C34 5917   2.000   5.107   9.545 -0.1488 -0.6615  0.2899
   69SLPC   H4X 5918   1.898   5.067   9.525 -0.1335 -1.3095  1.4401
   69SLPC   H4Y 5919   2.073   5.024   9.527 -1.9031 -2.0925 -0.5934
   69SLPC   C35 5920   2.031   5.212   9.443 -0.1472 -0.1617  0.2779
   69SLPC   H5X 5921   2.134   5.249   9.463  0.0584 -0.1982 -0.6922
   69SLPC   H5Y 5922   1.953   5.288   9.462 -1.4216 -1.8528  2.3353
   69SLPC   C36 5923   2.009   5.166   9.300 -0.7166  0.5281 -0.1331
   69SLPC   H6X 5924   1.902   5.136   9.298 -1.2967  2.4203  0.1272
   69SLPC   H6Y 5925   2.077   5.080   9.285  3.3775  3.4212  0.0794
   69SLPC   C37 5926   2.036   5.276   9.203 -0.4298 -0.4666  0.0133
   69SLPC   H7X 5927   2.139   5.315   9.216 -0.4464  0.0705 -1.2928
   69SLPC   H7Y 5928   1.978   5.370   9.215  1.7992  0.7606  1.8079
   69SLPC   C38 5929   2.038   5.232   9.057  0.5575  0.4883 -0.1723
   69SLPC   H8X 5930   2.122   5.164   9.032 -0.6420 -1.5617  0.9986
   69SLPC   H8Y 5931   2.051   5.325   8.998  2.5602 -1.3335 -2.8556
   69SLPC   C39 5932   1.904   5.162   9.025  0.8872  0.0861 -0.1065
   69SLPC   H9X 5933   1.828   5.237   9.057  1.4622  1.1739 -1.1921
   69SLPC   H9Y 5934   1.888   5.074   9.091 -0.6231  0.1960 -0.2934
   69SLPC  C310 5935   1.897   5.121   8.881  0.0769  0.3199 -0.2521
   69SLPC  H10X 5936   1.818   5.042   8.875 -0.0421  0.0867  2.6346
   69SLPC  H10Y 5937   1.994   5.078   8.849 -0.4588 -1.1179 -0.0645
   69SLPC  C311 5938   1.871   5.246   8.799  0.1794  0.7709  0.4153
   69SLPC  H11X 5939   1.949   5.324   8.810 -1.0638  2.0680  0.2958
   69SLPC  H11Y 5940   1.777   5.301   8.823  0.8193  1.7832  0.6509
   69SLPC  C312 5941   1.873   5.211   8.653 -0.4512  0.2687 -0.8127
   69SLPC  H12X 5942   1.922   5.112   8.638  0.5327  0.4737  0.8575
   69SLPC  H12Y 5943   1.930   5.286   8.594 -1.0233  2.0210  0.7829
   69SLPC  C313 5944   1.741   5.200   8.586  0.8943 -0.3969  0.0613
   69SLPC  H13X 5945   1.681   5.292   8.602  0.1878 -0.5815 -1.4037
   69SLPC  H13Y 5946   1.684   5.112   8.621 -2.2105  1.1301 -0.8034
   69SLPC  C314 5947   1.755   5.183   8.437  0.3101 -0.7349  1.3514
   69SLPC  H14X 5948   1.797   5.083   8.411  1.1278 -0.2213  0.6166
   69SLPC  H14Y 5949   1.821   5.265   8.401 -1.7329 -0.0856 -1.2674
   69SLPC  C315 5950   1.623   5.199   8.361 -0.0393 -0.6077 -0.2435
   69SLPC  H15X 5951   1.571   5.295   8.383  1.0879  0.1947 -0.9145
   69SLPC  H15Y 5952   1.564   5.116   8.405  0.9707 -0.3700  1.6635
   69SLPC  C316 5953   1.645   5.185   8.210 -0.6756  0.2829 -0.3125
   69SLPC  H16X 5954   1.690   5.086   8.188 -1.7712 -0.5820  1.1750
   69SLPC  H16Y 5955   1.712   5.268   8.178  0.2146 -0.4102 -0.2485
   69SLPC  C317 5956   1.508   5.193   8.133  0.8909  0.7500  0.7310
   69SLPC  H17X 5957   1.462   5.290   8.162  1.1501  1.4918 -1.2378
   69SLPC  H17Y 5958   1.437   5.112   8.161  1.6093 -0.2865 -0.3657
   69SLPC  C318 5959   1.520   5.189   7.976  0.1986  0.4839 -0.6949
   69SLPC  H18X 5960   1.572   5.094   7.949 -0.4378  0.4536 -1.8801
   69SLPC  H18Y 5961   1.575   5.278   7.940 -0.2740  1.4205  0.7851
   69SLPC  H18Z 5962   1.418   5.183   7.933 -1.0189 -2.5222  2.1314
   70SLPC     N 5963   3.250   2.496  10.888  0.4070  0.0663 -1.1585
   70SLPC   C13 5964   3.102   2.493  10.924 -0.5263 -0.1211 -0.2039
   70SLPC  H13A 5965   3.051   2.588  10.924 -0.8624 -0.2188  2.4609
   70SLPC  H13B 5966   3.058   2.436  10.844 -0.2840  0.5445 -0.8276
   70SLPC  H13C 5967   3.098   2.441  11.018  0.2136  1.3102  0.6498
   70SLPC   C14 5968   3.303   2.372  10.950 -0.2397  0.6199  0.7027
   70SLPC  H14A 5969   3.392   2.332  10.905 -0.9067  0.1892 -0.2795
   70SLPC  H14B 5970   3.322   2.381  11.056  2.6914 -1.7764  0.5311
   70SLPC  H14C 5971   3.230   2.292  10.948 -0.1426  0.5287  0.7881
   70SLPC   C15 5972   3.316   2.618  10.953 -0.0942  0.0213 -0.3665
   70SLPC  H15A 5973   3.267   2.709  10.921 -0.6912  0.0141  0.4816
   70SLPC  H15B 5974   3.304   2.631  11.060  0.9338  2.8192 -0.4978
   70SLPC  H15C 5975   3.422   2.628  10.933  0.1646 -1.1951  0.2954
   70SLPC   C12 5976   3.276   2.499  10.735 -0.1332  0.1918 -0.1332
   70SLPC  H12A 5977   3.254   2.408  10.682  0.5734 -0.5086  0.7386
   70SLPC  H12B 5978   3.381   2.517  10.721  0.2390  0.5314  2.5893
   70SLPC   C11 5979   3.184   2.604  10.674 -0.1492  0.0314 -0.2930
   70SLPC  H11A 5980   3.241   2.661  10.598 -3.7204  2.5283 -1.3830
   70SLPC  H11B 5981   3.158   2.686  10.744  0.8700  0.5215 -0.4698
   70SLPC     P 5982   3.051   2.446  10.512 -0.1530  0.0963 -0.2812
   70SLPC   O13 5983   3.163   2.344  10.518  0.5546 -0.1239  0.1805
   70SLPC   O14 5984   2.914   2.385  10.515  0.5331  0.5282  0.1357
   70SLPC   O12 5985   3.066   2.548  10.619  0.2416 -0.5922 -0.3010
   70SLPC   O11 5986   3.066   2.532  10.385  0.2668  0.5258  0.0971
   70SLPC    C1 5987   3.052   2.670  10.368  0.0220 -0.3131 -0.1896
   70SLPC    HA 5988   2.975   2.712  10.436  0.2699  0.3892 -0.3435
   70SLPC    HB 5989   3.150   2.716  10.391  1.1189 -3.0604  1.0633
   70SLPC    C2 5990   3.017   2.704  10.219 -0.1847 -0.3305 -0.2195
   70SLPC    HS 5991   2.922   2.652  10.195  0.2179 -0.8542 -0.6929
   70SLPC   O21 5992   3.119   2.664  10.129  0.2973  0.5374 -0.2181
   70SLPC   C21 5993   3.109   2.544  10.078  0.9486  0.2161 -0.0907
   70SLPC   O22 5994   3.012   2.470  10.073 -0.1030 -0.0680 -0.2585
   70SLPC   C22 5995   3.237   2.499  10.018  0.2484  0.6583  0.0846
   70SLPC   H2R 5996   3.329   2.554  10.051 -0.5790  1.3316  1.3558
   70SLPC   H2S 5997   3.258   2.395  10.052  2.2475 -0.6256 -4.3701
   70SLPC    C3 5998   2.985   2.850  10.209  0.1314 -0.2434  0.7406
   70SLPC    HX 5999   3.052   2.922  10.261 -2.7774  2.2732  1.3618
   70SLPC    HY 6000   2.883   2.873  10.246  0.2764 -1.4002  1.9359
   70SLPC   O31 6001   2.993   2.889  10.065  0.4354 -0.3367 -0.1879
   70SLPC   C31 6002   2.963   3.018  10.044 -0.2871  1.0426  0.8822
   70SLPC   O32 6003   2.933   3.099  10.125 -0.2031 -0.4583 -0.5035
   70SLPC   C32 6004   2.994   3.036   9.896 -0.4521 -0.0616  0.2663
   70SLPC   H2X 6005   2.942   2.956   9.838  2.0148 -0.5301 -1.4243
   70SLPC   H2Y 6006   3.102   3.017   9.884 -0.0936  0.7990  1.8378
   70SLPC   C23 6007   3.227   2.502   9.863  0.5475 -0.1843 -0.1212
   70SLPC   H3R 6008   3.165   2.421   9.820 -0.8917  2.3395 -3.1952
   70SLPC   H3S 6009   3.330   2.494   9.821  1.1116 -0.0544  1.1898
   70SLPC   C24 6010   3.167   2.632   9.804 -0.8183  0.1805  0.0494
   70SLPC   H4R 6011   3.213   2.718   9.856 -1.5295 -0.1883  1.3242
   70SLPC   H4S 6012   3.058   2.631   9.825 -0.8312 -1.0916 -0.0341
   70SLPC   C25 6013   3.187   2.637   9.648  0.7056  0.6906  0.0234
   70SLPC   H5R 6014   3.164   2.541   9.597  2.3932  0.3065 -0.0609
   70SLPC   H5S 6015   3.295   2.659   9.641  0.5504  1.2325 -0.8362
   70SLPC   C26 6016   3.111   2.754   9.583 -0.0439  0.3800  0.1942
   70SLPC   H6R 6017   3.118   2.851   9.638 -2.8663  1.7243 -1.5705
   70SLPC   H6S 6018   3.003   2.733   9.571 -0.3856  2.7220 -1.5904
   70SLPC   C27 6019   3.154   2.780   9.436 -0.2188 -0.0646 -0.0635
   70SLPC   H7R 6020   3.120   2.689   9.383 -2.4324  0.9129 -0.4352
   70SLPC   H7S 6021   3.263   2.802   9.431 -0.8211  4.5601  1.9136
   70SLPC   C28 6022   3.085   2.900   9.375 -0.0420  0.3718 -0.6537
   70SLPC   H8R 6023   3.082   2.988   9.443  0.4404  0.5942 -0.9125
   70SLPC   H8S 6024   2.983   2.867   9.345  0.9214 -0.6851 -3.0547
   70SLPC   C29 6025   3.161   2.954   9.256  0.1560  0.1664  0.7038
   70SLPC   H9R 6026   3.260   2.993   9.283  1.6629 -3.0750  0.3417
   70SLPC  C210 6027   3.108   2.960   9.132  0.0397 -0.1448 -0.7093
   70SLPC  H10R 6028   3.177   2.993   9.053  0.9520 -1.2490 -0.3967
   70SLPC  C211 6029   2.981   2.901   9.080  0.0490  0.0068  0.0374
   70SLPC  H11R 6030   2.904   2.916   9.158  0.0713 -0.3393  0.1289
   70SLPC  H11S 6031   2.995   2.791   9.069  0.1550  0.0642 -0.4532
   70SLPC  C212 6032   2.940   2.965   8.945 -0.7404 -0.5410  0.9266
   70SLPC  H12R 6033   2.862   3.042   8.942 -2.2659 -2.0633 -1.4434
   70SLPC  C213 6034   2.982   2.908   8.831 -0.0345 -0.4249  0.5066
   70SLPC  H13R 6035   2.969   2.954   8.731  2.5627 -1.9717 -0.6738
   70SLPC  C214 6036   3.077   2.789   8.818 -0.1545 -0.4530 -0.6841
   70SLPC  H14R 6037   3.126   2.774   8.916  0.1372  1.9683 -0.3970
   70SLPC  H14S 6038   3.159   2.812   8.746  0.0810 -0.7538 -0.5170
   70SLPC  C215 6039   3.015   2.661   8.776  0.1917  0.2705  0.0031
   70SLPC  H15R 6040   3.103   2.597   8.756  0.5199  0.6656  0.1602
   70SLPC  H15S 6041   2.961   2.679   8.681  0.0942 -0.5958 -0.1126
   70SLPC  C216 6042   2.920   2.599   8.887  0.3498  1.3167 -0.4184
   70SLPC  H16R 6043   2.842   2.676   8.902 -1.5839 -0.9680  2.4289
   70SLPC  H16S 6044   2.971   2.575   8.984 -0.6494  1.0295  0.0429
   70SLPC  C217 6045   2.852   2.475   8.839  0.2527  0.4889  0.0731
   70SLPC  H17R 6046   2.811   2.509   8.741  1.5536  1.8953 -0.0341
   70SLPC  H17S 6047   2.761   2.452   8.897 -0.1348  0.7983 -0.4062
   70SLPC  C218 6048   2.942   2.353   8.820 -0.2413 -0.0322  1.0652
   70SLPC  H18R 6049   3.046   2.377   8.788 -0.8736 -1.5662 -2.6410
   70SLPC  H18S 6050   2.887   2.282   8.755 -1.8582  1.1704  1.0695
   70SLPC  H18T 6051   2.939   2.297   8.915  1.6809 -0.7403  0.7646
   70SLPC   C33 6052   2.951   3.172   9.840 -0.5477 -0.1081 -0.6568
   70SLPC   H3X 6053   2.999   3.256   9.893  0.4564 -0.1280 -1.5233
   70SLPC   H3Y 6054   2.848   3.189   9.878 -0.4088 -0.4215 -0.1262
   70SLPC   C34 6055   2.955   3.198   9.692  0.2034 -0.2266  0.7758
   70SLPC   H4X 6056   2.911   3.110   9.640  1.5904 -0.3445 -0.2750
   70SLPC   H4Y 6057   3.059   3.217   9.656 -1.0246  1.6885 -2.1837
   70SLPC   C35 6058   2.862   3.316   9.656 -0.3560  0.6552 -0.0338
   70SLPC   H5X 6059   2.913   3.403   9.703 -0.9790  0.4747  1.0010
   70SLPC   H5Y 6060   2.765   3.304   9.709 -0.7604  2.0745 -0.4182
   70SLPC   C36 6061   2.832   3.355   9.515  0.0574  0.9870 -0.9351
   70SLPC   H6X 6062   2.758   3.438   9.511 -1.3630 -0.1586  0.4512
   70SLPC   H6Y 6063   2.768   3.279   9.466 -2.9671  2.6607  0.1612
   70SLPC   C37 6064   2.966   3.374   9.442  0.4234 -0.2120  0.8744
   70SLPC   H7X 6065   3.031   3.288   9.469  0.3647 -0.5074  0.0944
   70SLPC   H7Y 6066   3.015   3.464   9.485  0.3141 -0.9264  2.5511
   70SLPC   C38 6067   2.960   3.385   9.283  1.0035  0.6287  0.1985
   70SLPC   H8X 6068   2.883   3.457   9.249 -0.6924 -0.1206  2.2572
   70SLPC   H8Y 6069   2.935   3.286   9.239  0.9659 -0.8814  3.3626
   70SLPC   C39 6070   3.094   3.423   9.220 -0.3383  0.0986  0.5352
   70SLPC   H9X 6071   3.167   3.352   9.264  1.0600  1.3586  0.3474
   70SLPC   H9Y 6072   3.131   3.526   9.240  2.1349 -0.0541 -2.5686
   70SLPC  C310 6073   3.098   3.413   9.064 -0.3064  0.4950 -0.0085
   70SLPC  H10X 6074   3.017   3.483   9.031  1.7864  1.2767 -4.1157
   70SLPC  H10Y 6075   3.071   3.312   9.028  0.8748  1.0165 -2.5503
   70SLPC  C311 6076   3.228   3.470   9.000  0.3670  0.0912 -0.3356
   70SLPC  H11X 6077   3.298   3.391   8.967  0.8309  0.8089 -1.1190
   70SLPC  H11Y 6078   3.289   3.522   9.078 -0.1784 -0.1155  0.2371
   70SLPC  C312 6079   3.202   3.562   8.890 -0.1969 -0.5187  0.1992
   70SLPC  H12X 6080   3.135   3.646   8.919  0.3116 -0.4860  1.3319
   70SLPC  H12Y 6081   3.154   3.515   8.802  0.7402  3.1864 -2.5750
   70SLPC  C313 6082   3.335   3.612   8.828 -0.2936 -0.2542 -0.5671
   70SLPC  H13X 6083   3.395   3.523   8.798 -3.5306 -2.3010 -1.5182
   70SLPC  H13Y 6084   3.386   3.689   8.889  0.3587  2.1037 -3.8242
   70SLPC  C314 6085   3.320   3.695   8.708 -0.5459 -0.3486 -0.1404
   70SLPC  H14X 6086   3.248   3.780   8.710  1.8762  1.9716 -2.5573
   70SLPC  H14Y 6087   3.286   3.632   8.623 -1.4117  0.9364 -0.7858
   70SLPC  C315 6088   3.456   3.747   8.650 -0.0408 -0.0541  0.7071
   70SLPC  H15X 6089   3.521   3.670   8.603 -0.3569 -0.0267  0.2182
   70SLPC  H15Y 6090   3.503   3.785   8.742  2.5033 -0.8651 -0.1804
   70SLPC  C316 6091   3.438   3.862   8.549  0.3065  0.2928 -0.5497
   70SLPC  H16X 6092   3.356   3.926   8.590 -0.3391  0.3377 -1.8430
   70SLPC  H16Y 6093   3.404   3.820   8.452 -0.5372  2.3573 -1.2017
   70SLPC  C317 6094   3.562   3.943   8.532 -0.0597  0.1835  0.1699
   70SLPC  H17X 6095   3.650   3.879   8.512 -2.0241 -2.6602  0.0781
   70SLPC  H17Y 6096   3.584   4.005   8.621  1.1476  0.3375 -0.2173
   70SLPC  C318 6097   3.534   4.045   8.423 -0.1326  1.1423 -0.0499
   70SLPC  H18X 6098   3.439   4.097   8.445 -1.1138  0.6155 -2.6017
   70SLPC  H18Y 6099   3.501   4.000   8.326 -3.4263 -1.2022  1.9502
   70SLPC  H18Z 6100   3.624   4.108   8.406  0.3728  0.4793  0.1292
   71SLPC     N 6101   3.155   1.749  10.613  0.3363  0.4052 -0.4890
   71SLPC   C13 6102   3.151   1.784  10.761  0.0139  0.4002  0.5381
   71SLPC  H13A 6103   3.249   1.786  10.806  0.7018 -0.4179 -0.8431
   71SLPC  H13B 6104   3.107   1.880  10.784 -0.4237  0.8366 -1.8277
   71SLPC  H13C 6105   3.091   1.707  10.806 -0.5798  0.4051 -0.2204
   71SLPC   C14 6106   3.218   1.616  10.592 -0.2738  0.1967 -0.5877
   71SLPC  H14A 6107   3.309   1.604  10.647 -1.3333 -0.5000  1.0842
   71SLPC  H14B 6108   3.149   1.538  10.620  0.3767 -1.2148 -2.6590
   71SLPC  H14C 6109   3.241   1.600  10.488  0.7243  2.1234 -0.7035
   71SLPC   C15 6110   3.233   1.851  10.536  0.1002 -0.8408  0.4280
   71SLPC  H15A 6111   3.337   1.856  10.564  0.9243 -1.6242 -2.1378
   71SLPC  H15B 6112   3.227   1.842  10.428  0.0867  1.2801  0.2159
   71SLPC  H15C 6113   3.198   1.950  10.561  1.6457 -0.3638  0.8515
   71SLPC   C12 6114   3.012   1.750  10.552 -0.8398  0.8599  0.2213
   71SLPC  H12A 6115   2.962   1.844  10.572 -0.9865  0.7366  0.4380
   71SLPC  H12B 6116   2.960   1.669  10.601  0.0375 -1.1416 -1.9634
   71SLPC   C11 6117   2.992   1.733  10.400 -0.1585  0.9003  0.8291
   71SLPC  H11A 6118   2.890   1.693  10.382 -0.5641  2.3992 -0.4454
   71SLPC  H11B 6119   3.068   1.664  10.357  1.1859  1.1714  2.6712
   71SLPC     P 6120   2.892   1.962  10.340  0.5787 -0.0483 -0.1352
   71SLPC   O13 6121   2.840   1.974  10.477  0.0412  0.1386 -0.4840
   71SLPC   O14 6122   2.936   2.093  10.289  0.2851 -0.2454 -0.7976
   71SLPC   O12 6123   3.010   1.851  10.333  0.1860  0.3437 -0.7925
   71SLPC   O11 6124   2.773   1.906  10.254 -0.3329  0.4032  0.0029
   71SLPC    C1 6125   2.780   1.850  10.126  0.1025  0.6199  0.2192
   71SLPC    HA 6126   2.884   1.828  10.096 -0.1134 -0.6163  0.3457
   71SLPC    HB 6127   2.722   1.756  10.114 -1.4775  1.5389  0.3909
   71SLPC    C2 6128   2.719   1.948  10.023 -0.3741  0.4553  0.3006
   71SLPC    HS 6129   2.725   1.897   9.924  1.3847 -0.1845  0.7026
   71SLPC   O21 6130   2.787   2.076  10.026 -0.1394  0.4470  0.0147
   71SLPC   C21 6131   2.897   2.073   9.947  0.0617  0.6074 -0.5154
   71SLPC   O22 6132   2.959   1.976   9.915 -0.2135 -0.1323  0.1354
   71SLPC   C22 6133   2.941   2.210   9.918 -0.3383 -0.4593  1.0637
   71SLPC   H2R 6134   2.875   2.278   9.977  0.0467  0.4994  0.4057
   71SLPC   H2S 6135   3.044   2.216   9.959  0.1397 -2.4280  0.2848
   71SLPC    C3 6136   2.563   1.976  10.039  0.3146  0.4171 -0.2787
   71SLPC    HX 6137   2.542   2.013  10.141 -2.1415 -0.5919 -0.3417
   71SLPC    HY 6138   2.516   1.875  10.035 -0.7477  0.7311  2.2140
   71SLPC   O31 6139   2.505   2.076   9.954 -0.2523  0.3737 -0.2301
   71SLPC   C31 6140   2.474   2.034   9.835  0.1432 -0.0704  0.2966
   71SLPC   O32 6141   2.501   1.927   9.782 -0.3836  0.4041  0.2084
   71SLPC   C32 6142   2.390   2.137   9.761  0.0607  0.3317 -0.9235
   71SLPC   H2X 6143   2.446   2.233   9.770  1.3740 -0.2370 -2.4595
   71SLPC   H2Y 6144   2.294   2.149   9.815  0.5637  0.1640  0.0205
   71SLPC   C23 6145   2.939   2.223   9.766 -0.5405 -0.3274  0.1062
   71SLPC   H3R 6146   2.996   2.148   9.707  1.2307  0.1977  1.0821
   71SLPC   H3S 6147   2.995   2.317   9.746 -0.5248 -0.4134 -0.2752
   71SLPC   C24 6148   2.807   2.249   9.698  0.5463  0.2369 -0.1046
   71SLPC   H4R 6149   2.745   2.157   9.688  2.1203 -0.9790  0.9422
   71SLPC   H4S 6150   2.832   2.282   9.595 -0.9121 -0.1675 -0.6144
   71SLPC   C25 6151   2.715   2.355   9.766  0.1145 -1.1331  0.2197
   71SLPC   H5R 6152   2.695   2.330   9.873 -0.1356  4.0439  1.6762
   71SLPC   H5S 6153   2.624   2.359   9.703 -0.3296 -1.2173  0.8407
   71SLPC   C26 6154   2.779   2.497   9.772  0.3808  0.6005 -0.1723
   71SLPC   H6R 6155   2.814   2.520   9.669 -2.8460  1.9778 -1.1215
   71SLPC   H6S 6156   2.869   2.489   9.836  1.0245  0.1060 -1.1194
   71SLPC   C27 6157   2.679   2.603   9.817  0.3076  0.3325 -0.5883
   71SLPC   H7R 6158   2.628   2.569   9.909 -1.5430  1.3115 -1.1985
   71SLPC   H7S 6159   2.599   2.626   9.743  0.8807  0.2494 -1.2473
   71SLPC   C28 6160   2.760   2.728   9.833  0.6934 -0.1979  0.1338
   71SLPC   H8R 6161   2.807   2.738   9.733  0.6220  0.6206  0.1743
   71SLPC   H8S 6162   2.830   2.720   9.919 -0.9370 -0.3765  1.4829
   71SLPC   C29 6163   2.670   2.851   9.846 -0.4064 -0.5500 -0.2323
   71SLPC   H9R 6164   2.630   2.864   9.948 -1.0158  1.5671 -0.6718
   71SLPC  C210 6165   2.636   2.949   9.758 -0.1721 -0.3191 -0.0642
   71SLPC  H10R 6166   2.574   3.032   9.792 -0.8828 -0.2474 -1.4907
   71SLPC  C211 6167   2.684   2.955   9.615 -0.3866 -0.3013  0.1246
   71SLPC  H11R 6168   2.772   2.891   9.590  1.1728  2.4916 -2.2741
   71SLPC  H11S 6169   2.719   3.057   9.589 -0.4092 -0.6007 -1.1616
   71SLPC  C212 6170   2.589   2.925   9.502 -0.0347  0.6020  0.3230
   71SLPC  H12R 6171   2.511   2.998   9.477 -2.0034 -1.3489  0.4071
   71SLPC  C213 6172   2.591   2.809   9.432  0.0638 -0.1248 -0.1668
   71SLPC  H13R 6173   2.510   2.804   9.357 -1.7445 -0.2012  1.7169
   71SLPC  C214 6174   2.696   2.696   9.448 -0.1421  0.3416  0.0878
   71SLPC  H14R 6175   2.661   2.637   9.536 -0.1071  0.9994  0.5579
   71SLPC  H14S 6176   2.801   2.732   9.463 -0.2815  2.0104 -2.3817
   71SLPC  C215 6177   2.692   2.603   9.325 -0.2720  0.4496 -0.2341
   71SLPC  H15R 6178   2.725   2.661   9.236  0.0603  0.0199 -0.3973
   71SLPC  H15S 6179   2.595   2.556   9.300 -1.3655  2.6553 -0.3601
   71SLPC  C216 6180   2.793   2.484   9.352  0.2715  0.5484 -0.0452
   71SLPC  H16R 6181   2.729   2.417   9.414  0.4167  0.5937  0.1546
   71SLPC  H16S 6182   2.871   2.503   9.429 -0.3140 -0.4881  0.8390
   71SLPC  C217 6183   2.832   2.410   9.228 -0.6279 -0.5240 -0.0735
   71SLPC  H17R 6184   2.906   2.469   9.170  1.1138 -2.0608  0.4733
   71SLPC  H17S 6185   2.743   2.385   9.166 -0.2171  1.0056 -1.3278
   71SLPC  C218 6186   2.904   2.272   9.250 -0.1996 -0.5834 -0.5369
   71SLPC  H18R 6187   2.999   2.282   9.307  0.6365 -0.2247 -1.9365
   71SLPC  H18S 6188   2.922   2.209   9.160 -2.8572 -1.1471 -0.7571
   71SLPC  H18T 6189   2.839   2.207   9.312  0.9992 -0.4167  0.9455
   71SLPC   C33 6190   2.362   2.089   9.617  1.2804  0.6025  0.5227
   71SLPC   H3X 6191   2.295   2.001   9.623  3.3591 -0.9817  1.8315
   71SLPC   H3Y 6192   2.453   2.047   9.568  2.4496  2.6378  0.8285
   71SLPC   C34 6193   2.320   2.200   9.529 -0.0509  0.3538 -0.0057
   71SLPC   H4X 6194   2.393   2.281   9.545  0.9205 -0.3216 -0.8767
   71SLPC   H4Y 6195   2.214   2.229   9.546 -0.3778 -0.2414 -0.9394
   71SLPC   C35 6196   2.337   2.164   9.376 -0.8341 -0.5411  0.0903
   71SLPC   H5X 6197   2.255   2.093   9.352 -2.3450  1.5853 -1.3929
   71SLPC   H5Y 6198   2.431   2.105   9.365 -0.3021  0.4657 -0.9447
   71SLPC   C36 6199   2.317   2.292   9.289 -0.4323 -0.7434  0.1097
   71SLPC   H6X 6200   2.397   2.360   9.326  0.8905 -1.4804 -1.2682
   71SLPC   H6Y 6201   2.220   2.345   9.299  0.6642  1.2426  0.8901
   71SLPC   C37 6202   2.348   2.278   9.138 -0.6132 -0.4669  0.0154
   71SLPC   H7X 6203   2.264   2.212   9.108  0.1131 -1.4797  0.1484
   71SLPC   H7Y 6204   2.443   2.223   9.120  0.1041  0.2810  1.4373
   71SLPC   C38 6205   2.363   2.409   9.053 -0.0247 -0.0417  0.7946
   71SLPC   H8X 6206   2.458   2.461   9.079 -1.1107  1.6084  1.6242
   71SLPC   H8Y 6207   2.270   2.467   9.072 -1.1792 -1.2757 -0.7761
   71SLPC   C39 6208   2.353   2.370   8.900  0.5537  0.3327 -0.6775
   71SLPC   H9X 6209   2.257   2.317   8.886  1.3648 -1.3408 -0.1787
   71SLPC   H9Y 6210   2.428   2.293   8.870  0.5264 -0.1296  0.4175
   71SLPC  C310 6211   2.346   2.499   8.812  0.1085  0.2324 -0.4538
   71SLPC  H10X 6212   2.264   2.559   8.855  1.6999  0.2464  2.8338
   71SLPC  H10Y 6213   2.318   2.474   8.707  1.3998  0.4306 -0.8631
   71SLPC  C311 6214   2.476   2.575   8.816 -0.1861 -0.2432  0.6690
   71SLPC  H11X 6215   2.544   2.527   8.742 -1.2502 -0.2120 -0.3729
   71SLPC  H11Y 6216   2.523   2.570   8.916 -0.2797 -0.4762  0.7030
   71SLPC  C312 6217   2.470   2.723   8.773  0.5276  0.1882 -0.3945
   71SLPC  H12X 6218   2.459   2.786   8.864 -1.2123  1.8675 -1.6692
   71SLPC  H12Y 6219   2.377   2.730   8.712 -0.3120 -0.8417  0.7019
   71SLPC  C313 6220   2.583   2.786   8.695  0.0391 -0.1483 -0.0267
   71SLPC  H13X 6221   2.680   2.799   8.747  0.5970  0.5446 -1.1890
   71SLPC  H13Y 6222   2.552   2.893   8.695 -0.9307 -0.3863 -1.9305
   71SLPC  C314 6223   2.602   2.727   8.559 -0.5649 -1.5026  0.0877
   71SLPC  H14X 6224   2.504   2.716   8.508 -0.6113 -0.4318 -0.0688
   71SLPC  H14Y 6225   2.656   2.631   8.567  1.4091 -0.3335  1.5775
   71SLPC  C315 6226   2.698   2.815   8.471  0.3184 -0.2748 -0.3476
   71SLPC  H15X 6227   2.752   2.744   8.404  1.6362 -0.1389  0.5310
   71SLPC  H15Y 6228   2.779   2.863   8.530 -0.2913  2.4226 -1.5606
   71SLPC  C316 6229   2.613   2.915   8.391 -0.3833  0.0279  0.3021
   71SLPC  H16X 6230   2.537   2.964   8.455 -2.0993  1.5344 -2.6846
   71SLPC  H16Y 6231   2.555   2.863   8.312 -1.0386 -0.4156  1.0635
   71SLPC  C317 6232   2.703   3.019   8.332 -0.2912  0.4218  0.0823
   71SLPC  H17X 6233   2.783   2.966   8.275 -0.0994 -1.9832  2.3696
   71SLPC  H17Y 6234   2.751   3.073   8.417  0.9097  0.1418 -0.3909
   71SLPC  C318 6235   2.623   3.118   8.241  0.9462  0.4466  0.3640
   71SLPC  H18X 6236   2.538   3.163   8.297  1.4721 -0.1350  1.6858
   71SLPC  H18Y 6237   2.579   3.067   8.153  2.1037  1.0414 -0.5923
   71SLPC  H18Z 6238   2.684   3.205   8.209  1.5072 -0.4964 -1.2318
   72SLPC     N 6239   4.961   1.084  10.837  0.7176  0.5410 -0.5767
   72SLPC   C13 6240   5.081   0.994  10.862 -0.1502  0.2826 -0.5367
   72SLPC  H13A 6241   5.169   1.056  10.854 -0.0531  0.4118  1.1365
   72SLPC  H13B 6242   5.082   0.956  10.963  0.4435  3.7378  0.9062
   72SLPC  H13C 6243   5.083   0.917  10.787 -2.0674 -0.0246 -0.3276
   72SLPC   C14 6244   4.958   1.204  10.929  0.0700  0.1520  0.2407
   72SLPC  H14A 6245   5.054   1.254  10.933 -0.3245  0.8598  1.4417
   72SLPC  H14B 6246   4.889   1.274  10.887  0.9646  0.5897 -0.5305
   72SLPC  H14C 6247   4.933   1.178  11.031  0.0240 -0.8721 -0.0142
   72SLPC   C15 6248   4.835   1.006  10.862  0.0737 -0.3658 -0.4256
   72SLPC  H15A 6249   4.746   1.066  10.845 -1.4365 -1.4463  2.8421
   72SLPC  H15B 6250   4.831   0.921  10.796 -1.3688 -1.0915  0.5310
   72SLPC  H15C 6251   4.825   0.965  10.962 -3.5437  0.3522 -0.3591
   72SLPC   C12 6252   4.970   1.136  10.687 -0.6460  0.0269 -0.1278
   72SLPC  H12A 6253   4.976   1.042  10.634 -0.5166 -1.3615  2.2295
   72SLPC  H12B 6254   5.065   1.189  10.682 -0.1694 -0.6305  1.4735
   72SLPC   C11 6255   4.853   1.213  10.627 -0.2442  0.6075  0.2145
   72SLPC  H11A 6256   4.886   1.272  10.539  1.5680 -0.0153  0.4452
   72SLPC  H11B 6257   4.820   1.282  10.708 -0.3805 -1.8630  2.3766
   72SLPC     P 6258   4.742   1.033  10.467 -0.0815 -0.6945 -0.1650
   72SLPC   O13 6259   4.667   0.910  10.497 -0.3213 -0.3936  0.6566
   72SLPC   O14 6260   4.681   1.128  10.372  0.3201  0.3515 -0.0170
   72SLPC   O12 6261   4.749   1.116  10.598  0.1995 -0.2390 -0.0853
   72SLPC   O11 6262   4.886   0.997  10.432 -0.1770 -0.3123 -0.1775
   72SLPC    C1 6263   4.915   0.982  10.294  0.5315  0.1468 -0.7599
   72SLPC    HA 6264   4.865   0.891  10.257  0.4710 -0.6229  1.0894
   72SLPC    HB 6265   4.878   1.068  10.234 -0.9560  0.7771  0.9540
   72SLPC    C2 6266   5.066   0.962  10.271 -0.1793  0.7189  0.1628
   72SLPC    HS 6267   5.136   1.039  10.312  0.9778 -0.5453  0.6290
   72SLPC   O21 6268   5.095   0.939  10.129  0.4373  0.1855 -0.3935
   72SLPC   C21 6269   5.079   1.040  10.046 -0.1308  0.2900  0.9178
   72SLPC   O22 6270   5.079   1.153  10.089 -0.3533 -0.4728  0.0958
   72SLPC   C22 6271   5.047   0.998   9.906 -0.1512  0.0579  0.0201
   72SLPC   H2R 6272   4.937   0.987   9.903 -0.2159 -0.3541  2.3262
   72SLPC   H2S 6273   5.074   1.092   9.852  0.2448  1.1743  2.0677
   72SLPC    C3 6274   5.106   0.819  10.335 -0.9348 -0.5851  0.6553
   72SLPC    HX 6275   5.037   0.752  10.279 -1.6847  0.9205 -0.2808
   72SLPC    HY 6276   5.083   0.811  10.444  1.3556  0.1318  1.2540
   72SLPC   O31 6277   5.247   0.777  10.319  0.1401  0.2003  0.5688
   72SLPC   C31 6278   5.328   0.859  10.368 -0.2286  0.5502 -0.2623
   72SLPC   O32 6279   5.295   0.949  10.443 -0.1583 -0.0822 -0.1188
   72SLPC   C32 6280   5.468   0.829  10.331 -0.2757 -0.1099 -0.2671
   72SLPC   H2X 6281   5.473   0.723  10.298 -0.5533 -0.1057 -0.3301
   72SLPC   H2Y 6282   5.519   0.852  10.427  3.6805 -2.1161 -1.6705
   72SLPC   C23 6283   5.129   0.866   9.866  0.8071 -0.6382  0.3435
   72SLPC   H3R 6284   5.102   0.788   9.940 -2.8982 -0.8840 -1.0399
   72SLPC   H3S 6285   5.236   0.891   9.876  0.7751  0.2248 -1.1829
   72SLPC   C24 6286   5.092   0.811   9.725  0.4784  1.1342  0.2877
   72SLPC   H4R 6287   5.010   0.739   9.747  2.8580 -1.3467  1.5532
   72SLPC   H4S 6288   5.176   0.750   9.685 -0.0638  0.2344  0.5040
   72SLPC   C25 6289   5.035   0.909   9.619  0.5748  0.6693  1.1232
   72SLPC   H5R 6290   5.112   0.985   9.593 -0.3107  2.0122  2.2956
   72SLPC   H5S 6291   4.949   0.969   9.656  0.2068  0.0301  1.3277
   72SLPC   C26 6292   4.988   0.834   9.494  0.5759  0.4516  0.2078
   72SLPC   H6R 6293   4.926   0.749   9.530 -1.3356  1.9363  0.6240
   72SLPC   H6S 6294   5.082   0.795   9.449  0.7709  1.3497 -0.1712
   72SLPC   C27 6295   4.891   0.913   9.405 -0.7658  0.2537  0.1569
   72SLPC   H7R 6296   4.936   0.993   9.342 -2.3481  0.7035 -0.4615
   72SLPC   H7S 6297   4.820   0.962   9.475  1.6277  4.0831  0.1967
   72SLPC   C28 6298   4.820   0.822   9.304  0.4039  0.5666 -0.3621
   72SLPC   H8R 6299   4.779   0.738   9.365  1.5105 -0.7748 -1.3979
   72SLPC   H8S 6300   4.896   0.782   9.233  1.3995  1.0269  0.4224
   72SLPC   C29 6301   4.712   0.900   9.239 -0.1285 -0.1861  0.5382
   72SLPC   H9R 6302   4.665   0.974   9.305  1.6657 -1.6453  3.6899
   72SLPC  C210 6303   4.662   0.877   9.112 -0.8950 -0.1027 -0.2969
   72SLPC  H10R 6304   4.576   0.938   9.079 -1.5930 -0.3195  1.0572
   72SLPC  C211 6305   4.694   0.758   9.021  0.5753  0.3760  0.6338
   72SLPC  H11R 6306   4.743   0.675   9.076 -2.2567 -1.1881  1.0188
   72SLPC  H11S 6307   4.761   0.779   8.935  0.6365 -2.1145 -0.0012
   72SLPC  C212 6308   4.560   0.704   8.988 -0.3640  1.1018 -0.8124
   72SLPC  H12R 6309   4.489   0.712   9.071  1.3791  0.0424  0.8884
   72SLPC  C213 6310   4.528   0.645   8.874  0.3521  0.1580 -0.1068
   72SLPC  H13R 6311   4.425   0.606   8.865  0.6881 -1.6784  2.7899
   72SLPC  C214 6312   4.613   0.613   8.744 -0.1147 -0.1358 -0.7912
   72SLPC  H14R 6313   4.719   0.644   8.752 -0.0535  0.1310 -2.3726
   72SLPC  H14S 6314   4.566   0.656   8.654  3.1833  1.8978 -1.7020
   72SLPC  C215 6315   4.624   0.459   8.733 -0.6056 -0.1703  0.1231
   72SLPC  H15R 6316   4.519   0.425   8.716 -1.3061  2.3089 -0.9109
   72SLPC  H15S 6317   4.678   0.398   8.809 -0.3279 -1.5711 -1.1394
   72SLPC  C216 6318   4.705   0.410   8.607  0.0816 -0.8595  0.3181
   72SLPC  H16R 6319   4.810   0.435   8.632 -0.2626  0.6740  0.2876
   72SLPC  H16S 6320   4.669   0.458   8.514  0.6227  2.1475  1.5649
   72SLPC  C217 6321   4.698   0.254   8.592 -0.6151  0.3238 -0.0488
   72SLPC  H17R 6322   4.593   0.222   8.582 -0.2526 -1.4281  1.4055
   72SLPC  H17S 6323   4.733   0.213   8.689  2.5631  0.5721 -0.9721
   72SLPC  C218 6324   4.801   0.201   8.494  0.1027 -0.1486  0.0145
   72SLPC  H18R 6325   4.827   0.093   8.501  1.4112 -0.0311 -2.0515
   72SLPC  H18S 6326   4.898   0.255   8.499  0.3932 -0.3986 -1.9712
   72SLPC  H18T 6327   4.765   0.214   8.390  0.7031 -2.8381 -0.6188
   72SLPC   C33 6328   5.512   0.914  10.219  0.1484 -0.4901  0.4336
   72SLPC   H3X 6329   5.623   0.913  10.216  0.1671  1.1871 -0.3167
   72SLPC   H3Y 6330   5.485   1.019  10.241  0.8839 -0.5770  1.8303
   72SLPC   C34 6331   5.461   0.873  10.084 -0.0709  0.5507  0.4951
   72SLPC   H4X 6332   5.367   0.928  10.062 -0.8014 -0.5673  0.7540
   72SLPC   H4Y 6333   5.436   0.765  10.080 -0.2102  0.6171 -1.4548
   72SLPC   C35 6334   5.562   0.894   9.970  0.5617  0.7096 -0.0699
   72SLPC   H5X 6335   5.649   0.826   9.988 -0.4086 -0.6596 -0.3868
   72SLPC   H5Y 6336   5.593   1.000   9.969  0.6472  0.6817 -0.4257
   72SLPC   C36 6337   5.523   0.853   9.825 -0.4620  0.9693 -0.1044
   72SLPC   H6X 6338   5.432   0.904   9.786 -0.0270  2.7951  1.1086
   72SLPC   H6Y 6339   5.508   0.743   9.825 -3.3721  1.2269 -2.4263
   72SLPC   C37 6340   5.639   0.894   9.731 -0.1193  0.4883  0.4187
   72SLPC   H7X 6341   5.722   0.825   9.760  1.5140  3.4677  3.6511
   72SLPC   H7Y 6342   5.679   0.996   9.749 -1.8006  0.9721  1.6826
   72SLPC   C38 6343   5.610   0.865   9.582  0.2197 -0.2165 -0.1454
   72SLPC   H8X 6344   5.537   0.783   9.567  0.2693 -0.1377 -0.8636
   72SLPC   H8Y 6345   5.700   0.821   9.534  0.3488 -0.1541  0.0373
   72SLPC   C39 6346   5.576   0.993   9.507 -0.8567 -0.7033 -0.3607
   72SLPC   H9X 6347   5.614   0.988   9.403 -1.0984 -1.0431 -0.4365
   72SLPC   H9Y 6348   5.626   1.083   9.548 -1.9875  0.9587 -2.4467
   72SLPC  C310 6349   5.423   1.017   9.501  0.2037 -0.2279  0.7794
   72SLPC  H10X 6350   5.383   1.095   9.569  1.3592  0.2549  0.9332
   72SLPC  H10Y 6351   5.379   0.918   9.525  0.1591 -0.2996  0.4052
   72SLPC  C311 6352   5.372   1.063   9.359 -1.0835 -0.0416 -0.1298
   72SLPC  H11X 6353   5.444   1.140   9.321  0.2472 -0.1838  1.9645
   72SLPC  H11Y 6354   5.270   1.107   9.361 -1.0079  0.1437 -0.2742
   72SLPC  C312 6355   5.373   0.948   9.261 -0.3954 -0.4557  0.3569
   72SLPC  H12X 6356   5.302   0.873   9.302 -0.3420 -0.4912  0.3844
   72SLPC  H12Y 6357   5.466   0.891   9.241 -0.1941 -0.4986  1.3474
   72SLPC  C313 6358   5.318   0.991   9.124 -0.3781  0.3584  0.5687
   72SLPC  H13X 6359   5.356   0.922   9.046 -1.0360  3.1980 -2.4625
   72SLPC  H13Y 6360   5.359   1.093   9.111 -2.6388  1.3542  0.6998
   72SLPC  C314 6361   5.165   0.986   9.119  0.6513  0.2846  0.1521
   72SLPC  H14X 6362   5.128   1.026   9.215 -0.7509 -0.2424 -0.1451
   72SLPC  H14Y 6363   5.141   0.878   9.104 -1.0395  0.8130 -1.3944
   72SLPC  C315 6364   5.113   1.057   8.994 -0.1058  0.7519 -0.3009
   72SLPC  H15X 6365   5.169   1.009   8.911 -1.3402 -0.0766 -0.6898
   72SLPC  H15Y 6366   5.139   1.164   9.002 -1.0719  1.0746 -1.3016
   72SLPC  C316 6367   4.959   1.052   8.972  0.3579  0.5077  0.6905
   72SLPC  H16X 6368   4.916   1.104   9.061 -1.9145 -0.3840  0.1737
   72SLPC  H16Y 6369   4.934   0.944   8.982 -0.3008  0.2689 -2.5017
   72SLPC  C317 6370   4.918   1.108   8.835  0.9020  0.3271  0.1135
   72SLPC  H17X 6371   4.853   1.026   8.797  0.4348  0.5847  0.3459
   72SLPC  H17Y 6372   5.012   1.097   8.777  0.3707  0.2947 -0.7587
   72SLPC  C318 6373   4.843   1.239   8.830 -0.1660  0.2967 -0.4634
   72SLPC  H18X 6374   4.779   1.252   8.740 -1.9191  0.9778  0.8292
   72SLPC  H18Y 6375   4.907   1.330   8.835  1.9164 -1.0703 -0.9614
   72SLPC  H18Z 6376   4.763   1.239   8.907 -1.1879  0.9992 -1.4921
   73SLPC     N 6377   2.785   3.703  10.648 -0.3274 -0.4560 -0.5437
   73SLPC   C13 6378   2.680   3.814  10.647  0.3419 -0.5849 -0.0470
   73SLPC  H13A 6379   2.581   3.773  10.633 -0.9571  1.1271  3.1195
   73SLPC  H13B 6380   2.672   3.860  10.745  1.3325 -2.3438  0.9077
   73SLPC  H13C 6381   2.713   3.899  10.590 -1.1075  0.2641  0.3294
   73SLPC   C14 6382   2.830   3.668  10.505  0.1100 -0.8928  0.0348
   73SLPC  H14A 6383   2.901   3.587  10.502  2.0554  0.7321 -0.8985
   73SLPC  H14B 6384   2.749   3.635  10.442  1.9796 -0.9907 -2.5096
   73SLPC  H14C 6385   2.880   3.757  10.468 -2.8129  2.2441  2.8720
   73SLPC   C15 6386   2.727   3.577  10.695 -1.1932 -0.4461  0.9775
   73SLPC  H15A 6387   2.672   3.544  10.608  1.5568 -1.6029 -0.4682
   73SLPC  H15B 6388   2.804   3.505  10.720  3.3114  3.4850 -0.2049
   73SLPC  H15C 6389   2.657   3.600  10.774 -1.4257  0.8950  0.4091
   73SLPC   C12 6390   2.892   3.746  10.751 -0.2247 -0.3304  1.2179
   73SLPC  H12A 6391   2.961   3.665  10.768 -1.1808 -1.6086 -0.6070
   73SLPC  H12B 6392   2.841   3.763  10.844 -1.3787  1.1633  0.3818
   73SLPC   C11 6393   2.966   3.874  10.706 -0.0920 -0.6833 -0.2980
   73SLPC  H11A 6394   2.998   3.856  10.602 -0.3078 -0.0149 -0.4844
   73SLPC  H11B 6395   3.053   3.889  10.773 -0.1536  0.5386 -0.4696
   73SLPC     P 6396   2.924   4.126  10.784  0.4330  0.1109  0.5640
   73SLPC   O13 6397   2.840   4.141  10.902  0.0019 -0.2760  0.4552
   73SLPC   O14 6398   3.067   4.138  10.804 -0.4066 -0.2546  0.1916
   73SLPC   O12 6399   2.882   3.990  10.714 -0.1392  0.3419 -0.0948
   73SLPC   O11 6400   2.882   4.232  10.676 -0.4841  0.3804 -0.1395
   73SLPC    C1 6401   2.820   4.197  10.551 -0.1371  0.2389 -0.4042
   73SLPC    HA 6402   2.740   4.121  10.566  0.5434 -0.2427  0.8990
   73SLPC    HB 6403   2.767   4.284  10.505  0.8209 -0.1155 -2.2709
   73SLPC    C2 6404   2.922   4.152  10.442  0.4409 -0.6482  0.4922
   73SLPC    HS 6405   2.992   4.079  10.488  0.9837  0.0667  0.8199
   73SLPC   O21 6406   2.998   4.268  10.391  0.4992 -0.4649  0.2476
   73SLPC   C21 6407   3.129   4.253  10.392  0.6724  0.0701  0.1998
   73SLPC   O22 6408   3.189   4.152  10.435 -0.0946  0.0347  0.4926
   73SLPC   C22 6409   3.198   4.373  10.324 -0.0323 -0.2318 -0.2427
   73SLPC   H2R 6410   3.158   4.463  10.376  0.1027 -0.3616  0.0880
   73SLPC   H2S 6411   3.307   4.371  10.346 -0.5346  2.5983  3.7040
   73SLPC    C3 6412   2.850   4.075  10.333 -0.8789 -0.3151  0.0229
   73SLPC    HX 6413   2.764   4.134  10.296 -0.5403  0.7721  0.9211
   73SLPC    HY 6414   2.804   3.982  10.372 -0.4799 -1.4869 -2.1282
   73SLPC   O31 6415   2.949   4.059  10.230 -0.3561 -0.1737  0.3202
   73SLPC   C31 6416   3.024   3.943  10.238 -0.3610 -0.8485 -0.0257
   73SLPC   O32 6417   3.005   3.846  10.309 -0.1704  0.5898 -0.2883
   73SLPC   C32 6418   3.143   3.950  10.136 -0.2163  0.1237 -0.6290
   73SLPC   H2X 6419   3.190   4.051  10.143  2.9680 -1.2990  1.1914
   73SLPC   H2Y 6420   3.101   3.940  10.034  1.5272 -0.1930 -1.3589
   73SLPC   C23 6421   3.160   4.389  10.175  0.3622 -0.2748 -0.4002
   73SLPC   H3R 6422   3.055   4.423  10.170  0.1370 -1.1270 -1.9931
   73SLPC   H3S 6423   3.170   4.292  10.122 -0.9081 -1.6971  1.7594
   73SLPC   C24 6424   3.244   4.504  10.111 -0.0508  0.1380  0.2989
   73SLPC   H4R 6425   3.273   4.581  10.186 -2.1527  0.2285  1.0882
   73SLPC   H4S 6426   3.176   4.542  10.032 -0.4287  0.4083  0.7478
   73SLPC   C25 6427   3.372   4.451  10.049  0.4241  0.5266 -0.7298
   73SLPC   H5R 6428   3.345   4.354  10.002 -1.1216 -0.5318  2.1419
   73SLPC   H5S 6429   3.444   4.411  10.124 -1.1528 -1.8647 -0.4011
   73SLPC   C26 6430   3.435   4.536   9.943 -0.0762 -0.0440  0.7348
   73SLPC   H6R 6431   3.356   4.569   9.872 -0.4541 -0.6242  0.8828
   73SLPC   H6S 6432   3.516   4.494   9.880 -0.1888  1.5529 -0.5380
   73SLPC   C27 6433   3.498   4.675   9.988  0.2348  0.1680 -0.3830
   73SLPC   H7R 6434   3.580   4.663  10.061  0.4694  0.6443 -0.5586
   73SLPC   H7S 6435   3.420   4.731  10.043 -0.0854 -0.8346  0.2021
   73SLPC   C28 6436   3.544   4.767   9.866 -1.1099  0.3963 -0.5692
   73SLPC   H8R 6437   3.531   4.873   9.896  1.1080  0.5557  0.0137
   73SLPC   H8S 6438   3.475   4.758   9.780 -1.2570 -1.1606 -0.3163
   73SLPC   C29 6439   3.681   4.737   9.809  0.4598  0.0733 -1.0199
   73SLPC   H9R 6440   3.739   4.666   9.870 -0.6477  0.0159 -0.0008
   73SLPC  C210 6441   3.733   4.781   9.694 -0.1710 -0.6529 -0.2330
   73SLPC  H10R 6442   3.835   4.745   9.680 -0.0113 -0.5900  0.6603
   73SLPC  C211 6443   3.673   4.880   9.597 -0.1400  0.9415 -0.2016
   73SLPC  H11R 6444   3.655   4.973   9.655 -2.0324  0.3347  0.2268
   73SLPC  H11S 6445   3.576   4.851   9.552 -1.3622  3.1242  0.8928
   73SLPC  C212 6446   3.768   4.914   9.488 -0.3666  0.2980 -0.2328
   73SLPC  H12R 6447   3.838   4.995   9.512 -1.4984  1.7360 -1.5246
   73SLPC  C213 6448   3.788   4.845   9.373  0.6483  0.5936  0.9446
   73SLPC  H13R 6449   3.857   4.884   9.297 -2.2027  2.7430 -0.7476
   73SLPC  C214 6450   3.713   4.727   9.330 -0.0215 -0.4750 -0.6910
   73SLPC  H14R 6451   3.623   4.710   9.391  1.9114  1.1177  2.9111
   73SLPC  H14S 6452   3.775   4.636   9.343  0.2263 -0.3696 -1.0944
   73SLPC  C215 6453   3.660   4.736   9.188  0.2034  0.4963 -0.1671
   73SLPC  H15R 6454   3.622   4.839   9.168  0.2755  0.2002 -2.0912
   73SLPC  H15S 6455   3.585   4.654   9.196  1.1291 -0.2566  1.0199
   73SLPC  C216 6456   3.760   4.702   9.076 -0.3819 -0.7384  0.3557
   73SLPC  H16R 6457   3.808   4.603   9.095  1.2509 -0.5676 -2.3545
   73SLPC  H16S 6458   3.843   4.775   9.084 -0.4625 -0.5059 -0.7803
   73SLPC  C217 6459   3.688   4.705   8.946  0.5039  0.1722 -0.5978
   73SLPC  H17R 6460   3.648   4.807   8.930 -1.4174 -0.0842  2.0275
   73SLPC  H17S 6461   3.601   4.636   8.948  1.8962 -1.6842  1.7848
   73SLPC  C218 6462   3.772   4.659   8.833  0.1113 -0.4913  0.6660
   73SLPC  H18R 6463   3.863   4.718   8.811 -0.1153 -1.0080 -1.9786
   73SLPC  H18S 6464   3.705   4.661   8.745  0.2969  0.4605  0.5411
   73SLPC  H18T 6465   3.814   4.556   8.845  1.1247 -0.0990  0.5505
   73SLPC   C33 6466   3.254   3.848  10.157  0.7819 -0.4245  0.0838
   73SLPC   H3X 6467   3.225   3.742  10.141  1.2945 -0.4278 -0.8770
   73SLPC   H3Y 6468   3.271   3.851  10.267 -2.0992 -0.5606  0.6033
   73SLPC   C34 6469   3.386   3.875  10.083 -0.0038  0.5409 -0.1500
   73SLPC   H4X 6470   3.456   3.790  10.095 -0.6132  0.2872  1.8454
   73SLPC   H4Y 6471   3.442   3.965  10.118  1.6535  0.2388 -1.8374
   73SLPC   C35 6472   3.355   3.902   9.935 -0.5089  0.8940  0.4628
   73SLPC   H5X 6473   3.310   4.003   9.927  0.0998  1.0459 -1.4177
   73SLPC   H5Y 6474   3.282   3.821   9.915  1.5716 -0.6154 -1.4799
   73SLPC   C36 6475   3.474   3.892   9.848  0.0064  0.1851  0.0928
   73SLPC   H6X 6476   3.519   3.791   9.861 -1.9919 -1.0248 -1.6191
   73SLPC   H6Y 6477   3.555   3.953   9.892  1.4384 -0.6537 -1.2944
   73SLPC   C37 6478   3.446   3.936   9.700  0.0596  0.4382 -0.6211
   73SLPC   H7X 6479   3.447   4.046   9.716  0.7007  0.2979  0.4185
   73SLPC   H7Y 6480   3.349   3.895   9.663  0.8384  0.7375 -3.2492
   73SLPC   C38 6481   3.557   3.887   9.608 -0.1607 -0.3590  0.1797
   73SLPC   H8X 6482   3.567   3.777   9.620  0.1630 -0.5117 -1.2864
   73SLPC   H8Y 6483   3.656   3.933   9.626 -0.5027 -0.2225  1.8857
   73SLPC   C39 6484   3.502   3.905   9.461  0.1799 -0.7517 -0.2777
   73SLPC   H9X 6485   3.484   4.013   9.441  2.0696 -0.0118  1.5997
   73SLPC   H9Y 6486   3.407   3.848   9.448 -0.1311  0.2685 -3.2376
   73SLPC  C310 6487   3.604   3.856   9.360  0.6414 -0.3718  0.0118
   73SLPC  H10X 6488   3.656   3.762   9.389  3.1560  1.0304  0.3076
   73SLPC  H10Y 6489   3.690   3.925   9.348 -0.7279  1.0723 -2.3458
   73SLPC  C311 6490   3.543   3.832   9.224  0.5990 -0.1553  0.2369
   73SLPC  H11X 6491   3.499   3.929   9.195  0.3649  0.3570  2.1407
   73SLPC  H11Y 6492   3.460   3.760   9.236  2.5488 -2.3309  1.7849
   73SLPC  C312 6493   3.645   3.785   9.110  0.2753  0.6228 -0.4376
   73SLPC  H12X 6494   3.676   3.874   9.051  1.1640 -0.1988 -1.2304
   73SLPC  H12Y 6495   3.586   3.730   9.034  0.6285  3.1889 -2.7144
   73SLPC  C313 6496   3.762   3.700   9.159  0.0246  0.6158 -0.4932
   73SLPC  H13X 6497   3.721   3.629   9.235 -1.3229  0.4683 -1.3295
   73SLPC  H13Y 6498   3.828   3.779   9.201  0.3158  0.0984  0.0460
   73SLPC  C314 6499   3.827   3.620   9.041 -0.8718  0.4700  0.3278
   73SLPC  H14X 6500   3.761   3.536   9.009  0.1975  0.0168 -0.8026
   73SLPC  H14Y 6501   3.921   3.572   9.076 -1.3505  0.4768  1.6713
   73SLPC  C315 6502   3.848   3.692   8.909  0.2675  0.4182 -0.1136
   73SLPC  H15X 6503   3.912   3.780   8.931  4.1680 -1.7853 -1.6253
   73SLPC  H15Y 6504   3.751   3.719   8.862  0.3928  0.6155 -0.2598
   73SLPC  C316 6505   3.919   3.618   8.793  0.7124 -0.2021 -1.2659
   73SLPC  H16X 6506   4.010   3.564   8.829 -0.6822 -0.6836  1.9327
   73SLPC  H16Y 6507   3.934   3.711   8.736  1.2785  1.6029  1.6153
   73SLPC  C317 6508   3.828   3.514   8.717 -0.4530  0.4696 -0.2388
   73SLPC  H17X 6509   3.721   3.543   8.722  0.0081  2.4234 -0.6781
   73SLPC  H17Y 6510   3.837   3.409   8.752 -0.3091  0.3470 -0.6396
   73SLPC  C318 6511   3.871   3.523   8.574  0.7492  0.0328  0.3400
   73SLPC  H18X 6512   3.830   3.618   8.532  0.5266  0.1117  0.7335
   73SLPC  H18Y 6513   3.824   3.438   8.518  1.8265 -1.0527  1.0486
   73SLPC  H18Z 6514   3.980   3.507   8.560  0.5382 -0.5230 -0.7726
   74SLPC     N 6515   5.597   0.669  10.888 -0.1555  0.3283  0.3456
   74SLPC   C13 6516   5.720   0.727  10.821 -0.1335 -0.9748  0.4141
   74SLPC  H13A 6517   5.783   0.648  10.782 -0.9681 -0.7899 -1.4446
   74SLPC  H13B 6518   5.687   0.801  10.749 -1.0327 -0.8449  0.9531
   74SLPC  H13C 6519   5.775   0.780  10.897 -1.1046 -0.4144  0.7410
   74SLPC   C14 6520   5.513   0.787  10.930 -0.3676  1.0629 -0.1078
   74SLPC  H14A 6521   5.422   0.751  10.977 -1.6334 -0.0441 -3.1802
   74SLPC  H14B 6522   5.576   0.841  10.999  1.2454  0.6164 -1.1809
   74SLPC  H14C 6523   5.482   0.851  10.849  0.6812 -1.5330 -2.7047
   74SLPC   C15 6524   5.637   0.587  11.004 -0.3174 -0.3169  0.8531
   74SLPC  H15A 6525   5.689   0.654  11.071  1.0900 -1.1070  0.6168
   74SLPC  H15B 6526   5.549   0.557  11.059 -0.7950  0.8927  0.7768
   74SLPC  H15C 6527   5.702   0.505  10.975 -0.2130 -0.6834  2.0553
   74SLPC   C12 6528   5.522   0.591  10.783 -0.6705 -0.4822  0.3293
   74SLPC  H12A 6529   5.443   0.535  10.832 -0.5219 -4.3101 -3.2070
   74SLPC  H12B 6530   5.580   0.517  10.731 -1.5631 -0.3990 -0.8436
   74SLPC   C11 6531   5.439   0.668  10.673 -0.2950  0.1150 -0.6817
   74SLPC  H11A 6532   5.427   0.601  10.584  0.8719 -0.7570 -0.2198
   74SLPC  H11B 6533   5.515   0.746  10.650  0.7175 -0.7036 -0.2204
   74SLPC     P 6534   5.203   0.656  10.778 -0.0841  0.1256 -0.1208
   74SLPC   O13 6535   5.206   0.652  10.922 -0.2073  0.2473 -0.4230
   74SLPC   O14 6536   5.084   0.715  10.716 -0.0541 -0.0662  0.2188
   74SLPC   O12 6537   5.329   0.737  10.727 -0.0393 -0.3484  0.3844
   74SLPC   O11 6538   5.215   0.512  10.709  0.5498 -0.1152 -0.2291
   74SLPC    C1 6539   5.105   0.425  10.708  0.0344  0.0858 -0.0100
   74SLPC    HA 6540   5.106   0.369  10.803  2.3946 -1.3940 -0.8046
   74SLPC    HB 6541   5.006   0.475  10.702  0.8285  1.8212  0.6166
   74SLPC    C2 6542   5.121   0.325  10.593  0.0592  0.6991  0.5049
   74SLPC    HS 6543   5.214   0.265  10.599 -0.7555 -1.0641 -2.4196
   74SLPC   O21 6544   5.097   0.389  10.464 -0.6061 -0.0350 -0.2803
   74SLPC   C21 6545   5.210   0.397  10.390  0.7813  0.3717  0.2986
   74SLPC   O22 6546   5.322   0.363  10.420  0.1663 -0.4250  0.7617
   74SLPC   C22 6547   5.175   0.467  10.258  0.4337  0.3828 -0.0423
   74SLPC   H2R 6548   5.094   0.403  10.216  1.7539 -0.9976 -0.5713
   74SLPC   H2S 6549   5.161   0.577  10.271  1.5107  0.2791  2.4245
   74SLPC    C3 6550   5.017   0.220  10.606  0.5092  0.0047  0.6427
   74SLPC    HX 6551   4.922   0.276  10.597  0.1936 -0.6176  0.0636
   74SLPC    HY 6552   5.013   0.162  10.701  0.2135 -0.7317  0.1898
   74SLPC   O31 6553   5.014   0.123  10.495 -0.2525  0.1209 -0.3977
   74SLPC   C31 6554   4.914   0.047  10.471  0.0676  0.4974 -0.0843
   74SLPC   O32 6555   4.802   0.043  10.523  0.1896 -0.0211 -0.3872
   74SLPC   C32 6556   4.943  -0.059  10.377 -0.4507 -0.4299  0.2028
   74SLPC   H2X 6557   4.850  -0.115  10.352 -0.6696  0.1016 -0.2058
   74SLPC   H2Y 6558   5.017  -0.132  10.415  0.4952 -0.0720 -0.9043
   74SLPC   C23 6559   5.285   0.463  10.151 -0.0891 -0.5624  0.0317
   74SLPC   H3R 6560   5.321   0.359  10.135 -1.2989 -0.7203 -2.0114
   74SLPC   H3S 6561   5.364   0.535  10.182 -1.6809  1.7428 -0.9437
   74SLPC   C24 6562   5.233   0.514  10.015 -0.5435  0.2885 -0.1762
   74SLPC   H4R 6563   5.189   0.616  10.022 -0.2182  0.6019 -2.0260
   74SLPC   H4S 6564   5.148   0.450   9.983  0.6603 -0.9035 -1.0990
   74SLPC   C25 6565   5.344   0.510   9.910 -0.2629  0.2054  1.0705
   74SLPC   H5R 6566   5.422   0.439   9.945  0.3511  0.9204  1.1793
   74SLPC   H5S 6567   5.397   0.607   9.909  0.1295  0.0012 -0.1392
   74SLPC   C26 6568   5.290   0.469   9.770 -0.4105 -0.1598  0.1545
   74SLPC   H6R 6569   5.206   0.537   9.744 -0.3641  0.0189  0.4621
   74SLPC   H6S 6570   5.242   0.369   9.773  0.2237 -0.4509  1.2853
   74SLPC   C27 6571   5.405   0.478   9.666  0.2843  0.2459 -0.4484
   74SLPC   H7R 6572   5.490   0.420   9.708 -1.5548 -2.1716  0.1593
   74SLPC   H7S 6573   5.433   0.584   9.650 -1.3011  0.8361  0.4545
   74SLPC   C28 6574   5.375   0.409   9.533 -0.0890 -0.1171 -0.0444
   74SLPC   H8R 6575   5.365   0.300   9.555  0.0315 -0.0266  0.4550
   74SLPC   H8S 6576   5.457   0.437   9.463 -2.2160  0.6722 -2.3521
   74SLPC   C29 6577   5.244   0.448   9.475 -0.1426 -0.5207 -0.4171
   74SLPC   H9R 6578   5.169   0.485   9.547 -1.2976 -1.8883 -0.8608
   74SLPC  C210 6579   5.207   0.428   9.346  0.1257 -0.1258 -0.6079
   74SLPC  H10R 6580   5.107   0.460   9.314  0.2952 -0.9895 -2.0941
   74SLPC  C211 6581   5.284   0.359   9.236 -0.3265  0.0771  0.0207
   74SLPC  H11R 6582   5.219   0.311   9.160  0.7571 -1.9548  0.3091
   74SLPC  H11S 6583   5.349   0.276   9.269  1.7024  2.0292  1.2672
   74SLPC  C212 6584   5.377   0.455   9.169  0.1470  0.0878 -0.2970
   74SLPC  H12R 6585   5.380   0.559   9.204 -3.0588  0.7726 -1.6488
   74SLPC  C213 6586   5.467   0.416   9.076  0.1719 -0.0539  0.3777
   74SLPC  H13R 6587   5.528   0.488   9.020 -0.8801  0.8636  0.3859
   74SLPC  C214 6588   5.486   0.278   9.023  0.4610  0.4766  0.2860
   74SLPC  H14R 6589   5.485   0.203   9.105 -1.0089 -3.8510 -3.2836
   74SLPC  H14S 6590   5.583   0.263   8.972 -0.0504 -2.4276  0.0434
   74SLPC  C215 6591   5.379   0.241   8.915  0.8593  0.2670  0.5533
   74SLPC  H15R 6592   5.273   0.259   8.944  0.1395  0.7613 -2.0412
   74SLPC  H15S 6593   5.382   0.134   8.885 -1.2150  0.9173 -2.5641
   74SLPC  C216 6594   5.386   0.320   8.779  0.4940  0.4764 -0.3683
   74SLPC  H16R 6595   5.357   0.426   8.796 -0.3964  0.1209  0.3866
   74SLPC  H16S 6596   5.305   0.270   8.721  2.3202 -0.0292 -2.6508
   74SLPC  C217 6597   5.516   0.310   8.701 -0.0780 -0.8297 -0.3228
   74SLPC  H17R 6598   5.599   0.368   8.748 -1.6786  1.4366 -0.1498
   74SLPC  H17S 6599   5.507   0.350   8.598 -1.8468 -1.2382 -0.3651
   74SLPC  C218 6600   5.567   0.170   8.688  0.4613 -0.0119  0.6381
   74SLPC  H18R 6601   5.647   0.159   8.611  3.1594  3.4720  2.6114
   74SLPC  H18S 6602   5.478   0.111   8.658  0.5198  0.7022 -1.0696
   74SLPC  H18T 6603   5.606   0.134   8.785  0.9490  0.6961  0.7135
   74SLPC   C33 6604   4.995  -0.004  10.239  0.2671  0.4391  0.1099
   74SLPC   H3X 6605   5.040  -0.093  10.191 -2.2414 -1.2089  0.5961
   74SLPC   H3Y 6606   5.075   0.072  10.247 -0.6519  1.7500 -2.2202
   74SLPC   C34 6607   4.893   0.060  10.146  0.0117  0.2317  0.1056
   74SLPC   H4X 6608   4.853   0.155  10.187  0.2838  0.5923 -0.4403
   74SLPC   H4Y 6609   4.812  -0.013  10.125  2.0839 -2.7668  1.7937
   74SLPC   C35 6610   4.959   0.095  10.012  0.2138 -0.6706 -0.3067
   74SLPC   H5X 6611   5.027   0.014   9.977  2.7721  1.3674 -0.3791
   74SLPC   H5Y 6612   5.019   0.187  10.029 -1.1671 -0.2444  3.0025
   74SLPC   C36 6613   4.857   0.138   9.903 -0.6204 -0.0584 -0.2769
   74SLPC   H6X 6614   4.790   0.212   9.952  1.3025  0.0202  2.4154
   74SLPC   H6Y 6615   4.797   0.054   9.862  0.3074 -0.9664  0.1750
   74SLPC   C37 6616   4.922   0.212   9.787  0.6542 -0.3931  0.2712
   74SLPC   H7X 6617   4.993   0.158   9.721  0.3013  1.0395 -1.3677
   74SLPC   H7Y 6618   4.982   0.299   9.822  1.0400 -0.3974 -0.3638
   74SLPC   C38 6619   4.820   0.272   9.688  0.4759  0.0658  0.3012
   74SLPC   H8X 6620   4.751   0.339   9.744  0.0337  0.7140 -0.9715
   74SLPC   H8Y 6621   4.762   0.195   9.634 -1.1197  0.3844  1.4867
   74SLPC   C39 6622   4.878   0.352   9.572 -0.2072 -0.6696  0.2078
   74SLPC   H9X 6623   4.936   0.277   9.514  1.5730 -1.3538  2.6486
   74SLPC   H9Y 6624   4.947   0.432   9.608 -1.2082  0.2360  0.1550
   74SLPC  C310 6625   4.769   0.416   9.481  0.3126  0.4664 -1.0704
   74SLPC  H10X 6626   4.705   0.489   9.536 -1.7851 -1.7121 -0.4245
   74SLPC  H10Y 6627   4.698   0.331   9.472  0.7132 -0.0175  0.1450
   74SLPC  C311 6628   4.817   0.477   9.351 -0.3843 -0.7180  0.4544
   74SLPC  H11X 6629   4.906   0.543   9.351  0.7062 -2.1091 -1.0649
   74SLPC  H11Y 6630   4.728   0.525   9.305  0.4472 -2.9109 -3.8963
   74SLPC  C312 6631   4.854   0.368   9.251  0.1571  0.2145  0.3441
   74SLPC  H12X 6632   4.771   0.295   9.236  1.9068 -1.5615 -1.3118
   74SLPC  H12Y 6633   4.950   0.320   9.279 -0.1171 -0.2481  0.5128
   74SLPC  C313 6634   4.878   0.440   9.119  0.1507  0.3912 -0.0498
   74SLPC  H13X 6635   4.953   0.519   9.140  1.0590 -0.4720  0.0615
   74SLPC  H13Y 6636   4.780   0.473   9.079 -1.0358 -3.7303 -1.0963
   74SLPC  C314 6637   4.935   0.347   9.002  0.9041  0.5323 -0.0692
   74SLPC  H14X 6638   4.860   0.265   8.992  2.8386 -1.4876  0.9222
   74SLPC  H14Y 6639   5.031   0.310   9.045  0.2925  0.4016  1.2226
   74SLPC  C315 6640   4.947   0.420   8.870  0.0010  0.1331 -0.0643
   74SLPC  H15X 6641   4.848   0.466   8.848  0.6563  1.0094 -1.2937
   74SLPC  H15Y 6642   4.978   0.342   8.797  0.9244  1.1643 -0.7969
   74SLPC  C316 6643   5.044   0.537   8.859 -0.5438 -0.4535 -0.3927
   74SLPC  H16X 6644   5.131   0.522   8.926  0.4717  0.6576 -1.4103
   74SLPC  H16Y 6645   5.002   0.629   8.906  0.5207 -0.1891  0.0593
   74SLPC  C317 6646   5.091   0.567   8.729  0.1695  0.4650  0.2894
   74SLPC  H17X 6647   5.011   0.602   8.659 -0.4715 -2.3905 -0.5473
   74SLPC  H17Y 6648   5.147   0.483   8.684  2.8733  1.1928  2.0359
   74SLPC  C318 6649   5.190   0.678   8.727  0.0747 -0.1848 -0.3307
   74SLPC  H18X 6650   5.279   0.665   8.793  0.2659  0.8899 -0.3606
   74SLPC  H18Y 6651   5.151   0.777   8.756  1.3424 -0.2215  1.6760
   74SLPC  H18Z 6652   5.226   0.679   8.622  0.6706 -0.4628 -0.1388
   75SLPC     N 6653   1.195   5.201   5.964  0.0909  0.9313 -0.1203
   75SLPC   C13 6654   1.105   5.320   5.941 -0.1044  0.1407 -0.7024
   75SLPC  H13A 6655   1.110   5.356   5.840  0.8435 -0.1682 -0.7781
   75SLPC  H13B 6656   1.003   5.289   5.958 -0.5264 -0.2417 -3.5186
   75SLPC  H13C 6657   1.128   5.411   5.994  0.7940  0.2035 -1.1863
   75SLPC   C14 6658   1.329   5.215   5.899 -0.5580 -0.6387 -0.0106
   75SLPC  H14A 6659   1.381   5.302   5.939 -0.3313 -2.1859  3.4684
   75SLPC  H14B 6660   1.387   5.126   5.921 -0.7036 -0.9687 -0.9473
   75SLPC  H14C 6661   1.321   5.233   5.793  2.0868  0.6980 -0.0885
   75SLPC   C15 6662   1.131   5.086   5.890 -0.1353 -0.5967  0.0425
   75SLPC  H15A 6663   1.041   5.060   5.943  1.4704  0.7522  3.8400
   75SLPC  H15B 6664   1.114   5.105   5.786 -2.7961 -0.9839  0.3452
   75SLPC  H15C 6665   1.195   4.999   5.886  0.1829 -0.3295 -0.6891
   75SLPC   C12 6666   1.219   5.165   6.109 -0.7112  0.2708 -0.4537
   75SLPC  H12A 6667   1.255   5.251   6.162 -1.9421  0.1128  0.6800
   75SLPC  H12B 6668   1.306   5.101   6.111 -1.6319 -1.0681 -1.0847
   75SLPC   C11 6669   1.105   5.094   6.174 -0.1861 -0.0531 -0.5209
   75SLPC  H11A 6670   1.129   5.067   6.279 -1.2895 -1.0785 -0.5019
   75SLPC  H11B 6671   1.106   4.993   6.128  1.5892 -0.5366  0.5103
   75SLPC     P 6672   0.846   5.095   6.128 -0.4292 -0.3468 -0.0057
   75SLPC   O13 6673   0.796   5.124   5.989  0.0504  0.2703 -0.3164
   75SLPC   O14 6674   0.858   4.951   6.162 -0.1174  0.2404  0.2698
   75SLPC   O12 6675   0.978   5.160   6.169 -0.3525 -1.1706  0.3274
   75SLPC   O11 6676   0.744   5.171   6.220  0.2742  0.5249 -0.1761
   75SLPC    C1 6677   0.776   5.300   6.272  0.0462  0.2533 -0.2708
   75SLPC    HA 6678   0.835   5.361   6.199  1.0359 -0.9439 -0.5074
   75SLPC    HB 6679   0.687   5.359   6.302  1.6570  3.2186 -0.8548
   75SLPC    C2 6680   0.862   5.295   6.404  0.2394 -0.4824  0.0962
   75SLPC    HS 6681   0.955   5.236   6.389  1.1174  0.9442 -0.2532
   75SLPC   O21 6682   0.772   5.235   6.501  0.1475 -0.2090 -0.4478
   75SLPC   C21 6683   0.833   5.154   6.591  0.9506 -0.3944 -0.3991
   75SLPC   O22 6684   0.948   5.122   6.596 -0.1191  0.1678  1.0734
   75SLPC   C22 6685   0.736   5.099   6.693  0.3479 -0.6725 -0.0342
   75SLPC   H2R 6686   0.661   5.181   6.699  0.7626 -0.2154 -0.9212
   75SLPC   H2S 6687   0.665   5.022   6.655  1.6866 -2.2975  0.6488
   75SLPC    C3 6688   0.924   5.427   6.456  0.3375 -0.3800  0.7123
   75SLPC    HX 6689   0.851   5.510   6.466 -1.1334 -1.1368 -2.2864
   75SLPC    HY 6690   0.992   5.459   6.374  0.6521  0.8466  1.4249
   75SLPC   O31 6691   0.997   5.414   6.577 -0.0423  0.3044  0.0016
   75SLPC   C31 6692   0.947   5.462   6.691 -0.7766  0.2469  0.3188
   75SLPC   O32 6693   0.842   5.521   6.714 -0.1921 -0.0606 -0.4933
   75SLPC   C32 6694   1.040   5.416   6.806 -0.3079 -0.5215 -0.3714
   75SLPC   H2X 6695   1.132   5.477   6.792 -0.3866 -0.1882  0.4859
   75SLPC   H2Y 6696   1.069   5.312   6.779  0.7513 -0.3990  0.2216
   75SLPC   C23 6697   0.806   5.074   6.831 -0.3941 -0.2054  0.3340
   75SLPC   H3R 6698   0.836   5.169   6.880 -0.7576 -0.2094  0.5642
   75SLPC   H3S 6699   0.897   5.014   6.809  0.5328  1.0421  0.6466
   75SLPC   C24 6700   0.719   4.981   6.921 -0.0763  0.5215  0.0932
   75SLPC   H4R 6701   0.693   4.892   6.860 -0.1301  0.1313  0.6729
   75SLPC   H4S 6702   0.622   5.027   6.949 -0.6440 -1.5408  1.7923
   75SLPC   C25 6703   0.795   4.926   7.049  0.5386  0.0391 -0.1278
   75SLPC   H5R 6704   0.866   4.847   7.013  0.6536  1.0222 -2.2011
   75SLPC   H5S 6705   0.732   4.868   7.120  0.3464  2.0866  1.4552
   75SLPC   C26 6706   0.864   5.039   7.124 -0.0449 -0.2215 -0.7143
   75SLPC   H6R 6707   0.791   5.098   7.183 -0.4178 -0.4581 -0.9362
   75SLPC   H6S 6708   0.908   5.112   7.052  1.0649 -2.5486 -2.5510
   75SLPC   C27 6709   0.975   4.995   7.232  0.4646  0.1615 -0.6640
   75SLPC   H7R 6710   1.037   5.084   7.255  0.1568  0.2999 -0.3769
   75SLPC   H7S 6711   1.056   4.939   7.179  1.2247 -0.7125  1.3434
   75SLPC   C28 6712   0.928   4.918   7.363  0.1413  0.1087  0.5057
   75SLPC   H8R 6713   1.019   4.873   7.408 -0.6151 -0.1578  1.8170
   75SLPC   H8S 6714   0.867   4.832   7.329  1.3373 -1.6736  2.5849
   75SLPC   C29 6715   0.854   5.009   7.457 -0.5088  0.0815 -0.0144
   75SLPC   H9R 6716   0.811   5.092   7.398 -2.9780 -0.6413  0.6565
   75SLPC  C210 6717   0.875   5.020   7.593  0.4360  0.1933  0.2419
   75SLPC  H10R 6718   0.830   5.102   7.651  1.9307  1.3000 -0.1142
   75SLPC  C211 6719   0.953   4.909   7.668 -0.1502 -0.2444 -0.5883
   75SLPC  H11R 6720   1.059   4.911   7.634  0.0209 -0.2079 -0.0611
   75SLPC  H11S 6721   0.915   4.807   7.644 -0.9343  0.0755 -0.7249
   75SLPC  C212 6722   0.967   4.937   7.818 -0.0945 -0.1936 -0.3335
   75SLPC  H12R 6723   0.983   5.042   7.846  0.6465 -0.2807 -0.4152
   75SLPC  C213 6724   0.973   4.845   7.914  0.1063  0.2559 -0.0172
   75SLPC  H13R 6725   0.961   4.878   8.018 -0.1763 -0.5519  0.2133
   75SLPC  C214 6726   0.978   4.699   7.890 -0.7377  0.5325 -0.0932
   75SLPC  H14R 6727   1.086   4.675   7.881 -0.7735  0.2136  0.2771
   75SLPC  H14S 6728   0.929   4.672   7.794 -1.0459  0.1277  0.1715
   75SLPC  C215 6729   0.917   4.609   7.995 -0.3729 -0.2680 -0.6997
   75SLPC  H15R 6730   0.911   4.507   7.951 -0.5450 -0.9415  0.8067
   75SLPC  H15S 6731   0.813   4.646   8.004  0.0947  1.0434 -0.5873
   75SLPC  C216 6732   0.991   4.621   8.129  0.0684 -0.6104 -0.8721
   75SLPC  H16R 6733   0.958   4.713   8.182  0.5940 -1.0370  0.2245
   75SLPC  H16S 6734   1.102   4.624   8.126  0.1051 -1.4634 -0.7627
   75SLPC  C217 6735   0.948   4.509   8.224 -0.8201  0.2884 -0.8122
   75SLPC  H17R 6736   0.983   4.409   8.191 -0.2281  0.5148 -0.8900
   75SLPC  H17S 6737   0.841   4.508   8.253 -0.4092  0.3954  0.8239
   75SLPC  C218 6738   1.017   4.540   8.356  0.4092 -0.5702 -0.3074
   75SLPC  H18R 6739   1.123   4.568   8.342  1.1715 -1.4965  2.7737
   75SLPC  H18S 6740   1.030   4.456   8.428  1.7261 -0.5307 -0.4828
   75SLPC  H18T 6741   0.964   4.623   8.407 -0.7632 -1.3461 -0.2173
   75SLPC   C33 6742   0.986   5.424   6.950  0.7016  0.3491  0.2549
   75SLPC   H3X 6743   0.947   5.526   6.971 -0.4341 -0.1197  0.4704
   75SLPC   H3Y 6744   0.905   5.352   6.973  0.8080  0.2864  0.4350
   75SLPC   C34 6745   1.107   5.393   7.046  0.2821 -0.4017  0.3919
   75SLPC   H4X 6746   1.172   5.482   7.030 -2.2644  1.5686  0.2976
   75SLPC   H4Y 6747   1.153   5.300   7.006 -0.6084  0.2439 -2.3691
   75SLPC   C35 6748   1.046   5.384   7.190 -0.5822  0.1133 -0.3133
   75SLPC   H5X 6749   0.984   5.292   7.191  0.2133 -0.4321 -0.0217
   75SLPC   H5Y 6750   0.982   5.473   7.211  0.2270  0.9451 -1.2285
   75SLPC   C36 6751   1.146   5.370   7.306  0.9251 -0.1164 -0.1275
   75SLPC   H6X 6752   1.225   5.448   7.294 -0.5255  1.3133 -0.6865
   75SLPC   H6Y 6753   1.201   5.274   7.303 -0.3580 -0.8597 -0.2394
   75SLPC   C37 6754   1.067   5.369   7.442 -0.5283 -0.1956 -0.0549
   75SLPC   H7X 6755   0.998   5.282   7.435 -2.5841  1.2202  1.1823
   75SLPC   H7Y 6756   1.008   5.463   7.444  0.7594  0.6243  0.9805
   75SLPC   C38 6757   1.164   5.357   7.560  0.1303  0.5398  0.0291
   75SLPC   H8X 6758   1.242   5.435   7.575  2.5343 -1.6689 -0.4454
   75SLPC   H8Y 6759   1.218   5.263   7.540 -1.2358  0.0659 -1.6524
   75SLPC   C39 6760   1.095   5.349   7.700 -0.1078 -0.6446 -0.1962
   75SLPC   H9X 6761   1.005   5.283   7.698 -0.3639 -0.4243  1.8818
   75SLPC   H9Y 6762   1.063   5.455   7.712  3.6428  0.5483  0.2923
   75SLPC  C310 6763   1.170   5.305   7.823  0.1262 -0.5936 -0.2983
   75SLPC  H10X 6764   1.247   5.379   7.852 -0.8180  0.3630 -0.1692
   75SLPC  H10Y 6765   1.211   5.202   7.815 -2.1783 -1.6335  0.4210
   75SLPC  C311 6766   1.081   5.302   7.948  0.4221 -0.0601 -0.0503
   75SLPC  H11X 6767   0.990   5.241   7.930 -0.6166  0.7744  2.0764
   75SLPC  H11Y 6768   1.048   5.400   7.987 -0.1562  0.6092 -2.1069
   75SLPC  C312 6769   1.153   5.232   8.059 -0.1525 -0.4513 -0.4947
   75SLPC  H12X 6770   1.240   5.296   8.081  0.3069 -0.8892 -0.9961
   75SLPC  H12Y 6771   1.179   5.129   8.024  0.5012 -0.3012 -0.4630
   75SLPC  C313 6772   1.068   5.197   8.182  0.3604 -0.3479  0.0834
   75SLPC  H13X 6773   0.978   5.144   8.144  0.3597 -0.3891  0.1408
   75SLPC  H13Y 6774   1.032   5.290   8.230 -2.2181  0.4858 -3.1103
   75SLPC  C314 6775   1.149   5.107   8.278  0.8510 -1.0138 -0.2607
   75SLPC  H14X 6776   1.241   5.167   8.296  1.4427 -1.7471 -0.7673
   75SLPC  H14Y 6777   1.188   5.023   8.217  0.6128 -0.5788 -1.0348
   75SLPC  C315 6778   1.083   5.061   8.404 -0.5704 -0.1222 -0.5797
   75SLPC  H15X 6779   1.054   5.153   8.459 -0.2040 -0.2765 -0.1164
   75SLPC  H15Y 6780   1.150   5.008   8.475 -2.0130 -0.3460  0.6756
   75SLPC  C316 6781   0.958   4.980   8.369 -0.4791 -0.3413 -0.8068
   75SLPC  H16X 6782   1.001   4.893   8.314  0.9220 -0.7269  0.8099
   75SLPC  H16Y 6783   0.896   5.028   8.290 -1.0729 -2.8178 -1.9649
   75SLPC  C317 6784   0.885   4.923   8.491  0.1570 -0.3984 -0.2467
   75SLPC  H17X 6785   0.945   4.845   8.542 -0.3105  1.0825  2.7940
   75SLPC  H17Y 6786   0.796   4.874   8.446 -0.0159 -2.4467  2.1351
   75SLPC  C318 6787   0.853   5.031   8.594  0.5278 -0.7595  0.2854
   75SLPC  H18X 6788   0.800   4.998   8.686 -1.2347 -0.4502 -0.5784
   75SLPC  H18Y 6789   0.794   5.112   8.547  1.0635 -0.4423  0.1420
   75SLPC  H18Z 6790   0.946   5.081   8.627  0.5701  0.5558 -1.6525
   76SLPC     N 6791   4.451   4.201   5.757  0.3643  0.1643 -0.1554
   76SLPC   C13 6792   4.380   4.088   5.681  0.0771  0.3044  0.0026
   76SLPC  H13A 6793   4.383   4.114   5.576 -0.8502 -0.5113 -0.2341
   76SLPC  H13B 6794   4.444   4.001   5.682  0.4514  0.5752  1.5432
   76SLPC  H13C 6795   4.281   4.072   5.720  0.6609  0.0716  1.4554
   76SLPC   C14 6796   4.366   4.325   5.739  0.0095  0.0314  0.1165
   76SLPC  H14A 6797   4.406   4.407   5.798  0.0972  0.9088 -1.1266
   76SLPC  H14B 6798   4.351   4.351   5.636  2.0665  0.5914 -0.0922
   76SLPC  H14C 6799   4.270   4.303   5.783  0.4450 -2.2437  0.0826
   76SLPC   C15 6800   4.582   4.224   5.696 -0.0273 -0.0961  0.0223
   76SLPC  H15A 6801   4.645   4.137   5.708  0.9065  0.6724  0.8286
   76SLPC  H15B 6802   4.583   4.257   5.593 -1.7938 -0.6810 -0.2135
   76SLPC  H15C 6803   4.639   4.298   5.750 -1.2495  0.1058  1.0833
   76SLPC   C12 6804   4.461   4.168   5.904 -0.2569  0.6798 -0.2515
   76SLPC  H12A 6805   4.514   4.075   5.918  1.1442  1.2165 -1.7066
   76SLPC  H12B 6806   4.366   4.138   5.946 -0.7447  1.2981 -0.9050
   76SLPC   C11 6807   4.532   4.262   6.011  0.3345 -0.1086  0.2697
   76SLPC  H11A 6808   4.637   4.286   5.981 -0.8272  3.3141 -1.6396
   76SLPC  H11B 6809   4.531   4.201   6.104  1.0285 -0.8138 -0.1649
   76SLPC     P 6810   4.325   4.404   6.107 -0.0760  0.1872  0.4148
   76SLPC   O13 6811   4.269   4.536   6.087  0.1814 -0.1238 -0.1519
   76SLPC   O14 6812   4.240   4.284   6.081 -0.4776 -0.3013 -0.3966
   76SLPC   O12 6813   4.462   4.385   6.022 -0.0031 -1.2665  0.3721
   76SLPC   O11 6814   4.362   4.387   6.260  0.0640 -0.0642  0.0060
   76SLPC    C1 6815   4.485   4.433   6.322 -0.1228  0.4183  0.0490
   76SLPC    HA 6816   4.566   4.455   6.249 -1.5313  0.5886 -1.5507
   76SLPC    HB 6817   4.470   4.524   6.383  0.7441  1.6545 -1.5209
   76SLPC    C2 6818   4.545   4.319   6.414  0.0678 -0.1584  0.5316
   76SLPC    HS 6819   4.570   4.237   6.342  0.5627  1.3808 -1.1356
   76SLPC   O21 6820   4.448   4.281   6.510  0.0399 -0.3300  0.1119
   76SLPC   C21 6821   4.471   4.156   6.559  0.9342 -0.6826  0.0801
   76SLPC   O22 6822   4.540   4.072   6.513  0.0416  0.7292  0.4226
   76SLPC   C22 6823   4.395   4.150   6.691  0.6815  0.3315 -0.2070
   76SLPC   H2R 6824   4.366   4.253   6.719  1.0892  0.1630  0.8697
   76SLPC   H2S 6825   4.305   4.090   6.665  1.3748 -0.6881 -0.3086
   76SLPC    C3 6826   4.676   4.368   6.475  0.7115  0.8481 -0.4378
   76SLPC    HX 6827   4.748   4.397   6.395 -0.9741  0.0601 -2.3600
   76SLPC    HY 6828   4.713   4.277   6.526  1.1897  0.1345 -1.9793
   76SLPC   O31 6829   4.655   4.479   6.561  0.0364  0.2858 -0.6436
   76SLPC   C31 6830   4.637   4.446   6.692  0.0730  0.6162 -0.2097
   76SLPC   O32 6831   4.650   4.330   6.733 -0.5013 -0.5425 -0.2863
   76SLPC   C32 6832   4.596   4.569   6.764  0.6944 -0.5681  0.5868
   76SLPC   H2X 6833   4.492   4.590   6.731  0.3097 -3.9990 -0.8587
   76SLPC   H2Y 6834   4.646   4.654   6.712 -0.0438  1.2650  2.7066
   76SLPC   C23 6835   4.465   4.066   6.794  0.3688  0.1354 -0.1202
   76SLPC   H3R 6836   4.565   4.103   6.825  0.8379 -1.3013  0.1669
   76SLPC   H3S 6837   4.490   3.964   6.757  0.5431 -0.5600  1.8193
   76SLPC   C24 6838   4.395   4.056   6.925  0.3428  0.1915 -0.1323
   76SLPC   H4R 6839   4.440   3.983   6.995 -0.7388  1.1551  1.6329
   76SLPC   H4S 6840   4.291   4.024   6.902  0.2317  1.4003 -1.4026
   76SLPC   C25 6841   4.383   4.197   6.989  0.7808  0.5607  0.1076
   76SLPC   H5R 6842   4.329   4.261   6.915 -0.8391 -1.4278 -0.5356
   76SLPC   H5S 6843   4.481   4.233   7.026  0.5417  1.1818  0.1442
   76SLPC   C26 6844   4.288   4.194   7.108 -0.1834  0.1452  0.3455
   76SLPC   H6R 6845   4.323   4.111   7.174 -1.1287  0.0334  0.7361
   76SLPC   H6S 6846   4.183   4.175   7.077  0.7554 -3.4477 -1.0486
   76SLPC   C27 6847   4.297   4.328   7.178  0.1533 -0.0128 -0.4877
   76SLPC   H7R 6848   4.304   4.417   7.112 -0.1100  1.4687  1.3849
   76SLPC   H7S 6849   4.402   4.323   7.214  0.3882  0.6404 -1.0479
   76SLPC   C28 6850   4.194   4.350   7.294 -0.1865 -0.1369  1.5678
   76SLPC   H8R 6851   4.094   4.340   7.246  0.2241  1.4711  0.2714
   76SLPC   H8S 6852   4.203   4.271   7.371  0.3772 -0.2365  1.4060
   76SLPC   C29 6853   4.199   4.491   7.334 -0.5980  0.1858 -0.5200
   76SLPC   H9R 6854   4.156   4.558   7.259 -0.2609 -0.4861 -1.3322
   76SLPC  C210 6855   4.253   4.536   7.454 -0.8371 -0.0102  0.9395
   76SLPC  H10R 6856   4.249   4.645   7.469 -0.5326  0.7456 -3.2513
   76SLPC  C211 6857   4.329   4.458   7.563 -1.1133  0.0441 -0.2997
   76SLPC  H11R 6858   4.321   4.349   7.544 -1.7064  0.1861 -0.9139
   76SLPC  H11S 6859   4.280   4.493   7.657 -1.8598 -1.0271 -0.2745
   76SLPC  C212 6860   4.472   4.503   7.576 -0.3281 -0.3706 -0.1867
   76SLPC  H12R 6861   4.520   4.535   7.482 -0.7935 -0.9285 -0.6230
   76SLPC  C213 6862   4.544   4.490   7.690  0.3749  0.1742 -0.4214
   76SLPC  H13R 6863   4.650   4.516   7.692  1.1996 -2.6332 -1.9340
   76SLPC  C214 6864   4.495   4.437   7.830 -0.5610 -0.1427  0.7982
   76SLPC  H14R 6865   4.385   4.451   7.827 -0.5776 -0.3587 -2.6103
   76SLPC  H14S 6866   4.527   4.492   7.921 -1.4026  1.4434  0.1628
   76SLPC  C215 6867   4.544   4.290   7.843 -0.6935  0.3631 -0.0883
   76SLPC  H15R 6868   4.651   4.287   7.875 -0.7959  2.0878  0.5185
   76SLPC  H15S 6869   4.522   4.237   7.748 -1.9490 -0.9837  0.9096
   76SLPC  C216 6870   4.463   4.210   7.945 -0.4021 -0.7433  0.0377
   76SLPC  H16R 6871   4.356   4.216   7.916  0.2708  0.4848 -2.4772
   76SLPC  H16S 6872   4.469   4.256   8.046  1.7663 -3.3315  1.2165
   76SLPC  C217 6873   4.504   4.059   7.963  1.0656  0.4124  0.0261
   76SLPC  H17R 6874   4.610   4.053   7.996  1.6844 -1.6374 -2.0135
   76SLPC  H17S 6875   4.488   4.008   7.865 -1.6082  1.3576 -0.1096
   76SLPC  C218 6876   4.413   3.991   8.072 -0.2655  0.0803  0.3013
   76SLPC  H18R 6877   4.401   4.067   8.152 -2.4631  1.7879 -1.5353
   76SLPC  H18S 6878   4.448   3.890   8.101 -0.0157  0.0823  0.0087
   76SLPC  H18T 6879   4.309   3.971   8.038 -0.4978  1.0690  0.3946
   76SLPC   C33 6880   4.613   4.574   6.916 -0.0961  0.6416 -0.3723
   76SLPC   H3X 6881   4.537   4.503   6.956 -0.2604  0.3750 -1.1469
   76SLPC   H3Y 6882   4.579   4.676   6.944  0.6148  0.3460  1.7695
   76SLPC   C34 6883   4.758   4.555   6.966 -0.3280 -0.2489 -0.7157
   76SLPC   H4X 6884   4.828   4.629   6.922  0.3701 -0.5092 -0.0593
   76SLPC   H4Y 6885   4.790   4.455   6.931  2.7544  0.1170  0.6908
   76SLPC   C35 6886   4.762   4.562   7.122 -0.4309 -0.2177  0.1137
   76SLPC   H5X 6887   4.732   4.667   7.138  1.7191  0.8147 -2.0234
   76SLPC   H5Y 6888   4.870   4.556   7.151  0.3148 -2.1628 -2.6901
   76SLPC   C36 6889   4.680   4.450   7.189 -0.7600 -0.5147  0.2246
   76SLPC   H6X 6890   4.573   4.463   7.163 -1.3497 -0.9233  2.2700
   76SLPC   H6Y 6891   4.685   4.467   7.299  0.7681  0.7674 -0.0094
   76SLPC   C37 6892   4.718   4.308   7.166 -0.2751 -0.6152  0.0191
   76SLPC   H7X 6893   4.827   4.307   7.144 -0.0815 -0.7579  0.9542
   76SLPC   H7Y 6894   4.676   4.260   7.074 -1.0940  1.3905 -0.7012
   76SLPC   C38 6895   4.682   4.211   7.275  0.1155  0.6925  0.0998
   76SLPC   H8X 6896   4.679   4.107   7.237  2.0869  0.9411 -0.8616
   76SLPC   H8Y 6897   4.584   4.238   7.321  0.4901  1.1438  0.6485
   76SLPC   C39 6898   4.768   4.212   7.398  0.3566  0.7121 -0.3226
   76SLPC   H9X 6899   4.758   4.308   7.452 -4.1903  0.1464  0.2519
   76SLPC   H9Y 6900   4.877   4.200   7.384  0.4777 -0.7971  1.5402
   76SLPC  C310 6901   4.737   4.103   7.507  0.3324  0.3130 -0.1881
   76SLPC  H10X 6902   4.753   4.006   7.456  0.9000  0.0919  0.3976
   76SLPC  H10Y 6903   4.634   4.096   7.547  1.0009  0.0532  1.5569
   76SLPC  C311 6904   4.818   4.096   7.639  0.2246 -0.0753  0.4932
   76SLPC  H11X 6905   4.809   4.189   7.700  0.5129 -0.6329  1.3976
   76SLPC  H11Y 6906   4.927   4.092   7.617 -0.3514 -1.8631 -2.5310
   76SLPC  C312 6907   4.775   3.971   7.709  0.5520 -0.1650 -0.0594
   76SLPC  H12X 6908   4.780   3.873   7.656 -1.3908 -0.7907  0.8220
   76SLPC  H12Y 6909   4.673   3.981   7.753 -0.8953  0.7634 -3.3225
   76SLPC  C313 6910   4.856   3.943   7.840 -0.6634  0.5096  0.2986
   76SLPC  H13X 6911   4.867   4.037   7.899  0.3056 -1.1265  2.8761
   76SLPC  H13Y 6912   4.961   3.917   7.819 -0.5702 -0.0060  1.3213
   76SLPC  C314 6913   4.809   3.830   7.940  0.2312  0.3040 -0.0211
   76SLPC  H14X 6914   4.787   3.743   7.875 -0.9802  0.2370  0.4542
   76SLPC  H14Y 6915   4.714   3.873   7.978  0.8161  2.3339 -0.6724
   76SLPC  C315 6916   4.910   3.788   8.051 -0.2618  0.0143  0.0228
   76SLPC  H15X 6917   4.943   3.890   8.080 -3.1906  1.6640 -1.8894
   76SLPC  H15Y 6918   5.006   3.745   8.015 -0.3833  0.0788 -0.3813
   76SLPC  C316 6919   4.851   3.708   8.170 -0.2650 -0.6316 -0.0159
   76SLPC  H16X 6920   4.792   3.621   8.133  0.8502 -1.3416 -0.1684
   76SLPC  H16Y 6921   4.779   3.763   8.234 -0.4780 -0.7328 -0.1677
   76SLPC  C317 6922   4.952   3.663   8.279 -0.7070  0.4617 -0.2462
   76SLPC  H17X 6923   5.018   3.579   8.249  0.2253  0.5972  1.2944
   76SLPC  H17Y 6924   4.885   3.616   8.354  0.8153 -0.3135  0.6804
   76SLPC  C318 6925   5.047   3.777   8.326 -0.6296  0.3260  0.1310
   76SLPC  H18X 6926   5.130   3.795   8.254  1.8690 -2.2492  2.1243
   76SLPC  H18Y 6927   5.091   3.757   8.426  0.4616  0.4410 -0.3098
   76SLPC  H18Z 6928   4.983   3.868   8.335 -1.1912  0.1773 -2.0139
   77SLPC     N 6929   6.590   4.682   5.926 -0.1620 -0.4879 -0.0353
   77SLPC   C13 6930   6.450   4.651   5.970  0.1448 -0.3645 -0.0136
   77SLPC  H13A 6931   6.442   4.553   6.014 -1.6912 -1.4987 -2.6223
   77SLPC  H13B 6932   6.418   4.720   6.047  0.5375  0.9110 -0.9587
   77SLPC  H13C 6933   6.388   4.651   5.882  2.0320 -2.6108 -1.4798
   77SLPC   C14 6934   6.589   4.794   5.832 -0.2196  0.3232  0.0786
   77SLPC  H14A 6935   6.680   4.816   5.779 -0.2697  0.2880 -0.0223
   77SLPC  H14B 6936   6.512   4.792   5.755 -1.5484  2.8003  1.2308
   77SLPC  H14C 6937   6.569   4.889   5.880 -0.2115  0.5831 -0.4249
   77SLPC   C15 6938   6.649   4.552   5.859  0.2652 -0.3873 -1.1521
   77SLPC  H15A 6939   6.619   4.461   5.909 -1.2898  0.0022 -1.3453
   77SLPC  H15B 6940   6.626   4.548   5.753  1.1239  1.1438 -1.4341
   77SLPC  H15C 6941   6.756   4.570   5.856  0.2318 -0.2243 -1.4186
   77SLPC   C12 6942   6.674   4.728   6.044  0.2115 -0.1180 -0.4255
   77SLPC  H12A 6943   6.685   4.646   6.113 -2.9521 -0.6215 -0.3764
   77SLPC  H12B 6944   6.615   4.803   6.095 -2.3996 -0.3920 -2.8363
   77SLPC   C11 6945   6.813   4.794   6.023 -0.1567  0.2574 -0.3597
   77SLPC  H11A 6946   6.836   4.847   6.118 -0.6082 -0.0755 -0.0578
   77SLPC  H11B 6947   6.807   4.868   5.941  0.4357  0.6388 -0.0622
   77SLPC     P 6948   6.969   4.597   6.114  0.4654  0.0723  0.1846
   77SLPC   O13 6949   6.872   4.484   6.140 -0.3779  0.0409  0.2258
   77SLPC   O14 6950   7.107   4.558   6.077 -0.6246 -0.1809  0.6475
   77SLPC   O12 6951   6.908   4.690   5.993 -0.2869 -0.9880 -0.2732
   77SLPC   O11 6952   6.969   4.692   6.237  0.3571  0.1837 -0.7262
   77SLPC    C1 6953   6.982   4.648   6.372 -0.1830  0.4119 -0.1075
   77SLPC    HA 6954   7.007   4.540   6.381 -1.9780  0.1362  2.8397
   77SLPC    HB 6955   7.065   4.707   6.415  1.6520  0.7153 -3.6773
   77SLPC    C2 6956   6.850   4.667   6.459  1.2099 -0.1650  0.3193
   77SLPC    HS 6957   6.785   4.594   6.407  0.5161 -0.3690  1.4456
   77SLPC   O21 6958   6.803   4.805   6.436  0.2731 -0.2040  0.4532
   77SLPC   C21 6959   6.667   4.821   6.458 -0.9736  0.2172  0.4491
   77SLPC   O22 6960   6.593   4.730   6.483  0.1944 -0.1906 -0.9090
   77SLPC   C22 6961   6.637   4.967   6.455  0.6626  0.1552  0.6682
   77SLPC   H2R 6962   6.717   5.015   6.394  0.7311 -2.0295 -1.1018
   77SLPC   H2S 6963   6.542   4.987   6.401  0.7238  0.6248  0.7236
   77SLPC    C3 6964   6.876   4.631   6.609  0.4883  0.1025  0.4399
   77SLPC    HX 6965   6.773   4.634   6.650 -0.4857 -1.8563 -1.6299
   77SLPC    HY 6966   6.939   4.712   6.650 -0.6148  2.6496 -2.5469
   77SLPC   O31 6967   6.922   4.499   6.630  0.2329 -0.8551  0.3877
   77SLPC   C31 6968   6.939   4.476   6.761  0.3626 -0.2354 -0.3663
   77SLPC   O32 6969   6.927   4.562   6.849  0.1437 -0.4333  0.1690
   77SLPC   C32 6970   6.955   4.327   6.781  0.2857 -0.1531  0.1867
   77SLPC   H2X 6971   6.996   4.287   6.686 -0.9183  1.5493 -1.1077
   77SLPC   H2Y 6972   6.853   4.284   6.792 -0.3152  0.7699 -1.5277
   77SLPC   C23 6973   6.637   5.024   6.597  0.1464 -0.2429 -0.7173
   77SLPC   H3R 6974   6.733   4.996   6.645 -0.6407 -2.1174 -0.1631
   77SLPC   H3S 6975   6.558   4.970   6.651 -0.3125  0.6916 -0.4274
   77SLPC   C24 6976   6.621   5.177   6.594  0.2034  0.5562  0.5851
   77SLPC   H4R 6977   6.536   5.197   6.524 -1.0171  0.9125  2.1239
   77SLPC   H4S 6978   6.716   5.227   6.568  1.1190 -1.7089 -0.7346
   77SLPC   C25 6979   6.569   5.225   6.726 -0.2929  0.5243 -0.4031
   77SLPC   H5R 6980   6.470   5.178   6.744 -0.0818 -0.3847 -1.4887
   77SLPC   H5S 6981   6.562   5.335   6.744 -0.5307  0.3488  0.6710
   77SLPC   C26 6982   6.665   5.185   6.845  0.3636  0.1170  0.1800
   77SLPC   H6R 6983   6.764   5.205   6.801  0.2358  0.2833 -0.0327
   77SLPC   H6S 6984   6.641   5.077   6.850 -1.3422  0.4128 -0.6667
   77SLPC   C27 6985   6.635   5.261   6.977  0.2087  0.4551 -0.1792
   77SLPC   H7R 6986   6.526   5.255   6.996  0.3407 -1.9307  0.0397
   77SLPC   H7S 6987   6.654   5.371   6.971  0.5825  0.5219  1.8296
   77SLPC   C28 6988   6.709   5.216   7.109 -0.5048 -0.7459 -0.2676
   77SLPC   H8R 6989   6.719   5.106   7.110 -0.6714 -0.7837 -1.2500
   77SLPC   H8S 6990   6.639   5.246   7.190  0.9635 -0.4823  0.9512
   77SLPC   C29 6991   6.848   5.267   7.135 -0.6876  0.5096  0.2110
   77SLPC   H9R 6992   6.901   5.282   7.041 -1.8479 -1.1644 -0.7616
   77SLPC  C210 6993   6.919   5.285   7.244 -0.0338 -0.1626  0.3321
   77SLPC  H10R 6994   7.022   5.318   7.228  0.3588 -1.1734  0.6704
   77SLPC  C211 6995   6.869   5.265   7.381 -0.0209  0.7356 -0.0795
   77SLPC  H11R 6996   6.884   5.158   7.406  0.1295  1.0419  1.1852
   77SLPC  H11S 6997   6.759   5.277   7.389 -0.2732 -1.6432  0.6443
   77SLPC  C212 6998   6.932   5.362   7.476  0.1117  0.0710  0.1613
   77SLPC  H12R 6999   6.923   5.468   7.447 -0.5812 -0.1299 -0.3783
   77SLPC  C213 7000   7.002   5.324   7.583  0.2760  0.4029  0.5171
   77SLPC  H13R 7001   7.045   5.407   7.641 -1.3407 -0.3693  2.9796
   77SLPC  C214 7002   7.047   5.183   7.620  0.1134 -0.3277 -0.3425
   77SLPC  H14R 7003   7.151   5.167   7.584 -0.1433  2.1539 -2.4521
   77SLPC  H14S 7004   6.987   5.106   7.567 -0.3265 -0.7745  0.7729
   77SLPC  C215 7005   7.032   5.156   7.777 -0.4704 -0.1104  0.8441
   77SLPC  H15R 7006   7.081   5.241   7.828 -0.0165 -0.2476  0.6354
   77SLPC  H15S 7007   7.080   5.057   7.790  0.7313  0.6748  2.7867
   77SLPC  C216 7008   6.882   5.155   7.828  0.2619 -0.3551 -0.9728
   77SLPC  H16R 7009   6.818   5.081   7.775  0.0579 -0.3241 -0.7688
   77SLPC  H16S 7010   6.845   5.255   7.797 -0.6883 -0.6341 -0.7652
   77SLPC  C217 7011   6.875   5.149   7.984  0.0779  0.7481 -0.3374
   77SLPC  H17R 7012   6.877   5.042   8.017 -2.2002  0.8064  0.1665
   77SLPC  H17S 7013   6.768   5.171   8.005  0.3602  1.3495  0.5061
   77SLPC  C218 7014   6.975   5.230   8.067 -0.5335 -0.2569 -0.2138
   77SLPC  H18R 7015   7.074   5.212   8.020 -0.9135  0.0007 -1.1349
   77SLPC  H18S 7016   6.981   5.213   8.177 -1.1974  1.3059  0.0966
   77SLPC  H18T 7017   6.952   5.336   8.044  0.4539  0.2248  0.9285
   77SLPC   C33 7018   7.052   4.282   6.898  0.4280 -0.0781  0.6367
   77SLPC   H3X 7019   7.153   4.329   6.902  0.6261  0.0336 -3.0254
   77SLPC   H3Y 7020   7.076   4.174   6.888 -1.1007 -0.6510  2.5212
   77SLPC   C34 7021   6.980   4.288   7.034 -0.1163  0.2084  0.2694
   77SLPC   H4X 7022   6.880   4.243   7.020 -0.1304 -0.3672  2.0105
   77SLPC   H4Y 7023   6.962   4.397   7.050 -0.3938  0.2037 -0.0094
   77SLPC   C35 7024   7.043   4.235   7.158  0.5625 -0.5903 -0.2556
   77SLPC   H5X 7025   7.134   4.295   7.180  0.2353  1.1001 -3.0809
   77SLPC   H5Y 7026   7.077   4.131   7.141 -0.5244 -0.8524 -0.8842
   77SLPC   C36 7027   6.947   4.231   7.274  0.7894  0.4080 -0.1846
   77SLPC   H6X 7028   6.882   4.142   7.260 -0.4378  0.7624  2.5237
   77SLPC   H6Y 7029   6.879   4.319   7.274  0.1566 -0.0607 -1.3515
   77SLPC   C37 7030   7.024   4.200   7.403  0.0088 -0.2776 -0.5144
   77SLPC   H7X 7031   7.112   4.267   7.408  0.9222 -1.4968  0.4086
   77SLPC   H7Y 7032   7.050   4.092   7.395  0.3036 -0.2191 -0.3465
   77SLPC   C38 7033   6.945   4.224   7.533 -0.2811  0.4041  0.4781
   77SLPC   H8X 7034   6.843   4.182   7.518 -0.3178  0.5243  0.3890
   77SLPC   H8Y 7035   6.941   4.332   7.558 -1.7788  0.6296 -0.5761
   77SLPC   C39 7036   7.004   4.148   7.653 -0.0408  0.9128  0.3436
   77SLPC   H9X 7037   7.115   4.141   7.657  0.1412  3.2652  1.0496
   77SLPC   H9Y 7038   6.976   4.046   7.621  0.1628  1.5003 -1.8541
   77SLPC  C310 7039   6.959   4.193   7.794 -0.1479 -0.3444 -0.5483
   77SLPC  H10X 7040   6.849   4.179   7.802 -0.0159 -0.8620  0.5691
   77SLPC  H10Y 7041   6.985   4.300   7.807  0.6418 -0.4487 -1.1726
   77SLPC  C311 7042   7.036   4.115   7.906 -0.1461 -0.0054  0.5457
   77SLPC  H11X 7043   7.011   4.161   8.004 -0.2622  0.8202  0.1379
   77SLPC  H11Y 7044   7.145   4.130   7.887 -0.1367  0.2906  0.8203
   77SLPC  C312 7045   6.990   3.970   7.911  0.2913 -0.0832 -0.1413
   77SLPC  H12X 7046   7.035   3.910   7.829  0.2417 -0.3892  0.0542
   77SLPC  H12Y 7047   6.881   3.962   7.893  0.2568 -1.0782  0.4108
   77SLPC  C313 7048   7.035   3.887   8.038  0.3297 -0.5199 -0.2257
   77SLPC  H13X 7049   7.006   3.937   8.133 -2.0601 -1.3232 -0.4696
   77SLPC  H13Y 7050   7.145   3.880   8.046  0.2290 -1.2561  0.8633
   77SLPC  C314 7051   6.960   3.747   8.049  0.2057 -0.2062 -0.0003
   77SLPC  H14X 7052   6.983   3.688   7.958  1.9611 -0.4190  0.5358
   77SLPC  H14Y 7053   6.852   3.766   8.036  0.0555 -0.6752  0.5285
   77SLPC  C315 7054   6.998   3.669   8.172  0.1335 -0.0722 -0.0063
   77SLPC  H15X 7055   6.936   3.577   8.174  1.0530 -0.7033  1.9584
   77SLPC  H15Y 7056   6.977   3.731   8.262  0.2314  0.2617 -0.2110
   77SLPC  C316 7057   7.140   3.619   8.174 -0.1187 -0.3657  0.6024
   77SLPC  H16X 7058   7.213   3.701   8.159  0.1729 -0.5147  1.1731
   77SLPC  H16Y 7059   7.151   3.557   8.082 -1.6042 -0.0943  0.2216
   77SLPC  C317 7060   7.174   3.566   8.313  0.3258 -0.4780 -0.0053
   77SLPC  H17X 7061   7.101   3.492   8.352  0.1326 -0.0168  0.5080
   77SLPC  H17Y 7062   7.158   3.653   8.380 -0.9631 -2.3460  2.2691
   77SLPC  C318 7063   7.318   3.519   8.327  0.1667 -0.2969 -0.8171
   77SLPC  H18X 7064   7.317   3.413   8.293 -1.9840 -0.1723 -1.2506
   77SLPC  H18Y 7065   7.355   3.512   8.432  1.2308 -2.0065 -1.2591
   77SLPC  H18Z 7066   7.388   3.583   8.269  0.8831  0.2665  0.6045
   78SLPC     N 7067   0.753   3.593   5.968 -0.4279  0.0462 -0.3341
   78SLPC   C13 7068   0.722   3.467   6.045 -0.0166 -0.3036 -0.6432
   78SLPC  H13A 7069   0.731   3.380   5.982  2.0710 -0.5766 -0.0353
   78SLPC  H13B 7070   0.794   3.447   6.123 -0.9561 -0.8048  0.1193
   78SLPC  H13C 7071   0.622   3.468   6.087  0.6666  1.8222  1.1374
   78SLPC   C14 7072   0.878   3.574   5.891  0.7793  0.3501 -0.2894
   78SLPC  H14A 7073   0.905   3.657   5.828  1.9793  0.1660 -0.0535
   78SLPC  H14B 7074   0.960   3.539   5.953  1.4426 -1.4298 -2.0770
   78SLPC  H14C 7075   0.863   3.494   5.821 -0.2946 -0.3371  0.6916
   78SLPC   C15 7076   0.775   3.709   6.060  0.4553  1.2115  0.0333
   78SLPC  H15A 7077   0.857   3.692   6.128  1.4013  1.5520 -0.9843
   78SLPC  H15B 7078   0.797   3.800   6.006 -3.1097  1.3307 -1.5134
   78SLPC  H15C 7079   0.682   3.733   6.109  0.2658  1.8148 -0.6049
   78SLPC   C12 7080   0.637   3.619   5.874 -0.0488 -0.2689  0.6871
   78SLPC  H12A 7081   0.628   3.527   5.819 -0.4399  0.2939 -0.2073
   78SLPC  H12B 7082   0.661   3.696   5.802 -0.6293  0.7926  1.5978
   78SLPC   C11 7083   0.503   3.655   5.942 -0.5504 -0.2746  0.0757
   78SLPC  H11A 7084   0.427   3.673   5.862 -2.2885 -0.5638  1.5922
   78SLPC  H11B 7085   0.522   3.741   6.010  0.6241 -0.3660 -0.1274
   78SLPC     P 7086   0.292   3.539   6.035  0.0331 -0.2151 -0.3295
   78SLPC   O13 7087   0.218   3.597   5.921 -0.2216 -0.4282  0.0708
   78SLPC   O14 7088   0.258   3.398   6.066 -0.2028 -0.2313  0.0202
   78SLPC   O12 7089   0.456   3.551   6.031  0.3893  0.6822  0.0328
   78SLPC   O11 7090   0.267   3.618   6.166  0.9352 -0.1019 -0.0917
   78SLPC    C1 7091   0.355   3.645   6.274  0.1325  0.5012  0.4605
   78SLPC    HA 7092   0.454   3.673   6.233  0.0955 -0.6740 -0.5013
   78SLPC    HB 7093   0.310   3.733   6.325 -2.0974  1.5661 -2.9643
   78SLPC    C2 7094   0.379   3.528   6.375 -0.8919  0.0929 -0.5548
   78SLPC    HS 7095   0.444   3.454   6.323 -3.7823 -2.5160 -0.7580
   78SLPC   O21 7096   0.263   3.471   6.432  0.4224 -0.5589  0.4323
   78SLPC   C21 7097   0.259   3.337   6.423 -0.0442 -0.6489  0.5399
   78SLPC   O22 7098   0.348   3.263   6.385 -0.3917  0.2064 -0.2368
   78SLPC   C22 7099   0.124   3.280   6.477 -0.2443  0.3252 -0.0191
   78SLPC   H2R 7100   0.051   3.362   6.491 -1.3750 -0.3726 -1.5228
   78SLPC   H2S 7101   0.091   3.202   6.405  3.0628 -1.3274  0.0836
   78SLPC    C3 7102   0.476   3.577   6.497 -0.2259 -0.2136  0.1830
   78SLPC    HX 7103   0.419   3.652   6.556  0.9743 -0.6032  1.9083
   78SLPC    HY 7104   0.564   3.634   6.460 -2.8690  2.2847 -2.8439
   78SLPC   O31 7105   0.509   3.470   6.592 -0.7449 -0.1521  0.1630
   78SLPC   C31 7106   0.600   3.387   6.536  0.2940  0.4361  0.0936
   78SLPC   O32 7107   0.665   3.417   6.440 -0.8874 -0.7284  0.2359
   78SLPC   C32 7108   0.597   3.254   6.614 -0.2615 -0.3542 -0.2406
   78SLPC   H2X 7109   0.535   3.186   6.551  0.3568 -0.4358 -0.7695
   78SLPC   H2Y 7110   0.542   3.266   6.709  1.1616  1.4003  0.4107
   78SLPC   C23 7111   0.130   3.206   6.612 -0.2017  0.4398 -0.2264
   78SLPC   H3R 7112   0.190   3.113   6.607 -1.4807 -0.3434 -2.4986
   78SLPC   H3S 7113   0.023   3.175   6.615 -1.0994  3.0861 -1.6609
   78SLPC   C24 7114   0.167   3.299   6.729 -0.2190  0.4355  0.7410
   78SLPC   H4R 7115   0.085   3.372   6.748  0.5942  1.0775  1.9097
   78SLPC   H4S 7116   0.259   3.358   6.715  1.3923 -2.1877 -0.4136
   78SLPC   C25 7117   0.197   3.232   6.868 -0.0256 -0.0586  0.0263
   78SLPC   H5R 7118   0.096   3.186   6.875  0.2787 -0.5914  1.0373
   78SLPC   H5S 7119   0.215   3.309   6.945 -0.5009 -1.1364  1.2549
   78SLPC   C26 7120   0.301   3.119   6.870 -0.5622 -0.0899  0.1182
   78SLPC   H6R 7121   0.397   3.169   6.846 -1.0242 -0.1946 -2.2056
   78SLPC   H6S 7122   0.286   3.038   6.795  3.0042 -1.3998  0.6275
   78SLPC   C27 7123   0.322   3.048   7.006 -0.7787 -0.6108  0.3833
   78SLPC   H7R 7124   0.349   2.942   6.987 -2.0744 -1.0781  1.0483
   78SLPC   H7S 7125   0.226   3.044   7.061 -0.9957 -1.1875 -0.0343
   78SLPC   C28 7126   0.427   3.122   7.100 -0.1794  0.5247 -0.1886
   78SLPC   H8R 7127   0.418   3.231   7.079  0.2913  0.3784 -1.2320
   78SLPC   H8S 7128   0.525   3.095   7.056 -0.4092 -1.4977  0.4443
   78SLPC   C29 7129   0.409   3.080   7.244  0.0656 -0.3244  0.0497
   78SLPC   H9R 7130   0.458   2.985   7.270  0.4908  0.1354  0.9527
   78SLPC  C210 7131   0.324   3.144   7.334 -1.1523 -0.0668  0.0306
   78SLPC  H10R 7132   0.322   3.100   7.435 -2.6906  0.6511  0.3380
   78SLPC  C211 7133   0.259   3.280   7.302 -0.4661 -0.0743 -0.1193
   78SLPC  H11R 7134   0.251   3.294   7.192 -0.6138 -1.1942 -0.2720
   78SLPC  H11S 7135   0.338   3.351   7.334 -0.7814 -0.4926  1.6904
   78SLPC  C212 7136   0.137   3.305   7.375  0.0556  1.0208 -0.2450
   78SLPC  H12R 7137   0.133   3.285   7.483  0.7939 -1.7852 -0.6499
   78SLPC  C213 7138   0.026   3.356   7.330 -0.4453  0.1013  0.3040
   78SLPC  H13R 7139  -0.050   3.389   7.404  0.0344 -2.0693  1.8710
   78SLPC  C214 7140  -0.023   3.373   7.192 -0.2238 -0.1498  0.2211
   78SLPC  H14R 7141   0.027   3.311   7.115  0.8605  1.0748 -0.0987
   78SLPC  H14S 7142   0.003   3.479   7.169 -1.0669  0.2039  0.8082
   78SLPC  C215 7143  -0.173   3.351   7.178  0.3533  0.0478  0.0876
   78SLPC  H15R 7144  -0.225   3.415   7.252 -0.7728  0.0127 -0.6438
   78SLPC  H15S 7145  -0.201   3.244   7.183 -0.1551  0.0576 -1.7452
   78SLPC  C216 7146  -0.229   3.405   7.049 -0.3579  0.2543 -0.3727
   78SLPC  H16R 7147  -0.218   3.515   7.042 -3.2724  0.7858  1.7605
   78SLPC  H16S 7148  -0.336   3.383   7.032  0.0162 -1.4608 -0.6994
   78SLPC  C217 7149  -0.160   3.343   6.934  0.1593  0.4355  0.3024
   78SLPC  H17R 7150  -0.173   3.233   6.938 -1.6108  0.5975  0.0882
   78SLPC  H17S 7151  -0.058   3.385   6.922  0.7663 -1.5236 -2.0594
   78SLPC  C218 7152  -0.231   3.398   6.803 -0.8378 -0.1929 -0.0707
   78SLPC  H18R 7153  -0.341   3.382   6.804 -0.5626 -2.5626  1.6206
   78SLPC  H18S 7154  -0.199   3.341   6.713 -0.1958 -0.3988  0.2822
   78SLPC  H18T 7155  -0.213   3.506   6.783 -3.2647 -0.2022 -3.0378
   78SLPC   C33 7156   0.747   3.215   6.632 -0.6563  0.2798 -0.6369
   78SLPC   H3X 7157   0.795   3.280   6.708  1.8197 -1.3606 -0.6855
   78SLPC   H3Y 7158   0.804   3.213   6.536 -1.4232 -0.7338 -1.0910
   78SLPC   C34 7159   0.779   3.069   6.689  0.1772  0.0416 -0.0843
   78SLPC   H4X 7160   0.886   3.039   6.693 -0.1612 -1.2190  0.0623
   78SLPC   H4Y 7161   0.734   2.992   6.623 -0.1568  1.0641 -1.0880
   78SLPC   C35 7162   0.726   3.048   6.825 -0.1716 -0.4981  0.3859
   78SLPC   H5X 7163   0.622   3.088   6.835 -0.3702 -0.5812 -1.1561
   78SLPC   H5Y 7164   0.791   3.111   6.890 -0.0051  0.9011 -1.0604
   78SLPC   C36 7165   0.749   2.903   6.873  0.8263 -0.2165  0.1412
   78SLPC   H6X 7166   0.857   2.882   6.866  0.7474 -1.4486  2.0603
   78SLPC   H6Y 7167   0.694   2.828   6.811  0.0426 -0.9506  1.6576
   78SLPC   C37 7168   0.697   2.874   7.018 -0.2014 -0.0178 -0.5813
   78SLPC   H7X 7169   0.743   2.775   7.040 -0.5312 -0.1241 -0.3599
   78SLPC   H7Y 7170   0.586   2.871   7.024 -0.1262  0.4352  1.7400
   78SLPC   C38 7171   0.766   2.967   7.126 -0.0277  0.7963 -0.8552
   78SLPC   H8X 7172   0.722   3.067   7.107 -2.5419  0.1247  0.9837
   78SLPC   H8Y 7173   0.871   2.982   7.092  1.5382 -4.5798  0.6953
   78SLPC   C39 7174   0.762   2.923   7.270  0.2735  0.5473 -0.1375
   78SLPC   H9X 7175   0.836   2.844   7.297 -0.6584 -0.4568 -0.4493
   78SLPC   H9Y 7176   0.660   2.884   7.288 -0.4410  0.8920 -2.9812
   78SLPC  C310 7177   0.753   3.039   7.372  0.6893 -0.7594  0.1984
   78SLPC  H10X 7178   0.657   3.085   7.341 -0.5222 -2.0295  1.8465
   78SLPC  H10Y 7179   0.827   3.117   7.344 -0.2390  0.3550  0.7615
   78SLPC  C311 7180   0.746   3.013   7.523  0.5476 -0.2344  0.3335
   78SLPC  H11X 7181   0.714   3.105   7.577  1.9357 -0.0982  0.9708
   78SLPC  H11Y 7182   0.854   3.005   7.551  0.3844  0.2161  1.1176
   78SLPC  C312 7183   0.677   2.889   7.584  0.4176  0.0795 -0.8263
   78SLPC  H12X 7184   0.718   2.797   7.536  0.8845 -0.4771  0.5971
   78SLPC  H12Y 7185   0.571   2.907   7.556 -0.2178  1.3043  2.0466
   78SLPC  C313 7186   0.700   2.888   7.738  0.9261 -0.2227 -0.2104
   78SLPC  H13X 7187   0.639   2.811   7.789 -0.1917  0.5582 -0.3200
   78SLPC  H13Y 7188   0.675   2.988   7.780  1.6840 -0.0046 -0.2568
   78SLPC  C314 7189   0.850   2.862   7.764 -0.3232 -0.6894 -0.2659
   78SLPC  H14X 7190   0.904   2.955   7.738  0.5051 -1.2376 -0.5292
   78SLPC  H14Y 7191   0.894   2.781   7.702  1.6035  0.0902  0.0129
   78SLPC  C315 7192   0.874   2.836   7.918  0.4367 -0.0561  0.2578
   78SLPC  H15X 7193   0.804   2.757   7.951  2.0537 -0.9266  1.8009
   78SLPC  H15Y 7194   0.851   2.926   7.979  2.6802  0.4075  0.5083
   78SLPC  C316 7195   1.011   2.785   7.953  0.6002 -0.2189  0.7099
   78SLPC  H16X 7196   1.025   2.702   7.881  1.9278  0.1157  0.5567
   78SLPC  H16Y 7197   0.990   2.752   8.057 -1.0617  0.1545  0.5166
   78SLPC  C317 7198   1.125   2.893   7.945 -0.4996  0.6425 -0.5629
   78SLPC  H17X 7199   1.203   2.880   8.022  0.5329  0.9120 -1.5291
   78SLPC  H17Y 7200   1.080   2.991   7.971  1.8910  2.5171 -2.9555
   78SLPC  C318 7201   1.200   2.908   7.809 -0.3510  0.0480  0.3703
   78SLPC  H18X 7202   1.301   2.953   7.818  0.1601 -0.6203 -1.4286
   78SLPC  H18Y 7203   1.143   2.959   7.728 -0.4573  0.2119  0.5507
   78SLPC  H18Z 7204   1.212   2.804   7.770 -1.3375 -0.1388  0.5248
   79SLPC     N 7205   2.027   6.469   5.971  0.1024 -0.0896 -0.0625
   79SLPC   C13 7206   2.110   6.531   5.870  0.3825 -0.0363  0.0311
   79SLPC  H13A 7207   2.086   6.484   5.776  0.9831  2.3580 -1.4029
   79SLPC  H13B 7208   2.081   6.633   5.847  0.8920 -0.3772 -2.4332
   79SLPC  H13C 7209   2.216   6.529   5.889  0.2764  0.0803  0.6536
   79SLPC   C14 7210   2.073   6.327   5.989 -0.5428  1.1338 -1.1986
   79SLPC  H14A 7211   2.084   6.273   5.896  2.3213  1.2723 -1.0293
   79SLPC  H14B 7212   2.174   6.336   6.029 -1.6677  0.9367  2.0010
   79SLPC  H14C 7213   2.016   6.277   6.066 -0.7506  0.4950 -1.7575
   79SLPC   C15 7214   1.884   6.462   5.921 -0.8645 -0.3461  0.0292
   79SLPC  H15A 7215   1.829   6.400   5.990 -1.2692 -0.9718 -0.8315
   79SLPC  H15B 7216   1.845   6.562   5.913  2.3352  0.8907 -1.9276
   79SLPC  H15C 7217   1.877   6.418   5.823 -3.3647  1.5886 -0.7617
   79SLPC   C12 7218   2.025   6.542   6.109  0.6771 -0.3168 -0.4565
   79SLPC  H12A 7219   1.977   6.637   6.091 -1.1128 -1.2044 -0.5842
   79SLPC  H12B 7220   2.125   6.570   6.137  0.4353 -0.0354  0.1526
   79SLPC   C11 7221   1.949   6.476   6.223  0.0460 -0.2227  0.4609
   79SLPC  H11A 7222   1.964   6.541   6.312 -0.0169  0.2059  0.1618
   79SLPC  H11B 7223   1.992   6.377   6.248  0.0981  0.1645  2.0143
   79SLPC     P 7224   1.723   6.365   6.299 -0.1849  0.2013  0.5614
   79SLPC   O13 7225   1.583   6.395   6.287  0.3901  0.1781  1.1399
   79SLPC   O14 7226   1.773   6.230   6.268 -0.1445  0.2444 -0.4101
   79SLPC   O12 7227   1.806   6.471   6.209 -0.3046 -0.3157  0.2783
   79SLPC   O11 7228   1.776   6.398   6.444  0.1532  0.1038 -0.6648
   79SLPC    C1 7229   1.781   6.524   6.511 -0.8134  0.7303 -0.0639
   79SLPC    HA 7230   1.854   6.519   6.595 -2.3519 -0.4850  1.2816
   79SLPC    HB 7231   1.814   6.612   6.453 -1.5280  0.6806 -0.5547
   79SLPC    C2 7232   1.653   6.551   6.603 -0.4283 -0.3070  0.1358
   79SLPC    HS 7233   1.701   6.591   6.695  0.7186  1.1031 -1.0030
   79SLPC   O21 7234   1.570   6.439   6.634  0.3966 -0.2783 -0.1916
   79SLPC   C21 7235   1.620   6.353   6.718 -0.3823  0.4192  0.3420
   79SLPC   O22 7236   1.733   6.358   6.760 -0.4203 -0.0088  0.2876
   79SLPC   C22 7237   1.521   6.234   6.724  0.2640 -0.7750  0.7363
   79SLPC   H2R 7238   1.425   6.271   6.764 -0.7397 -1.3495 -1.0284
   79SLPC   H2S 7239   1.490   6.204   6.622 -2.2829  0.1842  1.1613
   79SLPC    C3 7240   1.564   6.662   6.536 -0.1666  0.1221  0.2903
   79SLPC    HX 7241   1.462   6.641   6.574  0.5109 -0.9827  1.5927
   79SLPC    HY 7242   1.561   6.652   6.426 -1.8760  2.1064  0.0881
   79SLPC   O31 7243   1.611   6.795   6.583 -0.3852 -0.5754  0.2679
   79SLPC   C31 7244   1.693   6.864   6.493 -0.0179 -0.6729  0.1727
   79SLPC   O32 7245   1.718   6.830   6.380 -0.1527 -0.7477 -0.1110
   79SLPC   C32 7246   1.731   6.993   6.548  0.0715  1.3240  0.7497
   79SLPC   H2X 7247   1.637   7.041   6.582 -0.2482  0.2351  1.4455
   79SLPC   H2Y 7248   1.753   7.053   6.457 -1.6047 -0.4945 -0.9536
   79SLPC   C23 7249   1.564   6.110   6.809  0.4892  0.3945 -0.2898
   79SLPC   H3R 7250   1.667   6.079   6.784  1.2635  1.0748  1.7640
   79SLPC   H3S 7251   1.497   6.024   6.787  0.9032 -0.8603  2.8144
   79SLPC   C24 7252   1.566   6.139   6.958 -0.2248 -0.1053  0.2299
   79SLPC   H4R 7253   1.465   6.149   7.003 -0.2287  1.2362 -0.0342
   79SLPC   H4S 7254   1.613   6.240   6.967 -1.4133  0.3772  1.4611
   79SLPC   C25 7255   1.671   6.058   7.045  0.4375 -0.0039  0.5163
   79SLPC   H5R 7256   1.777   6.061   7.013  0.7014 -3.1654  0.8125
   79SLPC   H5S 7257   1.653   5.948   7.046 -0.0346  0.0332 -1.1764
   79SLPC   C26 7258   1.653   6.086   7.195 -0.1230  1.1781 -0.1499
   79SLPC   H6R 7259   1.570   6.032   7.245  0.9072  1.6283  2.1896
   79SLPC   H6S 7260   1.628   6.193   7.210 -2.0688  0.8021 -0.4376
   79SLPC   C27 7261   1.781   6.047   7.272 -0.0743 -0.4966  0.4803
   79SLPC   H7R 7262   1.847   6.135   7.267  0.1088 -0.3550  3.5291
   79SLPC   H7S 7263   1.839   5.962   7.229  1.6428  0.4780  0.7945
   79SLPC   C28 7264   1.766   6.022   7.423  0.7290  0.9415  0.2289
   79SLPC   H8R 7265   1.707   5.932   7.448  1.5606  0.4963  0.6408
   79SLPC   H8S 7266   1.704   6.110   7.452 -0.5555 -0.6298  2.5234
   79SLPC   C29 7267   1.900   5.999   7.493  0.3309  0.0803  0.1994
   79SLPC   H9R 7268   1.970   5.980   7.410 -2.4135 -0.8827 -2.0579
   79SLPC  C210 7269   1.924   5.966   7.624 -0.0519  0.2505  1.5102
   79SLPC  H10R 7270   2.031   5.963   7.649  0.2948 -0.7112  0.0526
   79SLPC  C211 7271   1.817   5.966   7.734 -0.0816  0.9299  0.0278
   79SLPC  H11R 7272   1.840   5.885   7.806  0.6687  2.6007  1.7477
   79SLPC  H11S 7273   1.717   5.931   7.702 -0.4509  0.8335  1.2360
   79SLPC  C212 7274   1.807   6.094   7.811 -0.5808 -0.6016 -0.5134
   79SLPC  H12R 7275   1.816   6.178   7.741 -0.0267 -0.1391  0.1014
   79SLPC  C213 7276   1.804   6.111   7.940  0.3962  0.2455  0.4530
   79SLPC  H13R 7277   1.802   6.216   7.973  3.2233  1.3037 -2.1425
   79SLPC  C214 7278   1.776   6.016   8.049  0.0273  0.1616 -0.6802
   79SLPC  H14R 7279   1.732   5.923   8.006  1.4209  0.1942 -2.3133
   79SLPC  H14S 7280   1.695   6.064   8.107 -1.2394 -0.4755 -1.8733
   79SLPC  C215 7281   1.909   5.998   8.139  0.1265  0.1739 -0.2204
   79SLPC  H15R 7282   1.986   5.966   8.065 -1.4730 -0.2835 -1.7513
   79SLPC  H15S 7283   1.891   5.935   8.228 -0.1584 -0.1758 -0.5240
   79SLPC  C216 7284   1.956   6.124   8.215  0.3673  0.1280  0.1374
   79SLPC  H16R 7285   1.882   6.198   8.252 -1.1403 -0.5209 -1.4400
   79SLPC  H16S 7286   2.012   6.190   8.145 -0.5092  0.7563  0.0086
   79SLPC  C217 7287   2.054   6.091   8.331 -0.4377  0.7832 -0.2480
   79SLPC  H17R 7288   1.998   6.050   8.418  1.1850 -3.5268 -1.0276
   79SLPC  H17S 7289   2.112   6.181   8.362 -1.6592  1.2252  0.8694
   79SLPC  C218 7290   2.160   5.983   8.294  0.0159  0.5499  0.3905
   79SLPC  H18R 7291   2.205   6.034   8.207 -1.3874  1.9442  0.4301
   79SLPC  H18S 7292   2.123   5.887   8.254  4.3373 -0.5925 -1.3821
   79SLPC  H18T 7293   2.229   5.954   8.376  1.6647  1.9634 -0.4283
   79SLPC   C33 7294   1.835   6.973   6.665  0.1609 -0.1901  0.9053
   79SLPC   H3X 7295   1.839   7.082   6.687 -3.8835  0.4682 -0.7464
   79SLPC   H3Y 7296   1.937   6.933   6.646  1.2334  1.5332  2.6193
   79SLPC   C34 7297   1.799   6.914   6.801 -0.3596  0.1091  0.4197
   79SLPC   H4X 7298   1.885   6.904   6.870  0.3246 -0.1081 -0.4449
   79SLPC   H4Y 7299   1.762   6.810   6.792  0.8321 -0.4347  1.5254
   79SLPC   C35 7300   1.694   6.992   6.876 -0.2184  0.5636 -0.1461
   79SLPC   H5X 7301   1.603   7.001   6.812 -2.0853 -0.9072  2.1420
   79SLPC   H5Y 7302   1.734   7.094   6.892  1.4043  0.1291 -1.1578
   79SLPC   C36 7303   1.641   6.923   7.001  0.5586 -0.8186 -0.1476
   79SLPC   H6X 7304   1.718   6.930   7.081  0.6178  0.9767 -0.3057
   79SLPC   H6Y 7305   1.612   6.822   6.966 -3.0014 -0.3392  0.9754
   79SLPC   C37 7306   1.512   6.991   7.056  0.3637  0.8039 -0.3800
   79SLPC   H7X 7307   1.430   6.997   6.981 -0.7040 -1.2829  0.5096
   79SLPC   H7Y 7308   1.537   7.094   7.088 -1.2609  0.8056  1.0289
   79SLPC   C38 7309   1.455   6.936   7.186  0.8137 -0.4650 -0.6585
   79SLPC   H8X 7310   1.533   6.939   7.265 -0.0280  1.4427  0.1591
   79SLPC   H8Y 7311   1.443   6.827   7.167 -1.1525 -0.3544 -0.2488
   79SLPC   C39 7312   1.321   7.004   7.229 -0.0877 -0.2219 -0.0736
   79SLPC   H9X 7313   1.256   6.996   7.139  1.4562  0.0802 -1.2499
   79SLPC   H9Y 7314   1.349   7.109   7.249  0.1254 -0.4670  0.9765
   79SLPC  C310 7315   1.257   6.941   7.356 -0.5893  0.5993  0.7915
   79SLPC  H10X 7316   1.238   6.832   7.364 -0.6838  0.5886  0.4624
   79SLPC  H10Y 7317   1.153   6.974   7.375 -0.5701 -0.8399  3.8509
   79SLPC  C311 7318   1.341   6.962   7.481 -0.9038 -0.2726 -0.1064
   79SLPC  H11X 7319   1.381   7.066   7.475 -0.3452 -0.5669 -3.2337
   79SLPC  H11Y 7320   1.424   6.888   7.480  1.3028  1.8904  3.2469
   79SLPC  C312 7321   1.266   6.930   7.617  0.5535  0.1883  0.4847
   79SLPC  H12X 7322   1.223   6.827   7.610 -0.4845  0.6828 -0.8835
   79SLPC  H12Y 7323   1.178   6.997   7.608  0.4785 -0.1064 -1.5292
   79SLPC  C313 7324   1.350   6.938   7.739 -0.2166 -0.4656 -0.6797
   79SLPC  H13X 7325   1.402   7.036   7.741 -0.2203 -0.4677 -0.5055
   79SLPC  H13Y 7326   1.426   6.859   7.727 -0.6129 -1.0495  0.5635
   79SLPC  C314 7327   1.264   6.912   7.864  0.8263  0.0487  0.4357
   79SLPC  H14X 7328   1.255   6.803   7.882 -0.7425  0.1481  0.3600
   79SLPC  H14Y 7329   1.163   6.958   7.865  0.4918 -0.6278 -0.7749
   79SLPC  C315 7330   1.349   6.971   7.980 -0.3373  0.2927  0.1419
   79SLPC  H15X 7331   1.357   7.077   7.949  0.8423  0.5114  1.0893
   79SLPC  H15Y 7332   1.442   6.916   8.005 -0.2817  1.9761  4.4956
   79SLPC  C316 7333   1.285   6.972   8.120  1.1102  0.3545 -0.6796
   79SLPC  H16X 7334   1.175   6.970   8.132  1.2799 -0.0023  1.1565
   79SLPC  H16Y 7335   1.332   7.058   8.173  2.9005 -0.9080 -0.1185
   79SLPC  C317 7336   1.312   6.846   8.207 -0.0671  0.4520 -0.1493
   79SLPC  H17X 7337   1.415   6.856   8.248 -0.3721  2.5604  0.2379
   79SLPC  H17Y 7338   1.313   6.755   8.144 -0.6474  1.2384 -1.3319
   79SLPC  C318 7339   1.210   6.840   8.321 -0.8762 -0.0264  0.0586
   79SLPC  H18X 7340   1.107   6.815   8.287 -1.4563 -0.7310  2.1752
   79SLPC  H18Y 7341   1.208   6.939   8.371 -1.4038  0.2585 -0.5152
   79SLPC  H18Z 7342   1.240   6.762   8.395  0.3467  1.2999  1.0140
   80SLPC     N 7343   0.731   4.522   6.293 -0.2034 -0.1608  0.0873
   80SLPC   C13 7344   0.616   4.482   6.378  0.6227  0.3143 -0.3241
   80SLPC  H13A 7345   0.606   4.377   6.402  2.3020  0.3512  0.6654
   80SLPC  H13B 7346   0.607   4.529   6.475 -3.5334 -1.2524  0.2530
   80SLPC  H13C 7347   0.525   4.501   6.323  0.5892  0.4639 -0.2144
   80SLPC   C14 7348   0.698   4.665   6.259 -0.5745 -0.3570  0.0220
   80SLPC  H14A 7349   0.596   4.681   6.226 -0.4865 -0.3365 -0.2398
   80SLPC  H14B 7350   0.705   4.722   6.350 -2.3965  0.3273 -0.2138
   80SLPC  H14C 7351   0.768   4.710   6.190 -0.5385  2.8100  1.9382
   80SLPC   C15 7352   0.723   4.431   6.169 -0.3301 -0.1177  0.8102
   80SLPC  H15A 7353   0.621   4.423   6.134 -0.4296 -1.3287  1.3343
   80SLPC  H15B 7354   0.788   4.466   6.091  0.2663  2.2574  2.2559
   80SLPC  H15C 7355   0.757   4.331   6.188 -1.5357 -1.0400 -1.4787
   80SLPC   C12 7356   0.856   4.494   6.370 -0.6931 -0.2037  1.0801
   80SLPC  H12A 7357   0.847   4.387   6.387  1.0326 -0.4419  0.6592
   80SLPC  H12B 7358   0.855   4.538   6.469 -1.6012 -1.1086  1.4999
   80SLPC   C11 7359   0.996   4.528   6.303  0.3865  0.4369 -0.3632
   80SLPC  H11A 7360   1.078   4.525   6.378 -0.8389  0.5743  1.0294
   80SLPC  H11B 7361   0.986   4.635   6.274  0.9399  0.9589  1.2582
   80SLPC     P 7362   1.133   4.470   6.090  0.1613  0.0659  0.0317
   80SLPC   O13 7363   1.118   4.381   5.969 -0.0184  0.2557  0.6303
   80SLPC   O14 7364   1.132   4.617   6.060  1.0109  0.5196  0.0694
   80SLPC   O12 7365   1.029   4.438   6.198 -0.0189  0.2689  0.1862
   80SLPC   O11 7366   1.266   4.439   6.176  0.2054 -0.0337  0.4692
   80SLPC    C1 7367   1.298   4.306   6.223  0.1495  0.4912 -0.5061
   80SLPC    HA 7368   1.256   4.222   6.164 -0.6610  1.4285 -1.2910
   80SLPC    HB 7369   1.408   4.290   6.221  0.0899  0.0335 -0.2825
   80SLPC    C2 7370   1.243   4.283   6.373  0.0187  0.6838  0.6571
   80SLPC    HS 7371   1.136   4.310   6.379 -0.0024  1.1792 -1.3249
   80SLPC   O21 7372   1.333   4.352   6.461  0.0676  0.2480 -1.0967
   80SLPC   C21 7373   1.280   4.405   6.568  0.6566 -0.1832  0.1170
   80SLPC   O22 7374   1.164   4.393   6.611  1.1442  0.3424 -0.7131
   80SLPC   C22 7375   1.378   4.498   6.639 -0.0627 -0.3372 -0.1597
   80SLPC   H2R 7376   1.477   4.452   6.657  1.5145  2.1388 -1.7863
   80SLPC   H2S 7377   1.395   4.580   6.566  0.9092 -0.2186  0.1831
   80SLPC    C3 7378   1.252   4.124   6.397  0.5101 -0.4937 -0.0383
   80SLPC    HX 7379   1.334   4.085   6.334 -0.2605 -1.2458 -0.5893
   80SLPC    HY 7380   1.163   4.078   6.349 -0.0010 -0.4857  0.8815
   80SLPC   O31 7381   1.277   4.083   6.534 -0.1127  0.3847 -0.1481
   80SLPC   C31 7382   1.171   4.047   6.605  0.5428 -0.4547  0.3094
   80SLPC   O32 7383   1.051   4.045   6.562 -0.5441  0.3716  0.5800
   80SLPC   C32 7384   1.216   4.018   6.752 -0.4593  0.4740  0.0682
   80SLPC   H2X 7385   1.298   4.089   6.777 -0.6218  0.6876  0.0049
   80SLPC   H2Y 7386   1.266   3.919   6.755 -0.8404  0.2968  0.7982
   80SLPC   C23 7387   1.321   4.564   6.765 -0.1949  0.3918 -0.7641
   80SLPC   H3R 7388   1.220   4.606   6.750 -0.9478  0.0902  2.6734
   80SLPC   H3S 7389   1.388   4.651   6.784  1.1532 -0.8484  0.4221
   80SLPC   C24 7390   1.320   4.468   6.888  0.0324  0.0012  0.0547
   80SLPC   H4R 7391   1.416   4.414   6.906  0.1524  0.2240  0.0822
   80SLPC   H4S 7392   1.243   4.389   6.877 -0.2230  0.1468  0.7416
   80SLPC   C25 7393   1.294   4.551   7.017 -0.3158  0.1437 -0.3655
   80SLPC   H5R 7394   1.199   4.605   6.998 -0.8024 -0.3824  0.4856
   80SLPC   H5S 7395   1.373   4.628   7.028  1.2016 -0.9238 -2.8548
   80SLPC   C26 7396   1.293   4.468   7.148  0.0724 -0.0997  0.3267
   80SLPC   H6R 7397   1.380   4.404   7.176  0.3250 -0.8490 -1.9388
   80SLPC   H6S 7398   1.214   4.391   7.145  1.6681 -1.7804 -2.0807
   80SLPC   C27 7399   1.269   4.559   7.274 -0.1891 -0.2271 -0.0972
   80SLPC   H7R 7400   1.172   4.609   7.254  0.1319  0.0302 -1.0530
   80SLPC   H7S 7401   1.348   4.637   7.276 -0.7766  0.4734 -1.9646
   80SLPC   C28 7402   1.240   4.471   7.397 -0.4206 -0.0074 -0.4931
   80SLPC   H8R 7403   1.333   4.412   7.414  1.3091  2.8658  0.6752
   80SLPC   H8S 7404   1.164   4.395   7.368 -0.4506 -0.4856  0.7822
   80SLPC   C29 7405   1.189   4.535   7.522 -0.1616  0.2120 -0.4351
   80SLPC   H9R 7406   1.157   4.640   7.512 -1.5614 -0.2600 -1.2413
   80SLPC  C210 7407   1.174   4.477   7.642 -0.1158  0.5209 -0.2589
   80SLPC  H10R 7408   1.127   4.529   7.726  1.0730 -0.3018  0.9555
   80SLPC  C211 7409   1.219   4.338   7.683  0.3782 -0.2610  0.2092
   80SLPC  H11R 7410   1.328   4.347   7.700  0.9805 -2.4180 -1.9681
   80SLPC  H11S 7411   1.208   4.278   7.590 -1.1935  1.0100 -0.4796
   80SLPC  C212 7412   1.152   4.286   7.807 -0.0018 -0.0124 -0.6293
   80SLPC  H12R 7413   1.068   4.215   7.797  0.0045 -0.9684  3.8830
   80SLPC  C213 7414   1.192   4.323   7.930 -0.0091  0.4743  0.2864
   80SLPC  H13R 7415   1.165   4.259   8.016 -1.9980 -1.7056 -1.8210
   80SLPC  C214 7416   1.297   4.427   7.959 -0.9185 -0.6101 -0.0257
   80SLPC  H14R 7417   1.283   4.463   8.064 -0.0800  1.2257 -0.5015
   80SLPC  H14S 7418   1.276   4.524   7.908  1.3531  1.2471  2.2995
   80SLPC  C215 7419   1.448   4.401   7.938  0.6012 -0.5144  0.8736
   80SLPC  H15R 7420   1.514   4.482   7.975 -1.9579  1.6207  1.0461
   80SLPC  H15S 7421   1.476   4.388   7.831 -0.4657 -3.3251  0.8371
   80SLPC  C216 7422   1.510   4.282   8.017  0.5194 -0.6278 -0.7863
   80SLPC  H16R 7423   1.620   4.288   8.010  1.0261 -0.9140  4.0099
   80SLPC  H16S 7424   1.478   4.187   7.968 -0.0108 -0.0862 -1.5064
   80SLPC  C217 7425   1.463   4.269   8.161  0.3120 -0.5220 -0.0438
   80SLPC  H17R 7426   1.362   4.230   8.184  0.6866  0.2381  3.3954
   80SLPC  H17S 7427   1.476   4.371   8.204  2.2904 -0.7469 -0.0190
   80SLPC  C218 7428   1.571   4.190   8.240  0.1921 -0.3707 -0.4122
   80SLPC  H18R 7429   1.556   4.204   8.349  0.1684  0.1317 -0.4763
   80SLPC  H18S 7430   1.665   4.247   8.226  2.9995 -4.4729  0.0347
   80SLPC  H18T 7431   1.589   4.083   8.215 -0.6520 -0.7324  0.4873
   80SLPC   C33 7432   1.103   4.011   6.851  0.0232  0.3429 -0.5070
   80SLPC   H3X 7433   1.048   3.918   6.824 -2.3561  1.0074  1.6715
   80SLPC   H3Y 7434   1.024   4.085   6.825 -0.5577  0.9699  2.6211
   80SLPC   C34 7435   1.144   4.032   6.996  0.2519  0.1376  0.9252
   80SLPC   H4X 7436   1.168   4.140   7.010  0.6131  0.7308 -3.2038
   80SLPC   H4Y 7437   1.229   3.962   7.002 -0.1641 -0.3820  0.8073
   80SLPC   C35 7438   1.041   3.984   7.102  0.2396 -0.0488  0.1805
   80SLPC   H5X 7439   1.002   3.882   7.083 -1.1059  0.6949 -1.2516
   80SLPC   H5Y 7440   0.951   4.049   7.093 -0.3597 -0.6744  1.3543
   80SLPC   C36 7441   1.082   3.998   7.249 -0.3932  0.5928  0.0022
   80SLPC   H6X 7442   1.122   4.099   7.270 -1.9510  0.9908  1.2023
   80SLPC   H6Y 7443   1.172   3.934   7.264 -0.5033  0.5235  0.3887
   80SLPC   C37 7444   0.980   3.958   7.356 -0.0252 -0.3097  0.3604
   80SLPC   H7X 7445   0.927   3.870   7.314  2.0686 -0.9893 -1.0779
   80SLPC   H7Y 7446   0.903   4.038   7.362 -0.8379 -0.9530 -1.0205
   80SLPC   C38 7447   1.041   3.932   7.494 -0.0629  0.5053  0.3925
   80SLPC   H8X 7448   1.102   4.021   7.522  0.9768  0.0400 -0.3207
   80SLPC   H8Y 7449   1.094   3.834   7.487  1.1648  1.2258 -1.3568
   80SLPC   C39 7450   0.933   3.928   7.602  0.4811  0.3552 -0.3663
   80SLPC   H9X 7451   0.850   3.861   7.572  0.5738 -0.0700  0.2941
   80SLPC   H9Y 7452   0.893   4.032   7.607  1.8323  0.8411  2.6652
   80SLPC  C310 7453   0.992   3.901   7.743 -0.3811 -0.3219  0.2800
   80SLPC  H10X 7454   1.083   3.963   7.752 -0.9990  0.8461 -1.1064
   80SLPC  H10Y 7455   1.010   3.792   7.755  0.2249 -0.5616 -2.1238
   80SLPC  C311 7456   0.903   3.945   7.860  0.3195  0.2937  0.4119
   80SLPC  H11X 7457   0.898   4.056   7.858 -2.4869  0.2436  0.6465
   80SLPC  H11Y 7458   0.948   3.912   7.956  2.3846 -0.3906 -0.7241
   80SLPC  C312 7459   0.761   3.892   7.862  0.6643  0.3794 -0.1980
   80SLPC  H12X 7460   0.757   3.782   7.881  1.3155  0.5401  0.9116
   80SLPC  H12Y 7461   0.714   3.912   7.763  0.4341 -0.2061 -0.2127
   80SLPC  C313 7462   0.685   3.967   7.973  0.1568  0.5829 -0.0663
   80SLPC  H13X 7463   0.579   3.973   7.940  0.0444 -3.2410 -0.8994
   80SLPC  H13Y 7464   0.719   4.071   7.987 -3.3983  1.8237  0.4475
   80SLPC  C314 7465   0.675   3.898   8.112 -1.0702 -0.1098  1.1932
   80SLPC  H14X 7466   0.773   3.880   8.161 -0.2069  0.8446 -0.1241
   80SLPC  H14Y 7467   0.624   3.800   8.102 -1.3644 -0.0858  2.2806
   80SLPC  C315 7468   0.590   3.960   8.225  0.0068 -0.2896 -0.7459
   80SLPC  H15X 7469   0.483   3.965   8.198  0.1335 -1.1959 -1.4929
   80SLPC  H15Y 7470   0.637   4.059   8.243 -1.0191 -0.0418  0.6805
   80SLPC  C316 7471   0.603   3.886   8.363 -0.4677 -0.4892  1.3056
   80SLPC  H16X 7472   0.711   3.885   8.390  0.5583  1.1062 -2.1642
   80SLPC  H16Y 7473   0.554   3.787   8.356 -1.7823  0.2583 -1.4576
   80SLPC  C317 7474   0.530   3.965   8.477  0.1753 -0.1115  0.4008
   80SLPC  H17X 7475   0.424   3.964   8.443  0.6370 -0.5445 -1.1022
   80SLPC  H17Y 7476   0.566   4.071   8.479 -1.3544  0.4697 -0.7534
   80SLPC  C318 7477   0.555   3.903   8.619  0.4692  0.8127 -0.0772
   80SLPC  H18X 7478   0.664   3.892   8.641  0.6169  0.2273 -1.0451
   80SLPC  H18Y 7479   0.511   3.802   8.618 -1.0542  1.4445  0.4961
   80SLPC  H18Z 7480   0.503   3.958   8.700  1.9293  0.7226  0.9686
   81SAPS     N 7481   1.072   4.767  10.620  0.2973 -0.4772 -0.5293
   81SAPS   HN1 7482   0.987   4.826  10.624 -0.0815 -1.0673  0.1999
   81SAPS   HN2 7483   1.143   4.806  10.553  1.7421  1.8247  2.1281
   81SAPS   HN3 7484   1.047   4.674  10.582  1.1147 -0.8873 -0.0941
   81SAPS   C12 7485   1.145   4.765  10.755 -0.4898  0.2003  0.5037
   81SAPS  H12A 7486   1.158   4.866  10.792  1.0194  0.5646 -0.9279
   81SAPS   C13 7487   1.074   4.684  10.872  0.1293  0.2206  0.0472
   81SAPS  O13A 7488   0.971   4.617  10.846  0.4614 -0.5181 -0.5044
   81SAPS  O13B 7489   1.137   4.670  10.977 -0.0812 -0.0720  0.2830
   81SAPS   C11 7490   1.293   4.709  10.727 -0.0607  0.4913  0.5864
   81SAPS  H11A 7491   1.284   4.604  10.691  0.5423  0.0620  1.6335
   81SAPS  H11B 7492   1.335   4.702  10.829  0.8124  0.3480  0.2232
   81SAPS     P 7493   1.531   4.759  10.633 -0.2256 -0.0253 -0.1255
   81SAPS   O13 7494   1.604   4.773  10.760  0.0485 -0.8148 -0.1629
   81SAPS   O14 7495   1.544   4.628  10.565  0.2381 -0.4712 -0.3687
   81SAPS   O12 7496   1.375   4.798  10.650  0.6007 -0.1305  0.0034
   81SAPS   O11 7497   1.584   4.865  10.527 -0.7189 -0.3689  0.3417
   81SAPS    C1 7498   1.525   4.885  10.402  0.2595  0.7463  0.7012
   81SAPS    HA 7499   1.415   4.877  10.412 -0.0103  1.5201 -1.1809
   81SAPS    HB 7500   1.541   4.990  10.369  0.5223  0.9954  1.5985
   81SAPS    C2 7501   1.567   4.780  10.286  0.2349 -0.8467 -0.0685
   81SAPS    HS 7502   1.528   4.685  10.329 -0.0950  0.2837  2.3188
   81SAPS   O21 7503   1.710   4.774  10.269 -0.5161  0.4830 -0.3620
   81SAPS   C21 7504   1.751   4.655  10.210  0.1208  0.3716 -0.5179
   81SAPS   O22 7505   1.684   4.561  10.181 -0.0806  0.5591 -0.2451
   81SAPS   C22 7506   1.898   4.676  10.173  0.4623  0.6525  0.2557
   81SAPS   H2R 7507   1.897   4.768  10.111  1.2591 -0.3000 -1.2306
   81SAPS   H2S 7508   1.945   4.714  10.266 -0.8223 -0.4593  1.4163
   81SAPS    C3 7509   1.501   4.832  10.159  0.0475  0.0600  0.0878
   81SAPS    HX 7510   1.558   4.919  10.119 -2.3706  2.6071  1.8573
   81SAPS    HY 7511   1.405   4.869  10.200  0.0487 -0.2315  0.3571
   81SAPS   O31 7512   1.486   4.735  10.047 -0.4037 -0.1064 -0.2971
   81SAPS   C31 7513   1.379   4.661  10.059  0.1288  0.4579  0.0689
   81SAPS   O32 7514   1.290   4.681  10.135  0.0519 -0.1039  0.0505
   81SAPS   C32 7515   1.377   4.568   9.936  0.5218 -0.7710 -0.5249
   81SAPS   H2X 7516   1.367   4.624   9.841 -1.6240 -0.7961 -0.3741
   81SAPS   H2Y 7517   1.292   4.496   9.940 -0.7616  0.6287 -1.5167
   81SAPS   C23 7518   1.962   4.564  10.102 -0.3298  0.6095 -0.2204
   81SAPS   H3R 7519   1.899   4.530  10.017 -0.5682 -0.1173  0.2429
   81SAPS   H3S 7520   1.964   4.475  10.168  0.7479  1.4243  0.9139
   81SAPS   C24 7521   2.109   4.594  10.056 -0.1633 -0.4739 -0.3345
   81SAPS   H4R 7522   2.164   4.502  10.026  0.9638  0.1490 -0.2499
   81SAPS   H4S 7523   2.168   4.640  10.138  2.8507 -1.0599 -2.0247
   81SAPS   C25 7524   2.131   4.693   9.945 -1.5592 -0.6408  0.0118
   81SAPS   H5R 7525   2.154   4.793   9.984 -1.7865 -1.8035  3.4057
   81SAPS   C26 7526   2.155   4.663   9.811  0.1409 -0.4504 -0.6611
   81SAPS   H6R 7527   2.189   4.743   9.744  0.9202 -1.7843 -1.9198
   81SAPS   C27 7528   2.152   4.535   9.742  0.5540  0.3492 -0.9183
   81SAPS   H7R 7529   2.108   4.559   9.643 -0.8289  0.8471 -0.2144
   81SAPS   H7S 7530   2.081   4.468   9.795 -0.7712  2.9584  0.7720
   81SAPS   C28 7531   2.287   4.464   9.742 -0.6943  0.3604  0.7842
   81SAPS   H8R 7532   2.322   4.415   9.834  0.8087  1.1320  0.6516
   81SAPS   C29 7533   2.386   4.472   9.647 -0.3552 -0.1488 -0.2997
   81SAPS   H9R 7534   2.477   4.411   9.657  1.2406  2.3630  1.7217
   81SAPS  C210 7535   2.364   4.523   9.507 -0.0484 -0.0451 -1.4100
   81SAPS  H10R 7536   2.258   4.497   9.486 -0.8514  2.2399 -0.5283
   81SAPS  H10S 7537   2.444   4.471   9.450  1.8959  1.4970 -0.1903
   81SAPS  C211 7538   2.381   4.673   9.505 -0.6753 -0.0498 -0.1025
   81SAPS  H11R 7539   2.434   4.718   9.590  2.1314  0.2470 -1.8554
   81SAPS  C212 7540   2.359   4.758   9.403  0.4380  0.1327  0.9170
   81SAPS  H12R 7541   2.370   4.865   9.428  1.1034  0.0306  1.0717
   81SAPS  C213 7542   2.303   4.718   9.273 -0.0350  0.4413  0.5597
   81SAPS  H13R 7543   2.236   4.632   9.291  0.6038 -0.2296 -0.1986
   81SAPS  H13S 7544   2.391   4.681   9.215  0.5338  3.4909 -0.7314
   81SAPS  C214 7545   2.235   4.842   9.209  0.6127  1.4650  0.2437
   81SAPS  H14R 7546   2.300   4.930   9.208  0.1163  1.8363 -0.9078
   81SAPS  C215 7547   2.108   4.845   9.161 -0.1187  0.2148  0.1934
   81SAPS  H15R 7548   2.069   4.940   9.120  2.7962  1.2280 -0.4517
   81SAPS  C216 7549   1.995   4.742   9.167  0.2908 -0.1455  0.7949
   81SAPS  H16R 7550   2.034   4.648   9.212  0.3427 -1.3819 -1.6588
   81SAPS  H16S 7551   1.960   4.722   9.064  0.5291 -0.8105  0.8357
   81SAPS  C217 7552   1.877   4.792   9.254 -0.2954  0.2218 -0.0731
   81SAPS  H17R 7553   1.844   4.889   9.212 -1.9564 -0.4916 -0.4842
   81SAPS  H17S 7554   1.907   4.812   9.360  1.9552  2.1643 -0.9752
   81SAPS  C218 7555   1.744   4.714   9.261 -0.3939 -0.0837 -0.0049
   81SAPS  H18R 7556   1.713   4.713   9.154  0.6730 -0.4302 -0.3220
   81SAPS  H18S 7557   1.679   4.783   9.319  1.7180  0.9224  1.2844
   81SAPS  C219 7558   1.738   4.567   9.320 -0.2664 -0.4612  0.1950
   81SAPS  H19R 7559   1.788   4.500   9.247  0.9080  0.0556  0.4950
   81SAPS  H19S 7560   1.634   4.530   9.332  0.1895 -1.1442  2.4846
   81SAPS  C220 7561   1.814   4.555   9.456  0.2350 -0.6002  0.6731
   81SAPS  H20R 7562   1.923   4.568   9.443  0.2769 -1.7204 -0.2511
   81SAPS  H20S 7563   1.806   4.452   9.495  4.1992 -0.8782  1.0881
   81SAPS  H20T 7564   1.770   4.625   9.530  0.0168 -0.3379  0.2986
   81SAPS   C33 7565   1.498   4.467   9.936 -0.4008 -0.1294  0.4180
   81SAPS   H3X 7566   1.501   4.412  10.032 -2.9370 -1.4159 -0.1301
   81SAPS   H3Y 7567   1.597   4.503   9.901 -0.4421 -1.8122 -1.6819
   81SAPS   C34 7568   1.470   4.348   9.830 -0.3044  0.1013 -0.1929
   81SAPS   H4X 7569   1.402   4.275   9.879  1.5225 -1.1043  0.6463
   81SAPS   H4Y 7570   1.563   4.290   9.814 -1.0401 -1.4636  0.8642
   81SAPS   C35 7571   1.412   4.389   9.697  0.4254 -0.3638  0.4578
   81SAPS   H5X 7572   1.461   4.485   9.670  0.6337 -0.4420  0.5537
   81SAPS   H5Y 7573   1.303   4.402   9.716  0.5938 -0.8919  1.9536
   81SAPS   C36 7574   1.439   4.295   9.582  0.2879 -0.1842  0.4049
   81SAPS   H6X 7575   1.391   4.197   9.600 -1.3862  0.5555  0.1625
   81SAPS   H6Y 7576   1.547   4.281   9.560 -0.1370 -2.0794 -0.7190
   81SAPS   C37 7577   1.360   4.352   9.458 -0.0740  0.4904  0.0402
   81SAPS   H7X 7578   1.381   4.457   9.429 -1.8855  0.2949 -2.2479
   81SAPS   H7Y 7579   1.254   4.333   9.486 -0.3109 -0.4092 -1.3714
   81SAPS   C38 7580   1.388   4.265   9.336  0.0851  1.3248 -0.3927
   81SAPS   H8X 7581   1.375   4.159   9.368  0.2803  1.1757 -0.8011
   81SAPS   H8Y 7582   1.495   4.277   9.309  0.5036 -0.1978  0.4501
   81SAPS   C39 7583   1.285   4.291   9.226 -0.0370  0.0819  0.3331
   81SAPS   H9X 7584   1.270   4.400   9.208  0.1619  0.0890  0.1955
   81SAPS   H9Y 7585   1.192   4.260   9.278  0.7650 -0.9231  1.2200
   81SAPS  C310 7586   1.307   4.211   9.100  0.2969  0.0286 -0.2899
   81SAPS  H10X 7587   1.245   4.246   9.015 -1.1625 -0.0650  0.6872
   81SAPS  H10Y 7588   1.264   4.109   9.112 -4.2813  1.6461 -1.1265
   81SAPS  C311 7589   1.441   4.213   9.035 -0.1230 -0.6358 -0.1968
   81SAPS  H11X 7590   1.451   4.152   8.943  1.4952 -0.3553 -0.2419
   81SAPS  H11Y 7591   1.512   4.171   9.109  0.8958  4.4101  2.1427
   81SAPS  C312 7592   1.492   4.354   9.012 -1.1095 -0.2810 -0.1247
   81SAPS  H12X 7593   1.459   4.426   9.089 -2.0192 -0.0867 -0.6865
   81SAPS  H12Y 7594   1.445   4.388   8.918 -0.0349  0.3735 -0.4381
   81SAPS  C313 7595   1.646   4.352   8.993 -0.1043  0.0361 -0.8678
   81SAPS  H13X 7596   1.690   4.283   8.917  0.4136  0.5833 -1.0720
   81SAPS  H13Y 7597   1.695   4.342   9.091 -4.2442 -1.3629  1.2897
   81SAPS  C314 7598   1.693   4.486   8.930  0.6953  0.0270 -0.3296
   81SAPS  H14X 7599   1.804   4.487   8.933  0.6797  1.4495  0.8331
   81SAPS  H14Y 7600   1.657   4.575   8.985  0.2243 -0.0184 -0.5537
   81SAPS  C315 7601   1.645   4.509   8.783 -0.7834 -0.1250  0.0432
   81SAPS  H15X 7602   1.697   4.598   8.742  2.2397 -1.4104  0.8060
   81SAPS  H15Y 7603   1.535   4.522   8.767 -1.1144 -2.9169 -0.5576
   81SAPS  C316 7604   1.682   4.398   8.683 -0.9686  0.4761  0.0747
   81SAPS  H16X 7605   1.666   4.440   8.582  0.6118 -0.0244 -0.4137
   81SAPS  H16Y 7606   1.616   4.309   8.699 -0.3214  0.2579  1.8129
   81SAPS  C317 7607   1.839   4.357   8.687 -0.2898 -0.8955 -0.9248
   81SAPS  H17X 7608   1.869   4.338   8.792  0.8800 -1.1405 -1.2960
   81SAPS  H17Y 7609   1.907   4.442   8.664  2.1289 -2.5747 -0.3463
   81SAPS  C318 7610   1.868   4.250   8.588  0.0322  0.0223 -0.5075
   81SAPS  H18X 7611   1.979   4.237   8.591  0.1914  1.2510 -0.7936
   81SAPS  H18Y 7612   1.831   4.268   8.485 -0.0700  2.4156 -0.0920
   81SAPS  H18Z 7613   1.831   4.151   8.623 -0.4128 -0.1464 -1.4398
   82SAPS     N 7614   1.859   2.783  10.660  0.4020  0.3850 -0.1463
   82SAPS   HN1 7615   1.842   2.690  10.617  0.5042 -0.1655  0.9635
   82SAPS   HN2 7616   1.836   2.858  10.592  0.4691 -1.3529 -2.1719
   82SAPS   HN3 7617   1.961   2.772  10.677  0.2447  0.7120  1.1206
   82SAPS   C12 7618   1.783   2.792  10.793 -0.3202  0.0003 -0.3561
   82SAPS  H12A 7619   1.676   2.801  10.782 -0.0618  1.2367 -2.5218
   82SAPS   C13 7620   1.817   2.679  10.892  0.7008 -0.8792 -0.8108
   82SAPS  O13A 7621   1.912   2.594  10.874 -0.0678 -0.1101  0.8176
   82SAPS  O13B 7622   1.746   2.672  10.999  0.0690  0.2015  0.2918
   82SAPS   C11 7623   1.849   2.915  10.866  0.2201 -0.2940  0.1953
   82SAPS  H11A 7624   1.956   2.888  10.878 -0.2547 -1.8332  1.1954
   82SAPS  H11B 7625   1.812   2.922  10.971  0.8753  0.4189  0.3882
   82SAPS     P 7626   1.706   3.139  10.824 -0.1918 -0.1450 -0.0698
   82SAPS   O13 7627   1.596   3.068  10.893 -0.3608 -0.0987  0.5524
   82SAPS   O14 7628   1.774   3.252  10.891 -0.4685  0.6717 -0.0967
   82SAPS   O12 7629   1.825   3.043  10.789 -0.1200  0.5327 -0.3551
   82SAPS   O11 7630   1.665   3.181  10.677 -0.2600  0.2628 -0.0209
   82SAPS    C1 7631   1.555   3.262  10.649 -0.2479 -0.0962 -0.0788
   82SAPS    HA 7632   1.463   3.209  10.682 -0.1617  0.2103  0.6812
   82SAPS    HB 7633   1.549   3.358  10.704 -3.1067 -0.5863  0.6024
   82SAPS    C2 7634   1.552   3.299  10.497 -0.1666 -0.1947  0.4225
   82SAPS    HS 7635   1.469   3.367  10.470 -0.3861 -1.0877 -1.2740
   82SAPS   O21 7636   1.546   3.171  10.414  0.5656 -0.2322  0.3159
   82SAPS   C21 7637   1.421   3.120  10.420  0.0987  0.4867 -0.1698
   82SAPS   O22 7638   1.328   3.166  10.485 -0.2669 -0.0505 -0.4030
   82SAPS   C22 7639   1.418   2.988  10.337  0.1682 -0.0929 -0.0114
   82SAPS   H2R 7640   1.478   2.914  10.395  0.2432  0.6135  0.8386
   82SAPS   H2S 7641   1.318   2.942  10.350  0.9312 -1.4125  1.6470
   82SAPS    C3 7642   1.675   3.380  10.441 -0.0536 -0.2564 -0.0903
   82SAPS    HX 7643   1.757   3.305  10.432 -0.8573 -1.3699  1.5105
   82SAPS    HY 7644   1.692   3.457  10.518 -5.1550  1.1133  0.0278
   82SAPS   O31 7645   1.656   3.445  10.319 -0.0370 -0.0318 -0.0736
   82SAPS   C31 7646   1.703   3.383  10.211  0.1476  0.4339  0.0972
   82SAPS   O32 7647   1.753   3.270  10.206  0.8111  0.6693 -0.0064
   82SAPS   C32 7648   1.670   3.482  10.095 -0.3433  0.3662 -0.2275
   82SAPS   H2X 7649   1.731   3.573  10.111 -2.2475  1.9705 -1.5843
   82SAPS   H2Y 7650   1.565   3.518  10.098 -0.5440 -0.2522  0.6515
   82SAPS   C23 7651   1.474   2.991  10.192 -0.1059 -0.7185  0.1311
   82SAPS   H3R 7652   1.479   2.891  10.144  0.5208 -0.0615 -1.2242
   82SAPS   H3S 7653   1.580   3.025  10.201  0.4119 -1.5478 -2.0486
   82SAPS   C24 7654   1.397   3.092  10.102 -0.2451  0.3102  0.5908
   82SAPS   H4R 7655   1.409   3.198  10.135 -1.2457  0.5084  0.3489
   82SAPS   H4S 7656   1.290   3.069  10.088 -0.0962 -0.2610  0.3834
   82SAPS   C25 7657   1.451   3.091   9.956  0.9278  0.1846  0.6285
   82SAPS   H5R 7658   1.524   3.011   9.937  0.9634  0.3131  0.2027
   82SAPS   C26 7659   1.428   3.175   9.851 -0.0365 -0.0572  0.3389
   82SAPS   H6R 7660   1.491   3.162   9.762  1.6852  0.0687  1.4895
   82SAPS   C27 7661   1.325   3.287   9.849  0.4177  0.1590  0.4322
   82SAPS   H7R 7662   1.299   3.311   9.955 -1.0101  0.2065  0.0860
   82SAPS   H7S 7663   1.235   3.246   9.799  1.1268  1.4672 -2.1129
   82SAPS   C28 7664   1.375   3.408   9.771 -0.4066  0.3150 -0.1150
   82SAPS   H8R 7665   1.401   3.494   9.834  0.9357 -0.0944 -0.0830
   82SAPS   C29 7666   1.396   3.422   9.639  0.5306  0.1966 -0.0216
   82SAPS   H9R 7667   1.436   3.515   9.597  0.6498  0.0055 -0.3344
   82SAPS  C210 7668   1.342   3.326   9.531 -0.2176  0.1206 -0.0486
   82SAPS  H10R 7669   1.291   3.241   9.581  1.0939 -0.9782 -0.5075
   82SAPS  H10S 7670   1.431   3.283   9.480 -0.2821 -1.3248  0.9836
   82SAPS  C211 7671   1.258   3.393   9.420 -0.4835 -0.7648 -0.5168
   82SAPS  H11R 7672   1.156   3.421   9.452 -0.4747 -2.4821  1.2048
   82SAPS  C212 7673   1.281   3.399   9.288 -0.1706  0.1189  0.0307
   82SAPS  H12R 7674   1.221   3.478   9.238 -1.4537 -1.4312 -0.9749
   82SAPS  C213 7675   1.398   3.352   9.206  0.0650  0.5893  0.4641
   82SAPS  H13R 7676   1.351   3.314   9.112 -0.1671  1.4985  0.1998
   82SAPS  H13S 7677   1.436   3.260   9.257 -0.9965 -0.9889 -1.4516
   82SAPS  C214 7678   1.498   3.455   9.174 -1.0606 -0.4481 -0.2604
   82SAPS  H14R 7679   1.502   3.535   9.249 -1.2234  0.0333 -0.7652
   82SAPS  C215 7680   1.566   3.468   9.058  0.0272  0.4717  0.1642
   82SAPS  H15R 7681   1.650   3.539   9.052  0.6701 -0.0623  2.0754
   82SAPS  C216 7682   1.573   3.366   8.954 -0.1068  0.3829 -0.3763
   82SAPS  H16R 7683   1.475   3.335   8.912  0.4790 -0.6838 -0.9836
   82SAPS  H16S 7684   1.602   3.273   9.007 -1.6319  0.6874  1.0710
   82SAPS  C217 7685   1.671   3.402   8.836 -0.4492  0.4758 -0.7340
   82SAPS  H17R 7686   1.630   3.490   8.782  0.8198 -0.9106 -4.2361
   82SAPS  H17S 7687   1.673   3.311   8.772 -0.4287 -0.2055  0.2112
   82SAPS  C218 7688   1.818   3.422   8.876 -0.1062 -0.3525 -0.7520
   82SAPS  H18R 7689   1.839   3.326   8.927  0.4736 -0.3932 -1.0606
   82SAPS  H18S 7690   1.829   3.507   8.947  0.2953 -0.5799 -0.5383
   82SAPS  C219 7691   1.926   3.424   8.766 -0.7107 -0.5003 -0.1991
   82SAPS  H19R 7692   1.915   3.520   8.710 -0.6932 -0.6135 -0.3967
   82SAPS  H19S 7693   1.913   3.341   8.693  1.1436  0.4563 -1.6966
   82SAPS  C220 7694   2.064   3.423   8.830  0.4420 -0.0432 -0.8483
   82SAPS  H20R 7695   2.082   3.340   8.901 -0.2480 -0.7118 -1.4441
   82SAPS  H20S 7696   2.085   3.518   8.884 -0.8503  1.2312 -2.4923
   82SAPS  H20T 7697   2.140   3.408   8.750  0.3862 -0.4058 -0.8331
   82SAPS   C33 7698   1.710   3.408   9.960 -0.1233 -0.4127  0.1884
   82SAPS   H3X 7699   1.614   3.355   9.942  0.4612 -0.8729 -1.7348
   82SAPS   H3Y 7700   1.796   3.338   9.962  0.1177 -0.3368 -2.8573
   82SAPS   C34 7701   1.736   3.511   9.849  0.5144 -0.0056  0.3646
   82SAPS   H4X 7702   1.823   3.572   9.883 -0.7109  1.4184  1.0502
   82SAPS   H4Y 7703   1.650   3.580   9.835 -0.1038 -0.3724  2.1425
   82SAPS   C35 7704   1.771   3.431   9.719  0.1692 -0.0655 -0.6904
   82SAPS   H5X 7705   1.690   3.362   9.689  1.0586 -1.0497 -0.8940
   82SAPS   H5Y 7706   1.865   3.382   9.752 -0.5862  0.3108  2.3542
   82SAPS   C36 7707   1.790   3.534   9.605  0.1509 -0.1985 -0.0935
   82SAPS   H6X 7708   1.865   3.610   9.638 -1.4763  1.1024  0.7597
   82SAPS   H6Y 7709   1.691   3.580   9.587  0.4474  1.1736  1.4720
   82SAPS   C37 7710   1.831   3.462   9.472 -0.3927  0.0607  0.4540
   82SAPS   H7X 7711   1.827   3.547   9.400 -0.8764 -1.9179 -1.9717
   82SAPS   H7Y 7712   1.744   3.401   9.439 -0.1012 -0.4430  0.6121
   82SAPS   C38 7713   1.964   3.388   9.471  0.5965 -0.2007 -0.3271
   82SAPS   H8X 7714   1.959   3.279   9.495  2.3605  0.0174  1.2127
   82SAPS   H8Y 7715   2.027   3.425   9.554  0.0329 -3.5478  1.7976
   82SAPS   C39 7716   2.040   3.410   9.341  0.4432  0.0670 -0.9188
   82SAPS   H9X 7717   1.967   3.396   9.258  1.3933 -0.9927 -1.6099
   82SAPS   H9Y 7718   2.116   3.329   9.337 -0.8457 -1.3394  1.0909
   82SAPS  C310 7719   2.085   3.552   9.316 -0.6456 -0.2489  0.4413
   82SAPS  H10X 7720   2.173   3.575   9.381  1.4735 -2.7231 -1.3372
   82SAPS  H10Y 7721   2.009   3.631   9.335  0.6051  1.6829 -1.9327
   82SAPS  C311 7722   2.127   3.579   9.169  0.5759 -0.9848  0.0357
   82SAPS  H11X 7723   2.039   3.573   9.102 -1.0996  0.6150  1.9418
   82SAPS  H11Y 7724   2.208   3.510   9.139  3.4151  2.1110  0.0220
   82SAPS  C312 7725   2.179   3.725   9.141  0.9076 -0.1311  0.6483
   82SAPS  H12X 7726   2.268   3.746   9.205 -1.8652  1.4069  4.3975
   82SAPS  H12Y 7727   2.096   3.789   9.179  0.4768 -0.2995 -0.0089
   82SAPS  C313 7728   2.209   3.752   8.988  0.1773  0.4182 -0.0621
   82SAPS  H13X 7729   2.114   3.755   8.931  0.4469  0.7453 -0.5100
   82SAPS  H13Y 7730   2.266   3.661   8.959 -1.3519 -0.3178 -0.9114
   82SAPS  C314 7731   2.294   3.879   8.970  0.1100  0.0366  0.4077
   82SAPS  H14X 7732   2.382   3.863   9.036 -0.2118  0.1106  0.8564
   82SAPS  H14Y 7733   2.225   3.959   9.004 -1.5757 -1.5362  0.8893
   82SAPS  C315 7734   2.328   3.906   8.823 -0.2340 -0.0039 -0.0976
   82SAPS  H15X 7735   2.404   3.842   8.776 -0.3507  0.4321 -0.8958
   82SAPS  H15Y 7736   2.374   4.007   8.820 -1.6999  0.6704 -1.6372
   82SAPS  C316 7737   2.209   3.907   8.725 -0.3085 -0.2427 -0.1979
   82SAPS  H16X 7738   2.239   3.988   8.656 -2.4146  0.6361 -0.1647
   82SAPS  H16Y 7739   2.117   3.948   8.773 -0.4012  0.1833 -0.7317
   82SAPS  C317 7740   2.176   3.776   8.661 -1.0300 -0.0913 -0.0512
   82SAPS  H17X 7741   2.083   3.790   8.601 -0.5971 -1.1437 -1.0080
   82SAPS  H17Y 7742   2.147   3.695   8.732 -3.2529  0.9497  0.3234
   82SAPS  C318 7743   2.290   3.741   8.553 -0.4900 -0.0617  0.3089
   82SAPS  H18X 7744   2.314   3.633   8.541 -1.8282 -0.3097 -0.2465
   82SAPS  H18Y 7745   2.389   3.779   8.587 -0.9244 -2.1019  4.5825
   82SAPS  H18Z 7746   2.276   3.789   8.454  5.2807  0.6798 -0.4988
   83SAPS     N 7747   0.723   4.754  10.809 -0.4141 -0.0357 -0.6430
   83SAPS   HN1 7748   0.739   4.842  10.755 -0.0238  0.6286  0.5294
   83SAPS   HN2 7749   0.701   4.782  10.906 -1.6574 -2.0176 -0.3055
   83SAPS   HN3 7750   0.819   4.714  10.819  0.0368  0.8938 -1.1056
   83SAPS   C12 7751   0.627   4.666  10.740  0.0420  0.3853  0.1530
   83SAPS  H12A 7752   0.649   4.567  10.778  1.4207  1.0193  1.1464
   83SAPS   C13 7753   0.475   4.702  10.762 -1.0808 -0.4458 -0.3673
   83SAPS  O13A 7754   0.443   4.820  10.806  0.2796 -0.0797 -0.4225
   83SAPS  O13B 7755   0.391   4.614  10.729  0.4718 -0.0024  0.3110
   83SAPS   C11 7756   0.664   4.678  10.587  0.1435  0.2838  0.7828
   83SAPS  H11A 7757   0.660   4.780  10.544  1.0554 -0.2476 -0.6119
   83SAPS  H11B 7758   0.590   4.609  10.541  0.5059 -1.3169  2.4788
   83SAPS     P 7759   0.853   4.512  10.506 -0.1666  0.3054  0.2008
   83SAPS   O13 7760   0.995   4.543  10.479 -0.4737  0.1387  0.1646
   83SAPS   O14 7761   0.826   4.391  10.590 -0.5345  0.0564  0.0143
   83SAPS   O12 7762   0.799   4.633  10.577  0.1255 -1.0131  0.2869
   83SAPS   O11 7763   0.785   4.494  10.357 -0.2071 -0.2814  0.2911
   83SAPS    C1 7764   0.794   4.605  10.265  0.2934 -0.7094 -0.3408
   83SAPS    HA 7765   0.697   4.632  10.218  0.9318  1.1614 -0.6509
   83SAPS    HB 7766   0.857   4.682  10.314  0.2521 -1.9263  1.7423
   83SAPS    C2 7767   0.883   4.573  10.142 -0.5500  0.6462  0.4304
   83SAPS    HS 7768   0.991   4.563  10.168 -0.2017  0.5528 -0.9707
   83SAPS   O21 7769   0.880   4.692  10.054  0.0554 -0.2655 -0.2026
   83SAPS   C21 7770   0.970   4.702   9.954 -0.3209 -0.8233  0.0254
   83SAPS   O22 7771   1.042   4.609   9.920 -0.0067 -0.1965  0.1317
   83SAPS   C22 7772   0.967   4.834   9.885  0.2685 -1.0580 -0.0799
   83SAPS   H2R 7773   0.909   4.902   9.952  1.6933 -1.1010  1.2600
   83SAPS   H2S 7774   1.066   4.884   9.886 -0.8869  1.4062 -0.4080
   83SAPS    C3 7775   0.839   4.447  10.066  0.3316  0.1540  0.3007
   83SAPS    HX 7776   0.858   4.371  10.145  2.6250  2.7170  2.4254
   83SAPS    HY 7777   0.910   4.424   9.984  0.4737  1.7896 -0.0683
   83SAPS   O31 7778   0.702   4.453  10.022 -0.2508  1.0673  0.4393
   83SAPS   C31 7779   0.652   4.334   9.986  0.5199 -0.4089 -0.1850
   83SAPS   O32 7780   0.711   4.228  10.005  0.2244 -0.0080 -0.2621
   83SAPS   C32 7781   0.502   4.346   9.949 -0.0632 -1.0007 -0.0305
   83SAPS   H2X 7782   0.489   4.433   9.881 -0.1537  1.4305  2.8814
   83SAPS   H2Y 7783   0.454   4.388  10.040  3.0159  0.9091  0.8815
   83SAPS   C23 7784   0.907   4.827   9.747  0.5066  0.2134  0.2576
   83SAPS   H3R 7785   0.810   4.781   9.775  1.9824 -1.5169  2.9815
   83SAPS   H3S 7786   0.957   4.758   9.677  1.1326  1.9551 -1.0945
   83SAPS   C24 7787   0.900   4.967   9.677 -0.5209  0.2412  0.1549
   83SAPS   H4R 7788   0.999   5.019   9.681 -0.9449  1.2540 -1.4256
   83SAPS   H4S 7789   0.826   5.025   9.737  0.2111  2.6302 -1.0958
   83SAPS   C25 7790   0.867   4.965   9.532  0.3599 -0.2150 -0.4721
   83SAPS   H5R 7791   0.837   4.867   9.492  1.0865 -1.0916  1.0195
   83SAPS   C26 7792   0.876   5.068   9.450 -0.2124  0.0318 -0.2110
   83SAPS   H6R 7793   0.863   5.042   9.344  0.5838 -0.6994 -0.1458
   83SAPS   C27 7794   0.910   5.215   9.466  0.3713  0.1399 -0.1204
   83SAPS   H7R 7795   0.949   5.232   9.569 -0.6383  0.1638  0.2725
   83SAPS   H7S 7796   0.815   5.271   9.449  0.5706 -0.0300 -2.0458
   83SAPS   C28 7797   1.011   5.279   9.374  1.0497 -0.0029 -0.0075
   83SAPS   H8R 7798   1.103   5.327   9.410  2.0026 -0.6074 -1.4984
   83SAPS   C29 7799   0.992   5.283   9.239 -0.8948  0.0369  0.3028
   83SAPS   H9R 7800   1.059   5.343   9.175 -3.4741  1.1630 -1.5253
   83SAPS  C210 7801   0.881   5.223   9.154  0.4930  0.6328 -0.2945
   83SAPS  H10R 7802   0.868   5.296   9.072  0.2651  2.7716  1.5286
   83SAPS  H10S 7803   0.795   5.210   9.225  1.7158 -1.2955  0.9473
   83SAPS  C211 7804   0.911   5.092   9.091 -0.7788  0.1648 -0.1393
   83SAPS  H11R 7805   0.845   5.008   9.119 -0.2101  0.3523  1.9592
   83SAPS  C212 7806   1.014   5.062   9.014  1.0112 -0.1935  0.3774
   83SAPS  H12R 7807   1.010   4.965   8.961 -0.6525  0.8726 -1.5724
   83SAPS  C213 7808   1.122   5.154   8.975 -0.4066 -0.3047  0.1470
   83SAPS  H13R 7809   1.208   5.124   9.038  0.0081 -1.5087 -0.9348
   83SAPS  H13S 7810   1.093   5.260   8.991  1.5863  0.3279 -0.1887
   83SAPS  C214 7811   1.181   5.144   8.836 -1.0343 -0.0978  0.3048
   83SAPS  H14R 7812   1.110   5.146   8.752 -2.5541 -1.5491  1.4938
   83SAPS  C215 7813   1.308   5.169   8.804 -0.6279  0.6965  0.0442
   83SAPS  H15R 7814   1.346   5.175   8.702  0.2121 -1.4854  0.1745
   83SAPS  C216 7815   1.409   5.194   8.909 -0.0343 -0.3529  0.5353
   83SAPS  H16R 7816   1.510   5.184   8.865  0.8184  3.4465  1.3081
   83SAPS  H16S 7817   1.398   5.116   8.987 -1.6978  0.6733  1.3924
   83SAPS  C217 7818   1.412   5.340   8.951 -0.4226  0.1545 -0.3031
   83SAPS  H17R 7819   1.310   5.370   8.982  0.1839  0.8855  1.1025
   83SAPS  H17S 7820   1.425   5.406   8.862 -2.4013  2.0192  0.6895
   83SAPS  C218 7821   1.514   5.378   9.062 -0.3923 -0.8225  0.4545
   83SAPS  H18R 7822   1.494   5.484   9.090 -0.4042 -0.7080  0.0191
   83SAPS  H18S 7823   1.616   5.374   9.019  0.0623 -0.4592  1.4597
   83SAPS  C219 7824   1.510   5.292   9.187 -0.4224 -0.8294 -0.1663
   83SAPS  H19R 7825   1.527   5.188   9.153 -0.0496 -0.0959 -2.4179
   83SAPS  H19S 7826   1.409   5.293   9.231 -0.2015  0.0241  0.3478
   83SAPS  C220 7827   1.626   5.337   9.293 -0.1499  0.0576 -0.4657
   83SAPS  H20R 7828   1.622   5.287   9.392 -0.0440 -1.1858 -1.0733
   83SAPS  H20S 7829   1.622   5.447   9.308 -0.9630  0.1468 -1.2617
   83SAPS  H20T 7830   1.727   5.314   9.252  0.4452 -0.3358  1.1307
   83SAPS   C33 7831   0.433   4.214   9.905 -0.3997 -0.2084  0.0224
   83SAPS   H3X 7832   0.327   4.246   9.897  0.0267  1.5781  0.8778
   83SAPS   H3Y 7833   0.439   4.133   9.981  0.9041 -0.2333 -0.0789
   83SAPS   C34 7834   0.468   4.172   9.761  0.2303  0.9930 -0.4122
   83SAPS   H4X 7835   0.432   4.068   9.748  2.4281  0.0736  0.3482
   83SAPS   H4Y 7836   0.579   4.169   9.753  0.1708 -1.5321 -1.0093
   83SAPS   C35 7837   0.422   4.265   9.648  1.1144 -0.5457  0.5708
   83SAPS   H5X 7838   0.468   4.364   9.667 -0.0686  0.2821 -0.6417
   83SAPS   H5Y 7839   0.311   4.266   9.657  1.1931 -0.4657  1.6559
   83SAPS   C36 7840   0.462   4.220   9.503 -0.3765 -0.5148  0.1797
   83SAPS   H6X 7841   0.411   4.127   9.471  0.8056 -1.2585  0.4110
   83SAPS   H6Y 7842   0.571   4.203   9.509  0.0545  2.1041  1.0056
   83SAPS   C37 7843   0.440   4.326   9.389  0.0715  0.5443 -0.0468
   83SAPS   H7X 7844   0.502   4.415   9.414 -0.2809  0.0364  3.1656
   83SAPS   H7Y 7845   0.336   4.363   9.381 -0.1172  0.0158 -0.0566
   83SAPS   C38 7846   0.485   4.283   9.247 -0.2291 -0.2082 -0.2333
   83SAPS   H8X 7847   0.444   4.350   9.169 -0.5969 -0.4306 -0.2342
   83SAPS   H8Y 7848   0.437   4.185   9.224 -0.5313 -0.0427 -0.3125
   83SAPS   C39 7849   0.638   4.252   9.238 -0.3892 -0.1803  0.6584
   83SAPS   H9X 7850   0.668   4.190   9.325 -0.1868  0.8810  1.3691
   83SAPS   H9Y 7851   0.690   4.349   9.252 -1.4467  0.5309 -0.1381
   83SAPS  C310 7852   0.671   4.173   9.103  0.5433 -0.5310 -0.2196
   83SAPS  H10X 7853   0.638   4.227   9.012  0.6278 -0.3830 -0.1621
   83SAPS  H10Y 7854   0.641   4.067   9.092  1.5640 -0.9343  0.6149
   83SAPS  C311 7855   0.824   4.159   9.087  0.4347 -0.5220  0.3997
   83SAPS  H11X 7856   0.851   4.106   9.181 -2.4351 -1.7454  0.6290
   83SAPS  H11Y 7857   0.860   4.264   9.087 -1.4649  0.1774  1.0673
   83SAPS  C312 7858   0.863   4.082   8.964  0.3991 -0.5790 -0.3560
   83SAPS  H12X 7859   0.796   3.994   8.964 -1.2940  0.6494 -1.3946
   83SAPS  H12Y 7860   0.972   4.063   8.961  1.6144  4.6996 -4.6724
   83SAPS  C313 7861   0.836   4.169   8.838  0.2707  0.0871 -0.0652
   83SAPS  H13X 7862   0.881   4.269   8.850  0.6169  0.0091 -0.6783
   83SAPS  H13Y 7863   0.726   4.170   8.823  0.5135 -0.3454 -2.1441
   83SAPS  C314 7864   0.895   4.107   8.716  0.5557  0.3567 -0.8978
   83SAPS  H14X 7865   0.864   4.000   8.714 -0.6684  0.5342  1.9978
   83SAPS  H14Y 7866   1.003   4.124   8.732  0.4259 -0.3066  1.0373
   83SAPS  C315 7867   0.846   4.159   8.576 -0.1241 -0.6316 -0.7324
   83SAPS  H15X 7868   0.864   4.269   8.583  2.1135 -1.0538  1.5098
   83SAPS  H15Y 7869   0.738   4.135   8.575 -0.4888  0.7604  0.4369
   83SAPS  C316 7870   0.917   4.089   8.470  0.0218  0.5240  1.1991
   83SAPS  H16X 7871   0.875   3.991   8.441 -0.5913  1.4657 -1.3372
   83SAPS  H16Y 7872   1.018   4.048   8.492 -0.2602 -1.3905 -0.8257
   83SAPS  C317 7873   0.932   4.173   8.345 -0.0705 -0.5075 -0.2819
   83SAPS  H17X 7874   0.981   4.267   8.378 -1.3938  0.8839 -2.1010
   83SAPS  H17Y 7875   0.833   4.191   8.298  0.0341  0.0282 -0.3019
   83SAPS  C318 7876   1.028   4.108   8.245  0.4456  0.4727  0.6594
   83SAPS  H18X 7877   0.993   4.140   8.144  0.5390 -0.4095  0.3425
   83SAPS  H18Y 7878   1.032   3.997   8.249  0.5549  0.4616  0.2880
   83SAPS  H18Z 7879   1.134   4.139   8.258  0.7757 -0.7299  0.9067
   84SAPS     N 7880   4.137   4.158  10.933  0.2825 -0.4887  0.8288
   84SAPS   HN1 7881   4.231   4.119  10.911  0.6109  1.0895 -0.8595
   84SAPS   HN2 7882   4.119   4.245  10.879  0.5965  1.2262  3.3490
   84SAPS   HN3 7883   4.124   4.178  11.034 -2.6085  0.5714  0.3286
   84SAPS   C12 7884   4.029   4.064  10.889  0.3390  0.1691 -0.1128
   84SAPS  H12A 7885   4.060   4.042  10.788  0.5139 -2.3171  0.4092
   84SAPS   C13 7886   4.027   3.931  10.968 -0.2380 -0.4538 -0.2500
   84SAPS  O13A 7887   4.097   3.919  11.074  0.8550  0.1490  0.4100
   84SAPS  O13B 7888   3.966   3.833  10.918 -0.2607  0.2152 -0.3386
   84SAPS   C11 7889   3.888   4.135  10.901 -0.1410 -0.4181 -0.0703
   84SAPS  H11A 7890   3.872   4.150  11.010  1.0114  2.4066 -0.1816
   84SAPS  H11B 7891   3.825   4.060  10.850 -0.0177 -1.0579  0.7187
   84SAPS     P 7892   3.835   4.293  10.687  0.2173  0.0554 -0.1457
   84SAPS   O13 7893   3.699   4.349  10.701  0.3015 -0.1684  0.0686
   84SAPS   O14 7894   3.927   4.382  10.612  0.4535 -0.3714 -0.6110
   84SAPS   O12 7895   3.890   4.266  10.830  0.7542 -0.2875 -0.9136
   84SAPS   O11 7896   3.839   4.153  10.610  0.0957 -0.3275 -0.1629
   84SAPS    C1 7897   3.724   4.103  10.540 -0.4893 -0.1834 -0.2646
   84SAPS    HA 7898   3.711   3.998  10.574  0.1982 -0.2637 -0.2325
   84SAPS    HB 7899   3.636   4.164  10.569  1.2760  1.0085  3.1586
   84SAPS    C2 7900   3.732   4.099  10.386 -0.3103 -0.1479 -0.4400
   84SAPS    HS 7901   3.690   4.010  10.335  0.2082  1.1232 -3.2885
   84SAPS   O21 7902   3.880   4.103  10.348  0.2935  0.1280  0.2973
   84SAPS   C21 7903   3.947   3.994  10.379 -0.6301  0.5573 -0.0645
   84SAPS   O22 7904   3.891   3.887  10.411  0.2967  0.1367 -0.2608
   84SAPS   C22 7905   4.090   4.014  10.367 -0.4422 -0.3359  0.0303
   84SAPS   H2R 7906   4.118   4.094  10.438 -3.5117  0.1719  0.8162
   84SAPS   H2S 7907   4.141   3.918  10.390  1.4488  0.8493  1.0561
   84SAPS    C3 7908   3.664   4.211  10.306  0.2219  0.6892  0.0112
   84SAPS    HX 7909   3.697   4.311  10.342  0.7119  0.2314  0.8740
   84SAPS    HY 7910   3.562   4.212  10.349  0.5778  0.0834  0.9019
   84SAPS   O31 7911   3.654   4.204  10.160  0.0709  0.3193  0.3321
   84SAPS   C31 7912   3.759   4.233  10.090 -0.9348  0.0989 -0.0533
   84SAPS   O32 7913   3.869   4.274  10.126  0.4883 -0.1397  0.3990
   84SAPS   C32 7914   3.721   4.221   9.940 -1.1293  0.4562 -0.1734
   84SAPS   H2X 7915   3.611   4.235   9.934 -0.8673  1.9901 -3.8627
   84SAPS   H2Y 7916   3.747   4.120   9.903  0.5125  1.7888 -3.0373
   84SAPS   C23 7917   4.114   4.044  10.214  0.2593 -0.2977  0.8702
   84SAPS   H3R 7918   4.224   4.060  10.204 -0.1203  1.0648 -2.9348
   84SAPS   H3S 7919   4.070   4.142  10.185  1.9835  0.7377  1.5318
   84SAPS   C24 7920   4.056   3.943  10.120 -0.4165  1.0566 -1.1391
   84SAPS   H4R 7921   3.946   3.957  10.119 -0.8477 -1.4268  0.9592
   84SAPS   H4S 7922   4.069   3.839  10.155 -3.7876  1.3318  1.5142
   84SAPS   C25 7923   4.103   3.974   9.981  0.6480 -0.0756  0.1006
   84SAPS   H5R 7924   4.044   4.049   9.926  1.9578  1.3980  0.6055
   84SAPS   C26 7925   4.198   3.914   9.912 -0.8968  0.4168 -0.1150
   84SAPS   H6R 7926   4.220   3.948   9.810  1.8507  0.1820  0.3257
   84SAPS   C27 7927   4.288   3.805   9.975  0.1873  0.2959  0.1100
   84SAPS   H7R 7928   4.305   3.838  10.080  2.2182  0.6161 -0.2642
   84SAPS   H7S 7929   4.386   3.812   9.922  0.9081  2.1092  1.5727
   84SAPS   C28 7930   4.233   3.661   9.979 -0.7149 -0.3316 -0.8215
   84SAPS   H8R 7931   4.163   3.631  10.058  1.0662 -1.9160  0.2198
   84SAPS   C29 7932   4.268   3.565   9.887  0.2441 -0.7290 -0.5368
   84SAPS   H9R 7933   4.231   3.462   9.901 -0.8628 -0.5849 -2.1567
   84SAPS  C210 7934   4.361   3.587   9.774 -0.5740 -0.6460  0.2933
   84SAPS  H10R 7935   4.463   3.593   9.817 -2.1978  1.2710  4.4601
   84SAPS  H10S 7936   4.331   3.683   9.726 -2.1835 -0.5547  1.4240
   84SAPS  C211 7937   4.356   3.473   9.675 -0.8927 -0.6804 -0.0517
   84SAPS  H11R 7938   4.349   3.376   9.727  1.9518 -0.5651  0.6965
   84SAPS  C212 7939   4.348   3.481   9.540 -0.7528  0.4363  0.4899
   84SAPS  H12R 7940   4.337   3.388   9.484 -1.1437  1.2321 -0.8053
   84SAPS  C213 7941   4.363   3.599   9.444 -0.3206 -0.3644  0.5495
   84SAPS  H13R 7942   4.442   3.573   9.371 -0.1552 -0.1927  0.6660
   84SAPS  H13S 7943   4.402   3.693   9.488  0.3736 -0.3265 -0.1318
   84SAPS  C214 7944   4.227   3.641   9.377  0.3985 -0.0123  0.1279
   84SAPS  H14R 7945   4.139   3.623   9.441 -0.2454 -2.6214 -1.3551
   84SAPS  C215 7946   4.212   3.689   9.254 -0.4633  0.2580  0.1407
   84SAPS  H15R 7947   4.106   3.716   9.241 -0.4974  0.3279  0.5574
   84SAPS  C216 7948   4.320   3.706   9.150 -0.3551  0.2228  0.0986
   84SAPS  H16R 7949   4.326   3.619   9.082  0.8771 -0.8192  1.4711
   84SAPS  H16S 7950   4.421   3.705   9.196 -0.6718  1.0972  0.8607
   84SAPS  C217 7951   4.296   3.837   9.075 -0.0108  0.7551 -0.0000
   84SAPS  H17R 7952   4.383   3.864   9.012  0.8323 -3.5982 -1.0152
   84SAPS  H17S 7953   4.271   3.916   9.149 -0.9382  1.8796 -1.4586
   84SAPS  C218 7954   4.178   3.831   8.975  0.0715  0.2198  0.0959
   84SAPS  H18R 7955   4.089   3.784   9.022  0.0587 -2.0237 -1.9513
   84SAPS  H18S 7956   4.207   3.758   8.896  1.8655 -0.4219  1.2956
   84SAPS  C219 7957   4.136   3.958   8.907  0.6996 -0.7687 -0.3392
   84SAPS  H19R 7958   4.085   4.016   8.987  1.0313  3.4345 -2.8487
   84SAPS  H19S 7959   4.051   3.934   8.839 -1.1032  1.5399  0.9772
   84SAPS  C220 7960   4.252   4.046   8.840  0.0760  0.7861 -0.4883
   84SAPS  H20R 7961   4.310   3.969   8.784 -0.6493 -0.7297  0.7721
   84SAPS  H20S 7962   4.317   4.097   8.914  0.8758 -0.8903  0.0265
   84SAPS  H20T 7963   4.202   4.107   8.763 -1.6764 -0.5188 -0.4496
   84SAPS   C33 7964   3.797   4.323   9.847  0.1077  0.7671 -0.3745
   84SAPS   H3X 7965   3.900   4.356   9.875 -0.4865  1.5803  0.9122
   84SAPS   H3Y 7966   3.719   4.401   9.856  0.1826  0.6663  1.4574
   84SAPS   C34 7967   3.814   4.291   9.700  0.0411 -0.4440  0.4330
   84SAPS   H4X 7968   3.876   4.200   9.685  1.1536  0.3962 -0.1251
   84SAPS   H4Y 7969   3.872   4.374   9.654  0.4425 -0.5693  0.7106
   84SAPS   C35 7970   3.697   4.268   9.610  0.0932 -0.9738  0.2173
   84SAPS   H5X 7971   3.607   4.242   9.670 -0.1876  0.8040  0.6247
   84SAPS   H5Y 7972   3.704   4.173   9.552  1.4527 -1.0749  0.5150
   84SAPS   C36 7973   3.659   4.390   9.518  0.5059  0.0978 -0.4028
   84SAPS   H6X 7974   3.748   4.438   9.472 -0.5243  1.4758 -1.0178
   84SAPS   H6Y 7975   3.635   4.473   9.587 -0.2714 -0.1652 -0.3426
   84SAPS   C37 7976   3.535   4.371   9.422  0.1119 -0.4514  0.2509
   84SAPS   H7X 7977   3.508   4.467   9.372 -0.7058 -1.4377 -1.2773
   84SAPS   H7Y 7978   3.437   4.345   9.465 -0.6660  0.3602 -0.9622
   84SAPS   C38 7979   3.560   4.277   9.309 -0.6772 -0.0584  0.4379
   84SAPS   H8X 7980   3.460   4.244   9.274 -0.5164  1.3810 -1.5583
   84SAPS   H8Y 7981   3.617   4.190   9.347  0.8982  0.3610 -0.8659
   84SAPS   C39 7982   3.646   4.333   9.200  0.5107  0.4847  0.3369
   84SAPS   H9X 7983   3.741   4.374   9.239  0.9690 -1.7650  1.7713
   84SAPS   H9Y 7984   3.587   4.419   9.160  2.8183  1.8693 -0.2657
   84SAPS  C310 7985   3.665   4.238   9.081  0.6944  0.9501  0.1752
   84SAPS  H10X 7986   3.565   4.196   9.056 -0.7894  3.3263  1.7687
   84SAPS  H10Y 7987   3.721   4.150   9.120 -1.8073 -0.0774  1.6785
   84SAPS  C311 7988   3.734   4.296   8.957  0.4397 -0.4891 -0.2890
   84SAPS  H11X 7989   3.818   4.359   8.992 -1.6083  1.0431  2.1996
   84SAPS  H11Y 7990   3.672   4.373   8.907  1.9916  1.1121  0.1748
   84SAPS  C312 7991   3.783   4.189   8.868  0.7603 -0.1121 -0.3691
   84SAPS  H12X 7992   3.709   4.113   8.838  1.2977 -1.1493  0.8540
   84SAPS  H12Y 7993   3.863   4.127   8.914  0.2360 -1.6389 -1.4526
   84SAPS  C313 7994   3.852   4.257   8.749  0.4070  0.2479  0.5579
   84SAPS  H13X 7995   3.926   4.189   8.701  1.1548  0.8269  0.8878
   84SAPS  H13Y 7996   3.909   4.348   8.775  0.8346  0.2930 -0.4844
   84SAPS  C314 7997   3.745   4.281   8.636  0.2318  0.1301 -0.2874
   84SAPS  H14X 7998   3.677   4.364   8.664 -0.3015 -0.4122  0.0296
   84SAPS  H14Y 7999   3.675   4.196   8.640 -0.4759  0.7260  0.4387
   84SAPS  C315 8000   3.803   4.321   8.493  0.6490  0.1599 -0.7438
   84SAPS  H15X 8001   3.818   4.227   8.436  2.5655  1.0649 -1.8308
   84SAPS  H15Y 8002   3.908   4.353   8.511  0.1217  0.0858  3.6530
   84SAPS  C316 8003   3.732   4.431   8.416  0.5032 -0.7356 -0.0745
   84SAPS  H16X 8004   3.710   4.512   8.489  0.3458  0.8104 -1.7560
   84SAPS  H16Y 8005   3.635   4.391   8.379 -0.9946  0.8939  1.8283
   84SAPS  C317 8006   3.806   4.473   8.299  0.1538  0.4224  0.1880
   84SAPS  H17X 8007   3.850   4.388   8.243 -0.0961  1.0646 -1.0009
   84SAPS  H17Y 8008   3.890   4.536   8.333  0.6700  1.0276 -2.0696
   84SAPS  C318 8009   3.720   4.554   8.196 -0.0550  0.0812 -0.5290
   84SAPS  H18X 8010   3.618   4.510   8.186 -0.7560  0.3940  3.5541
   84SAPS  H18Y 8011   3.770   4.568   8.098 -1.7949  0.6468 -1.3815
   84SAPS  H18Z 8012   3.704   4.654   8.242 -2.0079 -0.8234  0.9139
   85SAPS     N 8013   1.148   5.505  10.568 -0.0644  0.6170  0.0074
   85SAPS   HN1 8014   1.189   5.522  10.475 -2.4975  1.0329 -1.0598
   85SAPS   HN2 8015   1.178   5.406  10.581 -0.6887  0.5537  1.1378
   85SAPS   HN3 8016   1.045   5.522  10.566 -0.4047 -1.2302 -1.2687
   85SAPS   C12 8017   1.204   5.586  10.682  0.3420 -0.0444  0.2386
   85SAPS  H12A 8018   1.192   5.691  10.662  0.1159 -0.2036 -0.4899
   85SAPS   C13 8019   1.130   5.548  10.813  0.3089 -0.0818  0.6165
   85SAPS  O13A 8020   1.026   5.470  10.804 -0.0391 -0.3594  0.4283
   85SAPS  O13B 8021   1.150   5.620  10.912 -0.2804  0.5742 -0.6013
   85SAPS   C11 8022   1.356   5.554  10.697  0.0649 -0.3650 -0.0058
   85SAPS  H11A 8023   1.394   5.617  10.780 -2.7379 -2.2120  2.9543
   85SAPS  H11B 8024   1.413   5.576  10.605  1.1060 -1.4156  0.3653
   85SAPS     P 8025   1.495   5.356  10.805  0.3092 -0.7316  0.1842
   85SAPS   O13 8026   1.528   5.441  10.924  0.6909  0.4571  0.4267
   85SAPS   O14 8027   1.471   5.211  10.828 -0.1487  0.1499  0.2986
   85SAPS   O12 8028   1.374   5.419  10.734 -0.4610  0.4798  0.5981
   85SAPS   O11 8029   1.613   5.369  10.709  0.0504 -0.2016 -0.1389
   85SAPS    C1 8030   1.616   5.333  10.570  0.6251  0.3849  0.0314
   85SAPS    HA 8031   1.677   5.243  10.551  0.4394  0.6134 -1.7785
   85SAPS    HB 8032   1.514   5.302  10.540 -0.2379  1.1442  1.9888
   85SAPS    C2 8033   1.649   5.449  10.477  0.1162  0.0038 -0.2873
   85SAPS    HS 8034   1.557   5.508  10.456  0.9085  0.5257 -2.4956
   85SAPS   O21 8035   1.695   5.392  10.353 -0.3103 -0.4538  0.5675
   85SAPS   C21 8036   1.608   5.360  10.269 -0.3689  0.3854  0.2405
   85SAPS   O22 8037   1.489   5.396  10.269  0.2699  0.1313 -0.1015
   85SAPS   C22 8038   1.674   5.274  10.164 -0.8028 -0.3215  0.0899
   85SAPS   H2R 8039   1.778   5.313  10.150  0.2118 -2.0819  2.1652
   85SAPS   H2S 8040   1.697   5.172  10.201  2.3477  0.0896 -0.3837
   85SAPS    C3 8041   1.760   5.540  10.536 -0.5427 -0.0523  0.0919
   85SAPS    HX 8042   1.847   5.487  10.581  1.3688  2.1918 -0.7864
   85SAPS    HY 8043   1.725   5.601  10.622  1.0687 -1.4655  1.8395
   85SAPS   O31 8044   1.827   5.608  10.434 -0.5862 -0.6914 -0.1854
   85SAPS   C31 8045   1.767   5.713  10.381  0.2116 -0.0387  0.3097
   85SAPS   O32 8046   1.662   5.760  10.423 -0.0762 -0.6624  0.1487
   85SAPS   C32 8047   1.851   5.783  10.268  0.7746 -0.4128 -0.1433
   85SAPS   H2X 8048   1.921   5.710  10.222  1.0187  0.0213 -0.4717
   85SAPS   H2Y 8049   1.914   5.860  10.319 -0.6300  1.0053 -0.4693
   85SAPS   C23 8050   1.599   5.273  10.023  0.4141  0.3991 -0.2178
   85SAPS   H3R 8051   1.570   5.380  10.010 -0.0254  0.5820  1.9366
   85SAPS   H3S 8052   1.504   5.217  10.033  0.9378 -0.3516  0.7598
   85SAPS   C24 8053   1.680   5.221   9.908  0.2554 -0.1412  0.0739
   85SAPS   H4R 8054   1.770   5.285   9.894  0.0657 -0.1532 -1.2862
   85SAPS   H4S 8055   1.623   5.232   9.814  1.4382  0.5959 -0.5887
   85SAPS   C25 8056   1.719   5.077   9.929 -0.4548  0.4228 -0.2365
   85SAPS   H5R 8057   1.781   5.061  10.019  2.3333  0.4545 -2.0282
   85SAPS   C26 8058   1.686   4.970   9.859  0.2932  0.8305 -0.4636
   85SAPS   H6R 8059   1.722   4.872   9.892  2.5620  1.5939 -0.4441
   85SAPS   C27 8060   1.599   4.964   9.732 -0.0680  0.8723  0.7010
   85SAPS   H7R 8061   1.647   5.012   9.644 -0.0653  0.1717  0.3092
   85SAPS   H7S 8062   1.500   5.013   9.746  0.4555  2.6046 -1.1968
   85SAPS   C28 8063   1.575   4.818   9.690 -0.2409 -0.4493 -0.1691
   85SAPS   H8R 8064   1.624   4.744   9.755 -1.3143 -1.8935 -0.9468
   85SAPS   C29 8065   1.498   4.774   9.595  0.9653  0.1819 -0.1101
   85SAPS   H9R 8066   1.483   4.665   9.592  2.0657 -0.0217  0.8498
   85SAPS  C210 8067   1.408   4.870   9.520  0.3907 -0.4312 -0.0616
   85SAPS  H10R 8068   1.470   4.907   9.435  0.2136  0.1883  0.0720
   85SAPS  H10S 8069   1.391   4.966   9.574  1.8658  0.8028 -1.6490
   85SAPS  C211 8070   1.276   4.823   9.469  0.0599  0.7757  0.4269
   85SAPS  H11R 8071   1.206   4.765   9.532  0.0359  0.6271  0.2633
   85SAPS  C212 8072   1.234   4.826   9.339 -0.4082  0.0525  0.2463
   85SAPS  H12R 8073   1.135   4.778   9.326 -0.4143  0.2982 -0.6696
   85SAPS  C213 8074   1.298   4.891   9.213 -0.1777 -0.2952 -0.2176
   85SAPS  H13R 8075   1.358   4.980   9.241  1.2467 -1.3146  0.0612
   85SAPS  H13S 8076   1.218   4.931   9.146 -0.2816  1.8551  1.1090
   85SAPS  C214 8077   1.394   4.799   9.147  0.7391  0.2251  0.0626
   85SAPS  H14R 8078   1.485   4.773   9.203  1.1106 -2.1682 -1.4948
   85SAPS  C215 8079   1.381   4.742   9.023  0.0034 -0.0177  1.1105
   85SAPS  H15R 8080   1.457   4.673   8.983 -0.2593  0.6054 -0.5466
   85SAPS  C216 8081   1.275   4.785   8.934  0.9769 -0.4712  0.1457
   85SAPS  H16R 8082   1.295   4.893   8.917 -0.2658 -0.1363  0.6681
   85SAPS  H16S 8083   1.178   4.767   8.987  1.8659 -0.9149  1.6943
   85SAPS  C217 8084   1.254   4.710   8.799  0.8360  0.1288  0.6902
   85SAPS  H17R 8085   1.344   4.734   8.738  0.1008  0.4318 -0.3009
   85SAPS  H17S 8086   1.165   4.755   8.751  2.2759  1.0377 -1.2604
   85SAPS  C218 8087   1.220   4.560   8.810 -0.1767 -0.1181 -0.0747
   85SAPS  H18R 8088   1.122   4.538   8.858 -1.1769 -0.1697 -2.0245
   85SAPS  H18S 8089   1.289   4.520   8.888  0.3489 -2.1606 -1.5217
   85SAPS  C219 8090   1.225   4.484   8.682 -0.1326  0.0087 -0.0310
   85SAPS  H19R 8091   1.331   4.473   8.653 -0.7941 -1.6045 -2.1658
   85SAPS  H19S 8092   1.170   4.528   8.596 -2.6271 -1.2412  0.7988
   85SAPS  C220 8093   1.182   4.334   8.685 -0.0481  1.1869  0.2132
   85SAPS  H20R 8094   1.077   4.309   8.711 -0.2780 -1.8982 -2.9487
   85SAPS  H20S 8095   1.260   4.280   8.744  1.0538  0.4945 -1.7872
   85SAPS  H20T 8096   1.208   4.297   8.584 -0.3828  0.2484  0.4616
   85SAPS   C33 8097   1.755   5.839  10.158  0.9041 -0.0170 -0.4249
   85SAPS   H3X 8098   1.826   5.872  10.078  1.7362  2.0900  1.0872
   85SAPS   H3Y 8099   1.705   5.929  10.201  0.7234 -0.2015 -0.2491
   85SAPS   C34 8100   1.659   5.738  10.089  0.3753  0.2541 -0.0998
   85SAPS   H4X 8101   1.581   5.796  10.036 -0.2521 -2.1399 -1.9918
   85SAPS   H4Y 8102   1.602   5.693  10.174 -0.5011  0.9743 -0.2937
   85SAPS   C35 8103   1.728   5.640   9.996  0.5790 -0.0146 -0.6889
   85SAPS   H5X 8104   1.654   5.571   9.950  0.2198  1.2332 -2.0852
   85SAPS   H5Y 8105   1.812   5.594  10.053 -0.8659 -0.8794  0.8101
   85SAPS   C36 8106   1.782   5.714   9.871 -0.5251 -0.0319 -0.2362
   85SAPS   H6X 8107   1.893   5.720   9.874 -0.4788 -0.7506 -0.5330
   85SAPS   H6Y 8108   1.747   5.820   9.880  2.0382  0.8612 -0.0436
   85SAPS   C37 8109   1.743   5.660   9.730 -0.5509 -0.0118  0.4673
   85SAPS   H7X 8110   1.634   5.642   9.717 -0.4672  0.5224 -1.2215
   85SAPS   H7Y 8111   1.772   5.553   9.735 -2.6869 -0.6239  0.8414
   85SAPS   C38 8112   1.801   5.733   9.614  0.5198 -0.6387 -0.0710
   85SAPS   H8X 8113   1.910   5.718   9.602  0.5305 -2.6976  1.9419
   85SAPS   H8Y 8114   1.777   5.841   9.622  0.5031 -0.7523  2.0735
   85SAPS   C39 8115   1.727   5.690   9.485  0.2500  0.0078 -0.1846
   85SAPS   H9X 8116   1.621   5.719   9.501  0.5429  1.3745 -0.5839
   85SAPS   H9Y 8117   1.729   5.579   9.480 -1.2613  0.0071 -3.0468
   85SAPS  C310 8118   1.784   5.748   9.356 -0.2875  0.4386 -0.3518
   85SAPS  H10X 8119   1.889   5.716   9.340  0.0369  0.9581  0.6680
   85SAPS  H10Y 8120   1.778   5.859   9.360  4.2741  0.9545 -1.7089
   85SAPS  C311 8121   1.708   5.722   9.225 -0.6354  0.0977 -0.4509
   85SAPS  H11X 8122   1.599   5.722   9.246 -0.2895 -1.4031  1.6994
   85SAPS  H11Y 8123   1.742   5.620   9.197 -0.0927  0.2152 -0.2432
   85SAPS  C312 8124   1.743   5.816   9.106  0.2277 -0.1922  0.6078
   85SAPS  H12X 8125   1.850   5.799   9.081 -0.1114 -0.9588 -0.4042
   85SAPS  H12Y 8126   1.738   5.922   9.137  0.4043  0.0773 -0.2679
   85SAPS  C313 8127   1.663   5.770   8.979 -0.6393 -0.0319 -0.6162
   85SAPS  H13X 8128   1.557   5.779   9.013  0.0583  1.7913  1.3206
   85SAPS  H13Y 8129   1.693   5.671   8.939  1.8252  0.8092 -1.0192
   85SAPS  C314 8130   1.683   5.870   8.864 -0.1968 -0.0918  0.1827
   85SAPS  H14X 8131   1.788   5.881   8.830 -0.5842  1.0885 -0.7143
   85SAPS  H14Y 8132   1.653   5.965   8.913  2.4087  0.8326  0.1400
   85SAPS  C315 8133   1.594   5.829   8.734 -0.6846  0.2458  0.0584
   85SAPS  H15X 8134   1.492   5.801   8.767 -0.8862  0.1930 -0.6070
   85SAPS  H15Y 8135   1.632   5.737   8.683  0.5829  0.5696  0.3705
   85SAPS  C316 8136   1.570   5.950   8.641  0.5183  0.5215  0.3346
   85SAPS  H16X 8137   1.536   6.037   8.702 -0.5959  0.5840 -0.3418
   85SAPS  H16Y 8138   1.481   5.921   8.582 -0.0017  0.9665  0.8792
   85SAPS  C317 8139   1.682   5.995   8.542 -0.0687 -0.1684  0.6428
   85SAPS  H17X 8140   1.737   5.904   8.511 -2.0755 -1.3552  0.3464
   85SAPS  H17Y 8141   1.752   6.072   8.581 -0.4238 -0.4603  1.8981
   85SAPS  C318 8142   1.612   6.063   8.416 -0.6419 -0.7654 -0.1571
   85SAPS  H18X 8143   1.535   5.993   8.377 -1.1967 -1.1558  1.5507
   85SAPS  H18Y 8144   1.688   6.089   8.339 -0.0637  2.7790  1.4469
   85SAPS  H18Z 8145   1.570   6.161   8.446  1.8177  0.4684 -0.5407
   86SAPS     N 8146   2.993   5.828  10.992 -0.0190 -0.6398 -0.7572
   86SAPS   HN1 8147   2.957   5.856  10.899 -0.1030 -0.1478 -0.5819
   86SAPS   HN2 8148   2.942   5.881  11.065  2.0216 -0.2621  0.4755
   86SAPS   HN3 8149   3.092   5.859  10.997 -1.1903  3.6331  0.0436
   86SAPS   C12 8150   2.985   5.684  11.014 -0.4546  0.2354 -0.1196
   86SAPS  H12A 8151   3.015   5.655  11.113 -0.3634  0.7275 -0.0009
   86SAPS   C13 8152   2.840   5.635  11.009  0.0864  0.3608 -0.5397
   86SAPS  O13A 8153   2.741   5.708  11.003  0.1716 -0.3650 -0.6617
   86SAPS  O13B 8154   2.820   5.514  11.024 -0.0640  0.6754  0.4847
   86SAPS   C11 8155   3.071   5.617  10.905  0.0057 -0.6581 -0.5050
   86SAPS  H11A 8156   3.072   5.506  10.906  2.2219 -0.7001 -0.8143
   86SAPS  H11B 8157   3.174   5.653  10.927 -0.3847 -0.4588  1.1679
   86SAPS     P 8158   3.128   5.721  10.674 -0.0737 -0.1597 -0.4877
   86SAPS   O13 8159   3.081   5.724  10.534 -0.1134  0.7022  0.1581
   86SAPS   O14 8160   3.174   5.852  10.727  0.6540 -0.0942 -0.6084
   86SAPS   O12 8161   3.024   5.650  10.772  0.5557 -0.0318  0.0161
   86SAPS   O11 8162   3.255   5.632  10.687 -0.0073 -0.9166 -0.5426
   86SAPS    C1 8163   3.260   5.500  10.633 -0.1910  0.2723  0.6730
   86SAPS    HA 8164   3.277   5.419  10.708  0.5110 -0.5490 -0.3416
   86SAPS    HB 8165   3.166   5.472  10.581  0.7391  0.0490 -0.9630
   86SAPS    C2 8166   3.370   5.491  10.531  0.3223  0.5987 -0.2712
   86SAPS    HS 8167   3.467   5.519  10.577  0.2999 -1.1610  0.9384
   86SAPS   O21 8168   3.325   5.582  10.433  0.5629  0.2872 -0.1009
   86SAPS   C21 8169   3.412   5.664  10.372 -0.3052  0.0040 -1.1204
   86SAPS   O22 8170   3.534   5.651  10.379  0.7467  0.1595 -0.3104
   86SAPS   C22 8171   3.339   5.783  10.313  0.2790  0.4727 -0.5285
   86SAPS   H2R 8172   3.241   5.742  10.279 -0.3922  0.8022  0.9172
   86SAPS   H2S 8173   3.311   5.858  10.390 -1.9543 -2.0752  1.3204
   86SAPS    C3 8174   3.383   5.356  10.460 -0.2298 -0.2464  0.0731
   86SAPS    HX 8175   3.430   5.284  10.530 -0.4528 -0.9253 -0.4607
   86SAPS    HY 8176   3.446   5.366  10.369  1.0071  1.8591  1.0843
   86SAPS   O31 8177   3.256   5.311  10.410  0.0153 -0.3625  0.1284
   86SAPS   C31 8178   3.214   5.187  10.439 -0.1798 -0.6172  0.7957
   86SAPS   O32 8179   3.266   5.107  10.517  0.7246 -0.5733  0.0093
   86SAPS   C32 8180   3.096   5.147  10.346  0.5454 -0.1332 -0.3516
   86SAPS   H2X 8181   3.098   5.199  10.248  2.5770  0.2847 -0.1326
   86SAPS   H2Y 8182   3.004   5.166  10.404  2.2940 -1.0981  2.9843
   86SAPS   C23 8183   3.413   5.863  10.195 -0.2108  0.4479  0.3103
   86SAPS   H3R 8184   3.522   5.853  10.213  0.3172  1.3613 -1.9606
   86SAPS   H3S 8185   3.399   5.972  10.210  0.6889  0.5503  0.4545
   86SAPS   C24 8186   3.381   5.821  10.047 -0.4540  0.5991 -0.0638
   86SAPS   H4R 8187   3.411   5.714  10.042 -3.5429 -0.3440 -0.8257
   86SAPS   H4S 8188   3.447   5.876   9.977 -1.2072  1.2964 -0.2536
   86SAPS   C25 8189   3.240   5.841  10.025  0.7748  0.4636 -0.4317
   86SAPS   H5R 8190   3.173   5.854  10.111 -0.2445  1.3311 -1.3464
   86SAPS   C26 8191   3.196   5.849   9.905  0.3799  0.2171 -0.0754
   86SAPS   H6R 8192   3.088   5.851   9.885  0.6536 -2.6355 -2.6448
   86SAPS   C27 8193   3.271   5.842   9.775 -0.7562 -0.4935  0.1572
   86SAPS   H7R 8194   3.213   5.810   9.686 -0.2559  0.3686 -0.4937
   86SAPS   H7S 8195   3.350   5.765   9.784 -1.4103 -0.9872  2.3334
   86SAPS   C28 8196   3.320   5.981   9.739 -0.2017 -0.1225 -0.0462
   86SAPS   H8R 8197   3.357   6.035   9.827 -0.4367  0.8502 -0.5257
   86SAPS   C29 8198   3.320   6.030   9.609  0.0312  0.1644 -0.3432
   86SAPS   H9R 8199   3.372   6.124   9.588  3.1626 -1.3361  0.1346
   86SAPS  C210 8200   3.277   5.956   9.487 -0.0698  1.1570 -0.2305
   86SAPS  H10R 8201   3.167   5.972   9.494 -0.7403 -2.7613  0.7021
   86SAPS  H10S 8202   3.301   5.848   9.490  0.8047  1.3683  2.1298
   86SAPS  C211 8203   3.354   6.010   9.364 -0.0484  0.7772  0.3630
   86SAPS  H11R 8204   3.461   6.006   9.389  0.1102  3.0360  0.2136
   86SAPS  C212 8205   3.300   6.022   9.240  0.0071  0.7440 -0.0300
   86SAPS  H12R 8206   3.369   6.060   9.164  0.5231 -0.0223  0.0394
   86SAPS  C213 8207   3.149   6.023   9.202 -0.9201 -0.9160 -0.3534
   86SAPS  H13R 8208   3.088   6.012   9.294 -1.0976  1.6820 -0.0713
   86SAPS  H13S 8209   3.123   5.937   9.138 -0.3274 -1.3497 -0.0202
   86SAPS  C214 8210   3.107   6.158   9.139 -0.0677  0.0495  0.2341
   86SAPS  H14R 8211   3.065   6.234   9.206 -3.0460 -2.1658  1.1078
   86SAPS  C215 8212   3.094   6.178   9.005  0.2554  0.4342  0.0434
   86SAPS  H15R 8213   3.071   6.281   8.973  0.6406  0.8140  0.9607
   86SAPS  C216 8214   3.132   6.087   8.895  0.9762  0.1073 -0.0344
   86SAPS  H16R 8215   3.089   5.985   8.909  1.2431 -0.0483 -0.3337
   86SAPS  H16S 8216   3.242   6.076   8.888  0.7355 -1.9349 -1.8519
   86SAPS  C217 8217   3.089   6.134   8.755  0.8328  0.4241  0.5254
   86SAPS  H17R 8218   2.982   6.159   8.773  0.7211  0.1354  0.2647
   86SAPS  H17S 8219   3.092   6.051   8.681 -2.7718  0.5339  0.0509
   86SAPS  C218 8220   3.162   6.254   8.693 -0.2637 -0.3310 -0.0899
   86SAPS  H18R 8221   3.266   6.229   8.662 -0.0083 -0.5812  0.9539
   86SAPS  H18S 8222   3.165   6.328   8.775 -0.6218 -1.3502  0.8661
   86SAPS  C219 8223   3.087   6.316   8.570  0.4050  0.5034 -0.4135
   86SAPS  H19R 8224   2.987   6.352   8.601  1.1926  1.3677  1.2701
   86SAPS  H19S 8225   3.070   6.230   8.502 -1.3032  0.6279 -0.1849
   86SAPS  C220 8226   3.179   6.417   8.508  0.7777 -0.3848 -0.2490
   86SAPS  H20R 8227   3.122   6.482   8.438 -0.9874 -1.4414  0.1302
   86SAPS  H20S 8228   3.264   6.374   8.451 -0.8776 -1.4720 -2.0721
   86SAPS  H20T 8229   3.220   6.482   8.587 -0.0183  0.2053 -0.3072
   86SAPS   C33 8230   3.094   4.990  10.319 -0.2791  0.5477 -0.6452
   86SAPS   H3X 8231   3.048   4.937  10.405 -0.7919  0.8574 -0.7268
   86SAPS   H3Y 8232   3.197   4.951  10.304 -0.7303 -0.7003 -0.5887
   86SAPS   C34 8233   2.996   4.945  10.211  0.3154 -0.3283  0.2710
   86SAPS   H4X 8234   2.904   5.003  10.233  0.6280  1.0301 -1.7222
   86SAPS   H4Y 8235   2.975   4.836  10.216 -0.0403 -0.3154 -0.7123
   86SAPS   C35 8236   3.019   4.963  10.061 -0.5001  0.1071 -0.4142
   86SAPS   H5X 8237   3.012   5.072  10.044  2.2836  0.3029 -0.8110
   86SAPS   H5Y 8238   2.926   4.930  10.009 -0.7099  2.6245 -1.7857
   86SAPS   C36 8239   3.157   4.910  10.001 -0.5483 -0.9940 -0.6132
   86SAPS   H6X 8240   3.182   4.824  10.066  0.2418  0.2307  0.7763
   86SAPS   H6Y 8241   3.239   4.984  10.014  0.4597 -2.0828 -0.5839
   86SAPS   C37 8242   3.146   4.872   9.854 -0.2006  0.6552  1.2291
   86SAPS   H7X 8243   3.040   4.887   9.824 -0.2379 -0.7856  0.5372
   86SAPS   H7Y 8244   3.167   4.763   9.847 -1.1014  0.4696  1.2993
   86SAPS   C38 8245   3.238   4.965   9.764  0.1450 -0.0597 -0.5897
   86SAPS   H8X 8246   3.343   4.930   9.768  0.0584 -0.4949 -1.8675
   86SAPS   H8Y 8247   3.228   5.070   9.799  1.1462  0.3599 -1.5119
   86SAPS   C39 8248   3.205   4.983   9.617  0.0897 -0.5652  0.0618
   86SAPS   H9X 8249   3.104   5.028   9.614 -0.4955 -1.7292  1.1854
   86SAPS   H9Y 8250   3.209   4.881   9.573 -2.7058 -0.1994 -1.2459
   86SAPS  C310 8251   3.306   5.081   9.557  0.2577 -0.5860 -0.6197
   86SAPS  H10X 8252   3.404   5.084   9.610 -1.1945  0.3131  2.2147
   86SAPS  H10Y 8253   3.258   5.179   9.573 -0.5716 -0.8920 -1.1588
   86SAPS  C311 8254   3.347   5.045   9.413  0.4053 -0.4535 -0.4279
   86SAPS  H11X 8255   3.253   5.010   9.366  1.0203 -2.7814 -0.0664
   86SAPS  H11Y 8256   3.424   4.968   9.391 -0.7432 -0.8251 -3.6034
   86SAPS  C312 8257   3.391   5.163   9.328 -0.2686  0.1577 -0.5021
   86SAPS  H12X 8258   3.494   5.180   9.367  0.4534 -1.4734 -1.5842
   86SAPS  H12Y 8259   3.316   5.241   9.352  0.4842  0.5066  0.8175
   86SAPS  C313 8260   3.403   5.113   9.183 -0.0277  0.2387 -0.7224
   86SAPS  H13X 8261   3.304   5.065   9.168  0.4348 -0.2836 -2.2139
   86SAPS  H13Y 8262   3.487   5.042   9.175 -0.8657 -0.6644 -1.8901
   86SAPS  C314 8263   3.423   5.238   9.085  0.1065  0.0258  0.1852
   86SAPS  H14X 8264   3.505   5.305   9.120  0.8543 -1.6678  1.8614
   86SAPS  H14Y 8265   3.330   5.298   9.091  0.8108  1.0558  1.0903
   86SAPS  C315 8266   3.463   5.203   8.944  0.0428 -0.7023  0.1634
   86SAPS  H15X 8267   3.391   5.129   8.903  0.2977 -0.9742  0.2013
   86SAPS  H15Y 8268   3.562   5.152   8.941  0.0946 -0.7234  1.6074
   86SAPS  C316 8269   3.462   5.332   8.847 -0.0800 -0.1100  0.1854
   86SAPS  H16X 8270   3.502   5.300   8.748 -2.5897 -2.8456 -0.0908
   86SAPS  H16Y 8271   3.530   5.402   8.899  1.6588  0.6484 -2.8715
   86SAPS  C317 8272   3.326   5.399   8.807  0.2551  0.0585 -0.1602
   86SAPS  H17X 8273   3.274   5.448   8.892  0.1354 -1.4605  0.6762
   86SAPS  H17Y 8274   3.254   5.326   8.765 -0.9340  0.9049  0.3464
   86SAPS  C318 8275   3.342   5.492   8.683  0.2284 -0.2991 -0.2373
   86SAPS  H18X 8276   3.238   5.521   8.654 -0.3290 -1.1557  0.8398
   86SAPS  H18Y 8277   3.401   5.443   8.602  0.1182  0.1585 -0.6026
   86SAPS  H18Z 8278   3.397   5.582   8.717 -2.6549  1.6583 -0.3899
   87SAPS     N 8279   4.001   6.317  10.741 -0.0851  0.1783 -0.2617
   87SAPS   HN1 8280   3.912   6.336  10.791 -0.1164 -1.1493  0.2233
   87SAPS   HN2 8281   4.087   6.350  10.789 -0.8436  0.9224  0.6163
   87SAPS   HN3 8282   4.001   6.352  10.643 -0.4650  0.6555 -0.0980
   87SAPS   C12 8283   4.013   6.175  10.725  0.3548 -0.4020  0.1368
   87SAPS  H12A 8284   4.114   6.157  10.690  1.5819 -0.6979  3.4880
   87SAPS   C13 8285   3.999   6.090  10.858  0.1128  0.8744  0.1325
   87SAPS  O13A 8286   3.985   6.149  10.968 -0.3907  0.1810 -0.2902
   87SAPS  O13B 8287   3.995   5.963  10.851 -0.4790 -0.2157 -0.5809
   87SAPS   C11 8288   3.902   6.127  10.623  0.4628 -0.8407  0.3215
   87SAPS  H11A 8289   3.921   6.020  10.596  0.3295 -0.9680  0.7334
   87SAPS  H11B 8290   3.905   6.193  10.534 -0.0575  2.5098  2.6111
   87SAPS     P 8291   3.662   6.230  10.680  0.1989 -0.0730 -0.5937
   87SAPS   O13 8292   3.529   6.181  10.731 -0.1072  0.0795 -0.0131
   87SAPS   O14 8293   3.728   6.337  10.760  0.3269 -0.1408 -0.3531
   87SAPS   O12 8294   3.773   6.117  10.685 -0.0746 -0.2534  0.1154
   87SAPS   O11 8295   3.654   6.268  10.524 -0.0915 -0.0545 -0.0136
   87SAPS    C1 8296   3.583   6.171  10.445 -0.3355 -0.5138 -0.0099
   87SAPS    HA 8297   3.622   6.069  10.467  0.0585  0.0251  1.9670
   87SAPS    HB 8298   3.474   6.174  10.466 -0.1586  1.3372  0.8841
   87SAPS    C2 8299   3.616   6.207  10.303  0.3712 -0.1977 -0.4665
   87SAPS    HS 8300   3.644   6.314  10.293 -5.4412  1.6212 -0.9727
   87SAPS   O21 8301   3.507   6.173  10.214 -0.7511  0.4207 -0.4052
   87SAPS   C21 8302   3.397   6.254  10.232 -0.0869  0.3937  0.6113
   87SAPS   O22 8303   3.390   6.342  10.314  0.2642 -0.0616 -0.3832
   87SAPS   C22 8304   3.292   6.210  10.132 -0.1067 -0.4672  0.4853
   87SAPS   H2R 8305   3.334   6.131  10.067 -0.2966  1.0607 -1.6289
   87SAPS   H2S 8306   3.216   6.162  10.197 -1.7516  0.7706 -0.4459
   87SAPS    C3 8307   3.743   6.122  10.257  0.4351 -0.4000  0.0712
   87SAPS    HX 8308   3.729   6.017  10.290 -2.5084  0.3532  1.5586
   87SAPS    HY 8309   3.829   6.166  10.311  0.3047  1.2221 -0.9771
   87SAPS   O31 8310   3.753   6.135  10.112 -0.5065  0.5238 -0.1011
   87SAPS   C31 8311   3.827   6.238  10.065  0.7223  0.5961 -0.2779
   87SAPS   O32 8312   3.911   6.299  10.130  0.4422  0.4494 -0.4716
   87SAPS   C32 8313   3.803   6.258   9.919 -0.2893  0.7388 -0.1887
   87SAPS   H2X 8314   3.873   6.185   9.873 -2.0750 -1.9881  1.1344
   87SAPS   H2Y 8315   3.847   6.358   9.896 -0.8572  0.8123 -0.9785
   87SAPS   C23 8316   3.223   6.324  10.047  0.4789 -0.0044 -0.5595
   87SAPS   H3R 8317   3.155   6.397  10.094 -0.7316 -0.2406 -1.8860
   87SAPS   H3S 8318   3.155   6.269   9.979  1.1251 -1.5998  0.0395
   87SAPS   C24 8319   3.321   6.407   9.966 -1.2094  0.4694 -0.2940
   87SAPS   H4R 8320   3.375   6.337   9.899  1.2237  0.5994  1.3982
   87SAPS   H4S 8321   3.405   6.451  10.023 -2.2290  1.3347  0.5876
   87SAPS   C25 8322   3.254   6.522   9.886 -0.6620 -0.5061 -0.4228
   87SAPS   H5R 8323   3.256   6.619   9.938 -1.5955 -1.4363  1.4619
   87SAPS   C26 8324   3.202   6.525   9.764 -0.3247 -0.4608  0.4693
   87SAPS   H6R 8325   3.159   6.617   9.719  0.8707  0.5444  1.3305
   87SAPS   C27 8326   3.175   6.410   9.671 -0.5659  0.1088  1.0362
   87SAPS   H7R 8327   3.204   6.310   9.707  2.4581 -0.7924 -3.0889
   87SAPS   H7S 8328   3.248   6.429   9.589 -1.1813 -0.8049  0.2668
   87SAPS   C28 8329   3.028   6.415   9.626 -0.6109  0.1177  0.5991
   87SAPS   H8R 8330   2.965   6.368   9.703 -0.7857 -1.0790 -0.2426
   87SAPS   C29 8331   2.978   6.468   9.516  0.0830  0.4229 -0.0970
   87SAPS   H9R 8332   2.873   6.446   9.490  0.2523 -0.1890 -0.2683
   87SAPS  C210 8333   3.046   6.540   9.407  0.8564  0.5528 -0.8104
   87SAPS  H10R 8334   3.109   6.468   9.350  2.1469  0.8094  0.2207
   87SAPS  H10S 8335   3.114   6.608   9.464 -0.3755  1.2389 -0.1045
   87SAPS  C211 8336   2.947   6.620   9.321  0.9973  0.1372 -0.6655
   87SAPS  H11R 8337   2.871   6.680   9.374 -1.6460 -2.1240 -1.6184
   87SAPS  C212 8338   2.920   6.598   9.189  0.2902 -0.2622  0.1594
   87SAPS  H12R 8339   2.851   6.664   9.135 -0.2241  0.6508  1.8282
   87SAPS  C213 8340   2.989   6.502   9.099  0.1105  0.0813 -0.4052
   87SAPS  H13R 8341   2.926   6.416   9.070  0.2091 -0.7065  1.5782
   87SAPS  H13S 8342   3.085   6.463   9.139 -0.9140  0.3445  2.5149
   87SAPS  C214 8343   3.033   6.580   8.973  0.0153 -0.2637 -0.0014
   87SAPS  H14R 8344   3.132   6.628   8.969 -0.5266  0.8630 -0.3593
   87SAPS  C215 8345   2.961   6.579   8.860 -0.0679  0.2373  1.0058
   87SAPS  H15R 8346   3.011   6.623   8.773  1.2575 -0.0949  1.5753
   87SAPS  C216 8347   2.826   6.525   8.829 -0.2333 -0.5513  0.2941
   87SAPS  H16R 8348   2.749   6.561   8.901  0.0302  1.6818 -0.4735
   87SAPS  H16S 8349   2.813   6.414   8.831 -0.2415 -0.5611 -0.1773
   87SAPS  C217 8350   2.762   6.573   8.693 -0.3679  0.0311  0.3762
   87SAPS  H17R 8351   2.668   6.513   8.686 -0.1672 -0.3139  0.6233
   87SAPS  H17S 8352   2.835   6.532   8.619  0.1023 -1.6828  1.7264
   87SAPS  C218 8353   2.738   6.720   8.678  0.2618 -0.1284 -0.8501
   87SAPS  H18R 8354   2.836   6.769   8.660  1.2751 -1.0838  1.7001
   87SAPS  H18S 8355   2.696   6.762   8.771  3.0669  2.1556 -0.4950
   87SAPS  C219 8356   2.642   6.738   8.562 -0.5600  0.0854  0.3274
   87SAPS  H19R 8357   2.546   6.688   8.586 -0.7680 -0.3881 -1.3864
   87SAPS  H19S 8358   2.682   6.696   8.468 -4.2591  0.7337 -1.7311
   87SAPS  C220 8359   2.611   6.888   8.535  0.0850 -0.1807 -0.0418
   87SAPS  H20R 8360   2.548   6.891   8.444  0.3230 -0.7601 -0.2302
   87SAPS  H20S 8361   2.702   6.947   8.511  0.2177 -1.3601 -2.7661
   87SAPS  H20T 8362   2.560   6.936   8.621  2.7364  0.0689  1.4928
   87SAPS   C33 8363   3.656   6.245   9.880  0.9130  0.1092 -0.4018
   87SAPS   H3X 8364   3.600   6.331   9.922 -1.6348 -0.8056 -1.7154
   87SAPS   H3Y 8365   3.619   6.147   9.918 -0.1672  0.1055 -1.4138
   87SAPS   C34 8366   3.640   6.253   9.726  0.5534 -0.8340 -0.5074
   87SAPS   H4X 8367   3.530   6.238   9.718 -0.2619  1.5040  3.4209
   87SAPS   H4Y 8368   3.694   6.173   9.673 -0.9217 -0.2139 -3.1028
   87SAPS   C35 8369   3.684   6.390   9.665  0.6881  0.3671  0.1143
   87SAPS   H5X 8370   3.790   6.400   9.696  0.9343 -1.0515 -0.2173
   87SAPS   H5Y 8371   3.625   6.465   9.721 -0.0442 -0.9030  1.0900
   87SAPS   C36 8372   3.672   6.417   9.515  0.5919 -0.6754 -0.1414
   87SAPS   H6X 8373   3.752   6.366   9.457  2.0698  2.1929 -0.8247
   87SAPS   H6Y 8374   3.689   6.526   9.502  2.4113 -1.0718 -1.4686
   87SAPS   C37 8375   3.538   6.377   9.451 -0.2680  0.0446  0.0418
   87SAPS   H7X 8376   3.446   6.426   9.491 -0.6657 -0.9889  0.4356
   87SAPS   H7Y 8377   3.523   6.268   9.463  1.5349 -0.1732  0.6696
   87SAPS   C38 8378   3.545   6.415   9.301 -0.0492 -0.8131  0.7749
   87SAPS   H8X 8379   3.619   6.350   9.250 -1.1073 -0.7389 -0.9333
   87SAPS   H8Y 8380   3.591   6.516   9.299 -0.5488 -0.5812  0.9136
   87SAPS   C39 8381   3.404   6.399   9.234 -1.3500  0.1651  0.2282
   87SAPS   H9X 8382   3.320   6.455   9.280 -0.8715 -0.5230  2.0186
   87SAPS   H9Y 8383   3.384   6.289   9.232 -0.8046 -0.0210  2.4681
   87SAPS  C310 8384   3.420   6.445   9.092 -0.3179  0.1501  0.5409
   87SAPS  H10X 8385   3.323   6.427   9.042 -0.1120 -1.4696  0.6455
   87SAPS  H10Y 8386   3.502   6.390   9.041  0.0183  1.6819 -0.6186
   87SAPS  C311 8387   3.463   6.592   9.086 -0.1604  0.2265  0.0071
   87SAPS  H11X 8388   3.573   6.586   9.099  0.1481  3.6937 -0.1608
   87SAPS  H11Y 8389   3.418   6.654   9.166  1.7667 -1.1546  2.2812
   87SAPS  C312 8390   3.436   6.648   8.947  0.7196 -0.4808 -0.1646
   87SAPS  H12X 8391   3.331   6.621   8.924  0.3514 -2.5100  3.1989
   87SAPS  H12Y 8392   3.510   6.603   8.877  0.1576 -0.1379 -0.9934
   87SAPS  C313 8393   3.423   6.801   8.951  0.3753 -0.0111 -0.0952
   87SAPS  H13X 8394   3.527   6.839   8.963  0.4450 -0.7005  1.7557
   87SAPS  H13Y 8395   3.357   6.831   9.035  0.6975 -2.5084  1.1265
   87SAPS  C314 8396   3.351   6.847   8.823 -0.6118 -0.1071  0.0406
   87SAPS  H14X 8397   3.320   6.954   8.831 -0.2937 -0.1346  1.9994
   87SAPS  H14Y 8398   3.259   6.786   8.806 -1.9730  1.5608  1.0612
   87SAPS  C315 8399   3.448   6.844   8.699 -0.1228 -0.7113 -0.2917
   87SAPS  H15X 8400   3.456   6.736   8.674  1.8050 -1.0016  1.2662
   87SAPS  H15Y 8401   3.556   6.862   8.717  0.2954 -2.1482 -1.1109
   87SAPS  C316 8402   3.385   6.913   8.571 -0.5540 -0.4574 -0.0223
   87SAPS  H16X 8403   3.284   6.868   8.557  0.8089 -3.5843 -0.7063
   87SAPS  H16Y 8404   3.438   6.881   8.479  0.2349  0.8389 -0.0416
   87SAPS  C317 8405   3.383   7.065   8.566  0.4104 -0.7826 -0.1355
   87SAPS  H17X 8406   3.478   7.115   8.597  0.2386 -0.2119 -0.5173
   87SAPS  H17Y 8407   3.311   7.101   8.643 -0.4028  1.2134 -1.7470
   87SAPS  C318 8408   3.345   7.118   8.430  0.6642 -0.5451  0.3193
   87SAPS  H18X 8409   3.372   7.224   8.410  0.8588 -0.7430 -0.5202
   87SAPS  H18Y 8410   3.236   7.112   8.411  0.8715  1.4285 -2.0317
   87SAPS  H18Z 8411   3.381   7.045   8.353 -1.3139 -1.5935  0.3152
   88SAPS     N 8412   0.198   4.711  10.908 -0.4579 -0.0065  0.1980
   88SAPS   HN1 8413   0.212   4.622  10.960 -0.0374  0.3246  0.6660
   88SAPS   HN2 8414   0.245   4.690  10.818 -1.2915 -0.7263 -0.0785
   88SAPS   HN3 8415   0.250   4.779  10.966  1.2751 -2.0743  1.2297
   88SAPS   C12 8416   0.059   4.751  10.897  0.0342  0.5039  0.5613
   88SAPS  H12A 8417   0.046   4.802  10.803  0.3693  0.3624  0.4377
   88SAPS   C13 8418  -0.039   4.627  10.892  0.2631 -0.5031  0.4989
   88SAPS  O13A 8419   0.013   4.508  10.901  0.1590 -0.6624  0.2915
   88SAPS  O13B 8420  -0.160   4.644  10.928  0.0148 -0.2070  0.2741
   88SAPS   C11 8421   0.035   4.838  11.029  0.5950  0.8175  1.5662
   88SAPS  H11A 8422   0.043   4.771  11.117 -0.8106 -1.7399 -0.1005
   88SAPS  H11B 8423  -0.069   4.874  11.042 -0.2810 -0.3048 -1.4552
   88SAPS     P 8424   0.101   5.094  10.990 -0.0328  0.7476  0.1621
   88SAPS   O13 8425  -0.021   5.139  11.059  0.4480  0.3135  0.9986
   88SAPS   O14 8426   0.223   5.182  10.982  0.1997  0.2689 -0.3312
   88SAPS   O12 8427   0.131   4.945  11.047  0.1963  0.0519  0.3422
   88SAPS   O11 8428   0.076   5.041  10.839  0.0533 -0.4311 -0.3449
   88SAPS    C1 8429   0.022   5.133  10.741 -0.1591  0.4173 -0.3688
   88SAPS    HA 8430  -0.078   5.166  10.777 -0.1983  0.4289 -0.4888
   88SAPS    HB 8431   0.089   5.222  10.731 -0.2668  0.5178 -0.2053
   88SAPS    C2 8432   0.002   5.076  10.601  0.0538  0.5314  0.9767
   88SAPS    HS 8433  -0.052   4.979  10.601  1.4876 -0.3038 -0.4711
   88SAPS   O21 8434   0.132   5.054  10.545 -0.1197 -0.4216 -0.3215
   88SAPS   C21 8435   0.138   4.958  10.454 -0.5885  0.0022 -0.5853
   88SAPS   O22 8436   0.067   4.863  10.439  0.4738  0.0268  0.1891
   88SAPS   C22 8437   0.275   4.971  10.387  0.2988  0.2253 -0.7178
   88SAPS   H2R 8438   0.324   5.063  10.426  0.9473 -0.3319 -0.1693
   88SAPS   H2S 8439   0.340   4.887  10.421 -1.1320  0.1713  2.1571
   88SAPS    C3 8440  -0.071   5.179  10.514 -0.3869  0.0277  0.5335
   88SAPS    HX 8441   0.006   5.256  10.494 -0.2556  0.0023  0.9445
   88SAPS    HY 8442  -0.159   5.228  10.561 -0.7749  0.3221 -0.4642
   88SAPS   O31 8443  -0.105   5.124  10.387  0.1614 -0.2552 -0.1901
   88SAPS   C31 8444  -0.217   5.052  10.371 -0.0746 -0.0207 -0.0173
   88SAPS   O32 8445  -0.294   5.005  10.453  0.0230 -0.4765 -0.0959
   88SAPS   C32 8446  -0.235   5.035  10.216  0.1232 -0.0537 -0.8389
   88SAPS   H2X 8447  -0.141   5.073  10.169  0.9201  0.1896  0.8703
   88SAPS   H2Y 8448  -0.313   5.111  10.194 -1.4734 -1.5401 -0.4484
   88SAPS   C23 8449   0.266   4.991  10.237  0.1017  0.4362  0.8833
   88SAPS   H3R 8450   0.359   5.030  10.190  0.7231 -1.6771  0.2888
   88SAPS   H3S 8451   0.190   5.069  10.213  1.5171  1.7357  0.4170
   88SAPS   C24 8452   0.236   4.854  10.161  0.3122 -0.2644  0.2432
   88SAPS   H4R 8453   0.255   4.878  10.054  2.3010  0.3625  0.6839
   88SAPS   H4S 8454   0.130   4.835  10.185 -0.1926  1.7181 -0.2088
   88SAPS   C25 8455   0.330   4.740  10.193 -0.1969 -0.1887 -0.3942
   88SAPS   H5R 8456   0.323   4.710  10.298 -1.6087  0.5274 -0.2535
   88SAPS   C26 8457   0.423   4.694  10.113 -1.0177 -0.4851 -0.5208
   88SAPS   H6R 8458   0.489   4.615  10.150  1.6577  1.9365  0.2678
   88SAPS   C27 8459   0.450   4.724   9.971  0.3477 -0.1585 -0.0031
   88SAPS   H7R 8460   0.543   4.670   9.945  0.8003 -0.5476  2.2329
   88SAPS   H7S 8461   0.479   4.831   9.966  0.9771 -0.3006  0.4472
   88SAPS   C28 8462   0.337   4.701   9.871  0.8412  0.3131 -0.0389
   88SAPS   H8R 8463   0.255   4.645   9.920  3.0740 -2.4560  0.8148
   88SAPS   C29 8464   0.345   4.737   9.737 -1.0157 -0.5770  0.2237
   88SAPS   H9R 8465   0.256   4.729   9.673 -1.4785  0.2161  0.7538
   88SAPS  C210 8466   0.474   4.797   9.673  0.4499  0.5168 -0.6835
   88SAPS  H10R 8467   0.538   4.852   9.746  0.9976 -1.3134  0.2884
   88SAPS  H10S 8468   0.452   4.868   9.591  0.9664 -0.2529 -1.5127
   88SAPS  C211 8469   0.565   4.685   9.617 -0.7769 -0.4159 -0.4304
   88SAPS  H11R 8470   0.598   4.614   9.694  1.5473 -0.0773 -1.0445
   88SAPS  C212 8471   0.620   4.686   9.498 -0.5965  0.0751 -0.4416
   88SAPS  H12R 8472   0.692   4.605   9.479 -0.5899 -0.0958  0.2830
   88SAPS  C213 8473   0.604   4.788   9.384  0.5265  0.2972  0.3916
   88SAPS  H13R 8474   0.698   4.825   9.338  0.4755  0.6611  0.5795
   88SAPS  H13S 8475   0.566   4.881   9.431 -1.6049 -0.5995  0.5389
   88SAPS  C214 8476   0.515   4.745   9.275 -0.8991 -0.0264 -0.2275
   88SAPS  H14R 8477   0.479   4.641   9.273 -0.8565 -0.1931  2.9861
   88SAPS  C215 8478   0.491   4.827   9.175  0.4624  0.1414  0.7131
   88SAPS  H15R 8479   0.424   4.790   9.096  1.6840  0.4915 -0.5375
   88SAPS  C216 8480   0.535   4.967   9.160 -0.2978  0.3967 -0.1147
   88SAPS  H16R 8481   0.633   4.976   9.210 -0.6665 -0.1370  0.7146
   88SAPS  H16S 8482   0.469   5.041   9.210  0.2007 -0.3484  1.6856
   88SAPS  C217 8483   0.567   5.000   9.010  0.3075  0.0662  0.2213
   88SAPS  H17R 8484   0.491   4.949   8.947  2.3514 -1.1984 -1.3476
   88SAPS  H17S 8485   0.658   4.944   8.982  0.5444 -0.0664  1.2380
   88SAPS  C218 8486   0.568   5.153   8.986 -0.2280  0.0879  0.9284
   88SAPS  H18R 8487   0.629   5.189   9.072 -0.7119  2.7630  0.2419
   88SAPS  H18S 8488   0.470   5.205   8.992  0.7667  2.4492 -1.2700
   88SAPS  C219 8489   0.635   5.192   8.849 -0.6648  0.3740 -0.2729
   88SAPS  H19R 8490   0.608   5.119   8.770 -2.1153 -0.6587  1.0990
   88SAPS  H19S 8491   0.746   5.185   8.849 -0.6387 -1.0894  2.7947
   88SAPS  C220 8492   0.605   5.331   8.819  0.3195  0.5547  0.2866
   88SAPS  H20R 8493   0.498   5.348   8.796  0.2285  0.4353  0.6260
   88SAPS  H20S 8494   0.666   5.368   8.733  0.7608  0.0649  0.3850
   88SAPS  H20T 8495   0.622   5.399   8.905  1.1680  0.4575  0.2021
   88SAPS   C33 8496  -0.277   4.896  10.166  0.2717 -0.6249 -0.1190
   88SAPS   H3X 8497  -0.362   4.870  10.233  0.0458  2.3641  0.8983
   88SAPS   H3Y 8498  -0.193   4.828  10.191  0.8753  0.8346  2.0951
   88SAPS   C34 8499  -0.305   4.886  10.016  0.2054 -0.4092  0.1397
   88SAPS   H4X 8500  -0.223   4.923   9.951 -1.1842 -0.4935 -1.7474
   88SAPS   H4Y 8501  -0.380   4.967  10.001  0.0042 -0.2556  1.7332
   88SAPS   C35 8502  -0.355   4.751   9.980  0.2086 -0.1019 -0.0756
   88SAPS   H5X 8503  -0.420   4.715  10.062 -1.0771 -3.2125 -2.2916
   88SAPS   H5Y 8504  -0.272   4.677   9.974  1.5730  1.4751 -2.3701
   88SAPS   C36 8505  -0.418   4.745   9.838  0.2845 -0.5746 -0.0200
   88SAPS   H6X 8506  -0.462   4.845   9.816  0.0939 -0.3592  1.2551
   88SAPS   H6Y 8507  -0.501   4.672   9.839  0.0796 -0.3875 -1.3689
   88SAPS   C37 8508  -0.314   4.696   9.736  0.2211 -0.4674 -0.1826
   88SAPS   H7X 8509  -0.277   4.596   9.769  0.2056  0.2141  2.0689
   88SAPS   H7Y 8510  -0.224   4.759   9.718 -0.2409 -0.0652 -1.1692
   88SAPS   C38 8511  -0.382   4.677   9.592  0.1420  0.5719 -0.1648
   88SAPS   H8X 8512  -0.465   4.605   9.607 -0.9807  1.8726  0.0909
   88SAPS   H8Y 8513  -0.299   4.637   9.529 -1.3361 -0.7544 -1.3512
   88SAPS   C39 8514  -0.445   4.799   9.532  0.2772 -0.4424  0.0373
   88SAPS   H9X 8515  -0.376   4.885   9.545 -0.7803  0.2920  0.9094
   88SAPS   H9Y 8516  -0.534   4.833   9.588 -1.1300  2.2974 -3.4689
   88SAPS  C310 8517  -0.484   4.792   9.385 -0.6100  0.1503 -0.5514
   88SAPS  H10X 8518  -0.536   4.887   9.359  0.0141  0.7702  0.4145
   88SAPS  H10Y 8519  -0.538   4.697   9.366  1.4101 -1.3802  0.8812
   88SAPS  C311 8520  -0.362   4.793   9.291  0.0788  0.1006  0.0177
   88SAPS  H11X 8521  -0.293   4.711   9.322 -3.1473 -3.0728 -0.4878
   88SAPS  H11Y 8522  -0.310   4.890   9.304 -1.9570  1.1763  0.4728
   88SAPS  C312 8523  -0.391   4.773   9.145 -0.4314 -0.3616  0.2009
   88SAPS  H12X 8524  -0.436   4.867   9.106 -1.4542 -2.4575 -4.3675
   88SAPS  H12Y 8525  -0.475   4.704   9.122  0.4041 -0.8394 -1.5450
   88SAPS  C313 8526  -0.266   4.742   9.061  0.1072  0.0953 -0.3852
   88SAPS  H13X 8527  -0.228   4.649   9.107 -0.7483  0.4032  0.9813
   88SAPS  H13Y 8528  -0.182   4.815   9.074  2.2711 -2.4308  0.7266
   88SAPS  C314 8529  -0.291   4.719   8.909 -0.1748 -0.7058 -0.1763
   88SAPS  H14X 8530  -0.318   4.817   8.864  1.0573 -1.1509 -2.0111
   88SAPS  H14Y 8531  -0.387   4.664   8.897 -2.7952  3.0772  1.3869
   88SAPS  C315 8532  -0.183   4.659   8.821  0.2352 -0.9975 -0.4417
   88SAPS  H15X 8533  -0.161   4.558   8.862 -3.5018 -1.6831  0.2538
   88SAPS  H15Y 8534  -0.100   4.733   8.821 -0.7335  0.1185  0.1115
   88SAPS  C316 8535  -0.228   4.639   8.679  0.9113  0.3224  0.4782
   88SAPS  H16X 8536  -0.286   4.723   8.635 -2.7590 -2.3326 -0.1704
   88SAPS  H16Y 8537  -0.295   4.550   8.672 -1.8400  2.2833  0.3345
   88SAPS  C317 8538  -0.116   4.605   8.580  0.4313 -0.4214  0.6321
   88SAPS  H17X 8539  -0.066   4.510   8.611 -0.6885 -0.7505  1.5029
   88SAPS  H17Y 8540  -0.053   4.697   8.589 -2.0270  1.2959  1.1093
   88SAPS  C318 8541  -0.165   4.598   8.431 -0.2318 -0.0639 -0.1468
   88SAPS  H18X 8542  -0.080   4.600   8.360 -0.6750 -1.6847 -0.7916
   88SAPS  H18Y 8543  -0.238   4.680   8.418  0.8962  0.7014 -2.1198
   88SAPS  H18Z 8544  -0.220   4.504   8.409  0.3906 -0.4657 -0.0110
   89SAPS     N 8545   5.708   1.993  11.174  0.2952  0.4056  0.4110
   89SAPS   HN1 8546   5.780   1.939  11.226 -1.0441 -1.2422  0.6158
   89SAPS   HN2 8547   5.727   2.094  11.191 -0.7410  0.5942  0.4709
   89SAPS   HN3 8548   5.616   1.960  11.206  0.9024 -0.5149  1.2584
   89SAPS   C12 8549   5.732   1.961  11.033  0.5176 -0.2780 -0.1357
   89SAPS  H12A 8550   5.680   2.026  10.964 -0.9560 -2.0592 -0.7800
   89SAPS   C13 8551   5.882   1.973  10.993 -0.0956  0.6695 -0.6616
   89SAPS  O13A 8552   5.972   1.984  11.083  0.2607  0.4347  0.2507
   89SAPS  O13B 8553   5.910   1.957  10.872  0.4138  0.0858 -0.1397
   89SAPS   C11 8554   5.676   1.820  10.993  0.2687 -0.1608 -0.0191
   89SAPS  H11A 8555   5.751   1.753  11.040  1.0022  0.4886 -0.2487
   89SAPS  H11B 8556   5.689   1.800  10.884 -0.3413  1.4123 -0.4004
   89SAPS     P 8557   5.476   1.659  11.045 -0.0748  0.1329  0.2591
   89SAPS   O13 8558   5.581   1.551  11.063 -0.0243 -0.7957 -0.6725
   89SAPS   O14 8559   5.380   1.675  11.153  0.1074  0.3464 -0.0231
   89SAPS   O12 8560   5.542   1.796  11.021  0.2781  0.1781 -0.0096
   89SAPS   O11 8561   5.399   1.646  10.913 -0.0463  0.2519  0.2524
   89SAPS    C1 8562   5.443   1.548  10.814  0.8284 -0.3685 -0.0117
   89SAPS    HA 8563   5.542   1.501  10.827  0.1339 -2.0282 -0.4704
   89SAPS    HB 8564   5.379   1.461  10.788  1.0806 -0.4249 -0.4620
   89SAPS    C2 8565   5.454   1.626  10.683 -0.3565  0.7798 -0.6644
   89SAPS    HS 8566   5.517   1.715  10.701  1.1253 -0.2512 -0.6020
   89SAPS   O21 8567   5.317   1.662  10.635 -0.2440 -0.3487 -0.2086
   89SAPS   C21 8568   5.327   1.773  10.551  0.0641  0.0981  0.2643
   89SAPS   O22 8569   5.405   1.864  10.558  0.0025  0.1112 -0.0649
   89SAPS   C22 8570   5.221   1.752  10.445  0.4892 -0.0350 -0.8133
   89SAPS   H2R 8571   5.263   1.703  10.355  1.1096 -1.5993  0.3063
   89SAPS   H2S 8572   5.137   1.691  10.484 -0.0262  1.0508 -0.1560
   89SAPS    C3 8573   5.520   1.531  10.586 -0.3436  0.0477  0.7387
   89SAPS    HX 8574   5.444   1.454  10.562 -0.9382  0.7766  0.2089
   89SAPS    HY 8575   5.609   1.477  10.624 -1.1743 -1.1399  1.0222
   89SAPS   O31 8576   5.545   1.597  10.455 -0.6583  0.3177  0.2036
   89SAPS   C31 8577   5.648   1.668  10.449 -0.1605 -0.1048  0.5446
   89SAPS   O32 8578   5.725   1.684  10.543  0.0695  0.1460  0.3230
   89SAPS   C32 8579   5.654   1.749  10.322 -0.0233  0.0317  0.5226
   89SAPS   H2X 8580   5.748   1.736  10.264 -1.4540  0.6847 -2.1142
   89SAPS   H2Y 8581   5.655   1.854  10.357  0.6870  0.0021  0.6065
   89SAPS   C23 8582   5.160   1.877  10.389 -0.3599 -0.2391 -1.2137
   89SAPS   H3R 8583   5.225   1.966  10.404  0.1797 -0.7939 -0.1093
   89SAPS   H3S 8584   5.072   1.914  10.446  0.6088  0.5504 -0.1958
   89SAPS   C24 8585   5.098   1.867  10.243 -0.5864  0.1172  0.1608
   89SAPS   H4R 8586   5.189   1.862  10.180 -0.7400  3.6878 -0.5504
   89SAPS   H4S 8587   5.045   1.965  10.239  1.6445  1.4266  1.2243
   89SAPS   C25 8588   5.005   1.747  10.247 -0.4837 -0.0130 -0.8707
   89SAPS   H5R 8589   4.945   1.737  10.338 -0.7566 -1.7277 -1.2033
   89SAPS   C26 8590   5.022   1.632  10.175 -0.6138  0.1629  0.1068
   89SAPS   H6R 8591   4.956   1.545  10.193  0.7750 -1.0168 -0.3300
   89SAPS   C27 8592   5.122   1.608  10.062 -0.7695  0.1404 -0.3459
   89SAPS   H7R 8593   5.165   1.708  10.041  1.3271 -0.0578  2.4813
   89SAPS   H7S 8594   5.070   1.578   9.969 -0.6548 -2.2530  0.3003
   89SAPS   C28 8595   5.229   1.504  10.092 -0.6002 -0.6930  0.6004
   89SAPS   H8R 8596   5.261   1.510  10.197 -1.6976  0.6789  0.8740
   89SAPS   C29 8597   5.301   1.446   9.999 -0.4913  0.5951 -0.2627
   89SAPS   H9R 8598   5.373   1.369  10.031 -1.1070  0.7157  1.4736
   89SAPS  C210 8599   5.273   1.450   9.848 -0.2617  0.2469 -0.0326
   89SAPS  H10R 8600   5.362   1.418   9.790  2.0904  2.1300  2.2568
   89SAPS  H10S 8601   5.273   1.556   9.816  3.1828  0.4177  0.1868
   89SAPS  C211 8602   5.164   1.366   9.796 -0.2309 -0.6088  0.7532
   89SAPS  H11R 8603   5.121   1.297   9.870 -2.1985 -0.1668  0.0874
   89SAPS  C212 8604   5.141   1.351   9.661 -0.1218  0.6417 -0.6093
   89SAPS  H12R 8605   5.056   1.286   9.636  0.9042 -0.0497 -2.5694
   89SAPS  C213 8606   5.207   1.420   9.545  0.6034 -0.2347  0.1912
   89SAPS  H13R 8607   5.278   1.356   9.488  3.7274  0.7100  2.6865
   89SAPS  H13S 8608   5.277   1.499   9.581  0.4397  0.5191 -1.0896
   89SAPS  C214 8609   5.108   1.496   9.454 -0.1025  0.1241 -0.6061
   89SAPS  H14R 8610   5.051   1.571   9.511  0.9885 -1.2891  2.6122
   89SAPS  C215 8611   5.092   1.485   9.321 -0.4566 -0.1222 -0.1053
   89SAPS  H15R 8612   5.011   1.542   9.273 -0.7777 -1.1006 -0.7508
   89SAPS  C216 8613   5.166   1.389   9.235  0.0851  0.0353 -0.7989
   89SAPS  H16R 8614   5.098   1.307   9.205 -0.9712  0.5710  0.0848
   89SAPS  H16S 8615   5.250   1.332   9.280 -0.7307 -0.1362  0.5478
   89SAPS  C217 8616   5.237   1.447   9.109  0.7559 -0.2317 -0.0894
   89SAPS  H17R 8617   5.313   1.376   9.071  1.8306 -0.2777  2.0010
   89SAPS  H17S 8618   5.295   1.538   9.136 -1.3329  1.5194 -1.1444
   89SAPS  C218 8619   5.150   1.493   8.986 -0.4196  0.2081  0.3457
   89SAPS  H18R 8620   5.080   1.572   9.021 -0.4596 -0.1336  1.0531
   89SAPS  H18S 8621   5.088   1.405   8.961 -0.5879  0.5632 -0.5252
   89SAPS  C219 8622   5.217   1.537   8.858 -0.5711 -0.3796 -0.8221
   89SAPS  H19R 8623   5.290   1.457   8.833 -0.0761 -0.0553 -0.4260
   89SAPS  H19S 8624   5.283   1.623   8.882 -1.4224 -0.5316  2.4724
   89SAPS  C220 8625   5.118   1.544   8.741 -0.3181  0.3072  0.7631
   89SAPS  H20R 8626   5.077   1.445   8.711 -0.0643  0.2516  0.5990
   89SAPS  H20S 8627   5.158   1.591   8.649 -3.3754  0.4944 -0.5790
   89SAPS  H20T 8628   5.033   1.610   8.768 -0.9286  0.1003 -0.5622
   89SAPS   C33 8629   5.532   1.745  10.226 -0.0935  0.1169  0.6312
   89SAPS   H3X 8630   5.453   1.812  10.265 -1.5672 -1.4608  0.4588
   89SAPS   H3Y 8631   5.490   1.644  10.209  1.5756 -0.6621  0.8969
   89SAPS   C34 8632   5.566   1.807  10.088  0.0162 -0.4007  0.2454
   89SAPS   H4X 8633   5.651   1.747  10.047 -0.0728 -1.5362  1.6557
   89SAPS   H4Y 8634   5.603   1.908  10.114 -1.5688 -0.1630  1.7421
   89SAPS   C35 8635   5.451   1.809   9.993 -0.1485  0.0577  0.7234
   89SAPS   H5X 8636   5.362   1.850  10.046 -1.5793  0.0094 -1.4679
   89SAPS   H5Y 8637   5.420   1.704   9.972 -0.6214  0.4414 -0.6493
   89SAPS   C36 8638   5.467   1.889   9.859  0.7228  0.8987 -0.7076
   89SAPS   H6X 8639   5.565   1.861   9.815  0.9356  0.2761  0.1279
   89SAPS   H6Y 8640   5.458   1.998   9.878  3.1654  0.9950  0.3110
   89SAPS   C37 8641   5.351   1.849   9.772  0.0200  0.1258  0.0256
   89SAPS   H7X 8642   5.254   1.899   9.793 -1.2955 -2.2525  0.0382
   89SAPS   H7Y 8643   5.339   1.739   9.779 -0.6732  0.2311  0.6712
   89SAPS   C38 8644   5.382   1.884   9.627  0.7984 -0.5695  0.9041
   89SAPS   H8X 8645   5.482   1.847   9.595  0.4666 -0.0908 -0.7779
   89SAPS   H8Y 8646   5.390   1.994   9.619 -1.6700 -0.4704 -2.1325
   89SAPS   C39 8647   5.286   1.836   9.516 -0.2980  0.1350  0.1094
   89SAPS   H9X 8648   5.184   1.878   9.520 -1.0911 -1.3860 -2.1040
   89SAPS   H9Y 8649   5.270   1.728   9.532 -0.1304  0.1014  0.0535
   89SAPS  C310 8650   5.331   1.880   9.380  0.0233  0.3769  0.1980
   89SAPS  H10X 8651   5.380   1.979   9.393  0.4530  0.2743 -0.5765
   89SAPS  H10Y 8652   5.251   1.890   9.303  1.4542  3.2011 -1.0852
   89SAPS  C311 8653   5.441   1.780   9.331  0.1092  0.0838 -0.1092
   89SAPS  H11X 8654   5.399   1.688   9.285 -1.4603 -0.1616  1.6945
   89SAPS  H11Y 8655   5.507   1.749   9.415  0.4195 -1.2079 -0.7951
   89SAPS  C312 8656   5.537   1.842   9.228  0.0620 -0.3713  0.5396
   89SAPS  H12X 8657   5.617   1.770   9.200  0.1513 -0.1091  0.1126
   89SAPS  H12Y 8658   5.598   1.921   9.279 -1.3317  0.2108  1.3592
   89SAPS  C313 8659   5.461   1.879   9.104 -0.0827 -0.0339  0.1861
   89SAPS  H13X 8660   5.394   1.966   9.120  0.6208  0.3364  1.2771
   89SAPS  H13Y 8661   5.402   1.786   9.091  2.2553 -1.8079  1.4826
   89SAPS  C314 8662   5.555   1.916   8.984  0.2745  0.4123  0.4519
   89SAPS  H14X 8663   5.647   1.855   9.002 -0.4801 -0.6739  0.7362
   89SAPS  H14Y 8664   5.583   2.023   8.981 -0.5765  0.6212 -0.2384
   89SAPS  C315 8665   5.499   1.875   8.845  0.2600  0.5435 -0.2872
   89SAPS  H15X 8666   5.460   1.772   8.854  2.6407 -0.3585  0.5356
   89SAPS  H15Y 8667   5.582   1.868   8.772  0.8492  2.1672  0.1734
   89SAPS  C316 8668   5.403   1.967   8.782 -0.3317 -0.0471 -0.2516
   89SAPS  H16X 8669   5.447   2.069   8.784 -0.3959 -0.0277  1.0078
   89SAPS  H16Y 8670   5.314   1.981   8.848 -0.8612 -1.7019 -0.5814
   89SAPS  C317 8671   5.371   1.936   8.637 -0.1454  0.0110 -0.2918
   89SAPS  H17X 8672   5.305   1.847   8.635  0.0667 -0.1427 -0.5799
   89SAPS  H17Y 8673   5.461   1.915   8.575  1.9241 -0.4037  2.6447
   89SAPS  C318 8674   5.292   2.051   8.572 -0.8957 -0.0533  0.6366
   89SAPS  H18X 8675   5.281   2.030   8.464 -0.6159 -0.5370  0.7017
   89SAPS  H18Y 8676   5.360   2.139   8.579 -1.9920  0.7433  2.0059
   89SAPS  H18Z 8677   5.198   2.072   8.628 -1.9378 -1.0605 -0.6623
   90SAPS     N 8678   0.796   1.367  11.370  0.6981  0.9906  0.4090
   90SAPS   HN1 8679   0.875   1.389  11.306  0.5235 -0.7282 -0.4546
   90SAPS   HN2 8680   0.748   1.458  11.381 -1.3160  0.2599 -1.5325
   90SAPS   HN3 8681   0.837   1.320  11.453  1.2504 -0.7199 -0.7675
   90SAPS   C12 8682   0.696   1.287  11.296  0.1271 -0.2072 -0.1380
   90SAPS  H12A 8683   0.745   1.202  11.250 -0.4302  0.4698 -2.0839
   90SAPS   C13 8684   0.584   1.230  11.383 -0.2138  0.6276 -0.3915
   90SAPS  O13A 8685   0.583   1.242  11.512 -0.0006 -0.1591  0.0703
   90SAPS  O13B 8686   0.494   1.160  11.325 -0.2589  0.0190 -0.7125
   90SAPS   C11 8687   0.635   1.376  11.181  0.0359  0.2008  0.4203
   90SAPS  H11A 8688   0.577   1.466  11.211 -2.2655 -0.8571 -0.5695
   90SAPS  H11B 8689   0.567   1.306  11.128  0.3530 -0.4514  0.8580
   90SAPS     P 8690   0.699   1.464  10.943  0.1250 -0.0906  0.1663
   90SAPS   O13 8691   0.564   1.528  10.944 -0.2675  0.2079  0.1670
   90SAPS   O14 8692   0.806   1.547  10.887 -0.4025 -0.4751  0.1450
   90SAPS   O12 8693   0.737   1.412  11.086 -0.1115  0.2927 -0.2993
   90SAPS   O11 8694   0.687   1.325  10.865  0.1781 -0.1253 -0.0089
   90SAPS    C1 8695   0.791   1.261  10.793  0.3602  0.3987 -0.5056
   90SAPS    HA 8696   0.895   1.286  10.821  0.3267  1.2020 -1.0523
   90SAPS    HB 8697   0.783   1.151  10.802  3.1350  0.1882  0.1211
   90SAPS    C2 8698   0.779   1.291  10.644  0.1202  0.1297 -0.1022
   90SAPS    HS 8699   0.785   1.401  10.634 -0.2433  0.1635  0.0449
   90SAPS   O21 8700   0.670   1.221  10.577 -0.1079  0.1794 -0.4618
   90SAPS   C21 8701   0.563   1.293  10.558 -0.1641  0.0434 -0.1347
   90SAPS   O22 8702   0.554   1.413  10.583  0.2283  0.2742 -0.4815
   90SAPS   C22 8703   0.446   1.209  10.512 -0.6716  0.2215  0.1738
   90SAPS   H2R 8704   0.481   1.108  10.540  0.3161  0.2118 -1.0074
   90SAPS   H2S 8705   0.357   1.234  10.574 -0.5363 -1.4020  1.0851
   90SAPS    C3 8706   0.909   1.244  10.575 -0.8415  0.6296 -0.7425
   90SAPS    HX 8707   0.930   1.136  10.592  0.1999  0.5103 -2.5362
   90SAPS    HY 8708   0.996   1.295  10.620 -1.9170  2.2287 -0.4129
   90SAPS   O31 8709   0.901   1.264  10.433  0.2661  0.1610 -0.4694
   90SAPS   C31 8710   0.916   1.162  10.349 -0.5114  0.3725 -1.2962
   90SAPS   O32 8711   0.942   1.049  10.383 -0.1728 -0.2743 -1.0081
   90SAPS   C32 8712   0.905   1.212  10.209  1.0560  0.0398  0.9163
   90SAPS   H2X 8713   1.009   1.227  10.173  0.5345  0.5045 -0.4954
   90SAPS   H2Y 8714   0.850   1.308  10.207  0.8425 -0.0751 -0.6814
   90SAPS   C23 8715   0.408   1.223  10.359 -0.1319 -0.3220  0.1163
   90SAPS   H3R 8716   0.498   1.194  10.302  0.0276 -0.9517  0.6786
   90SAPS   H3S 8717   0.365   1.321  10.328 -0.3684 -0.1891  0.8437
   90SAPS   C24 8718   0.302   1.121  10.318  0.5923 -0.0232  0.4216
   90SAPS   H4R 8719   0.348   1.023  10.342  1.9716 -0.0440 -2.0091
   90SAPS   H4S 8720   0.290   1.117  10.208 -0.2356  0.4704  0.4864
   90SAPS   C25 8721   0.170   1.127  10.384  0.0404 -0.6090 -0.5111
   90SAPS   H5R 8722   0.182   1.104  10.491  0.2915  1.6714  0.0061
   90SAPS   C26 8723   0.056   1.162  10.329 -0.1984  0.2234 -0.3353
   90SAPS   H6R 8724  -0.039   1.149  10.384 -0.8659 -1.1390 -1.7458
   90SAPS   C27 8725   0.040   1.197  10.184 -0.5874 -0.7508  0.2347
   90SAPS   H7R 8726  -0.067   1.197  10.154  0.2758 -1.7021 -3.4962
   90SAPS   H7S 8727   0.089   1.113  10.131  1.1726 -0.6199  1.5825
   90SAPS   C28 8728   0.089   1.337  10.135  0.5171 -0.3885 -0.1300
   90SAPS   H8R 8729   0.125   1.413  10.206 -3.9443  2.3123 -0.3663
   90SAPS   C29 8730   0.062   1.386  10.011  0.0039  0.4552 -0.1228
   90SAPS   H9R 8731   0.096   1.489   9.989 -1.4312  1.0987  0.5551
   90SAPS  C210 8732   0.007   1.302   9.900  0.3272 -0.2238 -0.6174
   90SAPS  H10R 8733   0.002   1.193   9.922 -1.2413  0.0246  0.3613
   90SAPS  H10S 8734   0.088   1.317   9.825  0.0201  5.2948 -0.2748
   90SAPS  C211 8735  -0.120   1.354   9.834 -0.1891 -0.2669 -0.5865
   90SAPS  H11R 8736  -0.217   1.317   9.871 -0.4085  1.1983  0.4017
   90SAPS  C212 8737  -0.118   1.452   9.744 -0.0348 -0.6205  0.7112
   90SAPS  H12R 8738  -0.217   1.491   9.719 -0.5818 -0.4751  2.9197
   90SAPS  C213 8739  -0.005   1.523   9.673 -0.6350  0.4292 -0.1114
   90SAPS  H13R 8740  -0.004   1.479   9.571 -1.1267  2.2747 -0.9598
   90SAPS  H13S 8741   0.096   1.511   9.716  0.2216  2.9168 -1.2165
   90SAPS  C214 8742  -0.047   1.674   9.665 -0.8432 -0.0313  0.0386
   90SAPS  H14R 8743  -0.101   1.707   9.755 -0.3499  2.5697 -0.5287
   90SAPS  C215 8744   0.004   1.765   9.582  0.2933 -0.2755 -0.3485
   90SAPS  H15R 8745  -0.036   1.866   9.596 -0.6185 -0.6014 -0.5871
   90SAPS  C216 8746   0.091   1.738   9.463 -0.8271 -0.9621  0.5738
   90SAPS  H16R 8747   0.041   1.684   9.380  0.5601  1.6307 -2.1168
   90SAPS  H16S 8748   0.180   1.680   9.494  0.0209 -0.4727 -0.8881
   90SAPS  C217 8749   0.149   1.857   9.381  0.0610 -0.4683  0.7676
   90SAPS  H17R 8750   0.185   1.939   9.447  1.5394  1.3651 -2.0440
   90SAPS  H17S 8751   0.071   1.906   9.319  0.9009  0.8617  0.7122
   90SAPS  C218 8752   0.274   1.827   9.298 -0.2882  0.1682  0.2904
   90SAPS  H18R 8753   0.260   1.750   9.219  3.1326 -0.2257 -0.1128
   90SAPS  H18S 8754   0.344   1.766   9.359 -1.1352  1.5886  2.8540
   90SAPS  C219 8755   0.351   1.949   9.246 -0.3877 -0.7882  0.1467
   90SAPS  H19R 8756   0.431   1.913   9.178  0.1187 -2.8111  1.6883
   90SAPS  H19S 8757   0.397   1.985   9.341  0.4035 -0.5930 -0.3017
   90SAPS  C220 8758   0.267   2.059   9.184  0.6702  0.5044  0.1217
   90SAPS  H20R 8759   0.187   2.107   9.244  1.4626  0.6957  1.0429
   90SAPS  H20S 8760   0.217   2.019   9.093 -0.1270  2.7361 -0.4895
   90SAPS  H20T 8761   0.328   2.145   9.149 -0.7233  1.0214 -1.1494
   90SAPS   C33 8762   0.832   1.108  10.120  0.6099  0.2760 -0.3123
   90SAPS   H3X 8763   0.889   1.014  10.135 -1.3705 -1.0516 -0.7558
   90SAPS   H3Y 8764   0.855   1.150  10.020 -0.0011  2.2149  0.3089
   90SAPS   C34 8765   0.683   1.089  10.143 -0.1129 -0.2712 -0.4045
   90SAPS   H4X 8766   0.635   1.189  10.137  1.3749  0.4455 -0.9115
   90SAPS   H4Y 8767   0.678   1.049  10.247 -2.2817 -0.2028 -0.4484
   90SAPS   C35 8768   0.625   0.993  10.043 -0.1598  0.1629 -0.9380
   90SAPS   H5X 8769   0.515   0.994  10.055  0.0540 -2.3782  3.1499
   90SAPS   H5Y 8770   0.651   0.888  10.069 -1.0243  0.9189  4.0889
   90SAPS   C36 8771   0.651   1.018   9.892  0.3408  0.2749 -0.6288
   90SAPS   H6X 8772   0.756   1.012   9.854  0.0196  1.4570 -1.8105
   90SAPS   H6Y 8773   0.620   1.124   9.880 -0.2202 -0.0211 -2.0667
   90SAPS   C37 8774   0.551   0.933   9.806  0.3564 -0.3034 -0.3764
   90SAPS   H7X 8775   0.448   0.954   9.842 -0.0705 -2.0421 -0.4571
   90SAPS   H7Y 8776   0.573   0.824   9.819 -1.1441 -0.7533 -1.4008
   90SAPS   C38 8777   0.557   0.971   9.664 -0.1628 -0.1364  0.3881
   90SAPS   H8X 8778   0.660   0.960   9.624 -0.8807  2.7070 -2.5942
   90SAPS   H8Y 8779   0.543   1.081   9.666 -2.1274 -0.3630  1.1126
   90SAPS   C39 8780   0.461   0.890   9.575  0.4269  0.0905 -1.6393
   90SAPS   H9X 8781   0.362   0.937   9.595 -0.1483 -1.9559  0.8808
   90SAPS   H9Y 8782   0.459   0.791   9.626 -1.1840  0.0464 -1.7407
   90SAPS  C310 8783   0.502   0.886   9.431  0.8467 -0.0245 -0.1779
   90SAPS  H10X 8784   0.602   0.842   9.410  0.6876 -0.5275  0.1234
   90SAPS  H10Y 8785   0.504   0.990   9.392  0.3570  0.1573  0.2813
   90SAPS  C311 8786   0.395   0.813   9.351  1.1091 -0.4903  0.0725
   90SAPS  H11X 8787   0.293   0.853   9.369  1.3833  0.0373  0.4745
   90SAPS  H11Y 8788   0.382   0.704   9.372 -0.0187 -0.1441  1.2835
   90SAPS  C312 8789   0.417   0.832   9.198 -0.1269  0.7757 -0.7592
   90SAPS  H12X 8790   0.526   0.817   9.182 -0.1283 -0.8678  0.5187
   90SAPS  H12Y 8791   0.389   0.933   9.160 -1.6122  0.1495 -1.4077
   90SAPS  C313 8792   0.331   0.731   9.119 -0.1890 -0.8191  0.4606
   90SAPS  H13X 8793   0.328   0.630   9.163 -1.4520 -1.1237 -0.2522
   90SAPS  H13Y 8794   0.374   0.719   9.017 -0.6289 -0.5412  0.2367
   90SAPS  C314 8795   0.190   0.789   9.090  0.1874 -0.5352 -0.0723
   90SAPS  H14X 8796   0.224   0.883   9.042  2.9532 -0.6588  1.4763
   90SAPS  H14Y 8797   0.141   0.814   9.187  2.8469 -0.5657  1.3548
   90SAPS  C315 8798   0.092   0.728   8.996  0.3867  0.7358  0.5140
   90SAPS  H15X 8799   0.039   0.803   8.934  1.5524  1.0207 -0.1636
   90SAPS  H15Y 8800   0.015   0.679   9.059  0.9056 -0.5078  0.2114
   90SAPS  C316 8801   0.149   0.621   8.900  0.2005 -0.4189 -0.0074
   90SAPS  H16X 8802   0.208   0.546   8.957  0.3710 -2.3311 -2.5408
   90SAPS  H16Y 8803   0.210   0.680   8.829 -1.8697  0.3054 -1.2546
   90SAPS  C317 8804   0.036   0.549   8.826  0.0232 -0.1209 -0.1730
   90SAPS  H17X 8805  -0.017   0.625   8.766  0.2624 -0.0684 -0.3177
   90SAPS  H17Y 8806  -0.049   0.524   8.893 -0.6233 -1.3150 -1.3792
   90SAPS  C318 8807   0.070   0.433   8.744 -0.2748 -0.1757 -0.2698
   90SAPS  H18X 8808   0.154   0.449   8.674  0.8173 -0.0446  1.0340
   90SAPS  H18Y 8809  -0.011   0.385   8.684 -0.0756 -0.8279 -0.0211
   90SAPS  H18Z 8810   0.105   0.362   8.821 -0.4222  0.5991  0.5310
   91SAPS     N 8811   5.212   0.139   6.104  0.1340  0.2849  0.0310
   91SAPS   HN1 8812   5.145   0.132   6.025 -0.3203 -0.4128  0.4640
   91SAPS   HN2 8813   5.181   0.075   6.181 -0.5937 -0.1469 -0.5980
   91SAPS   HN3 8814   5.206   0.239   6.130  0.1709  0.3618 -0.2533
   91SAPS   C12 8815   5.357   0.122   6.053  0.1144 -0.0284 -0.3774
   91SAPS  H12A 8816   5.365   0.022   6.012  0.5788  0.2531 -0.9908
   91SAPS   C13 8817   5.400   0.220   5.944 -0.1491 -0.0870 -0.4707
   91SAPS  O13A 8818   5.330   0.304   5.903  1.1076 -0.1189  0.1193
   91SAPS  O13B 8819   5.520   0.218   5.897 -0.2889 -0.2227  0.2783
   91SAPS   C11 8820   5.460   0.133   6.173 -0.7100  0.5145  0.4805
   91SAPS  H11A 8821   5.449   0.231   6.224 -0.6636 -0.4876  2.4892
   91SAPS  H11B 8822   5.566   0.124   6.140  0.1082  2.6931  2.2643
   91SAPS     P 8823   5.495  -0.104   6.272 -0.0846 -0.1358  0.0904
   91SAPS   O13 8824   5.403  -0.195   6.200  0.8579  0.8442  0.1282
   91SAPS   O14 8825   5.638  -0.103   6.226  0.5796 -0.6289  0.3599
   91SAPS   O12 8826   5.430   0.040   6.269 -0.7880 -0.7339 -0.1532
   91SAPS   O11 8827   5.504  -0.136   6.428  0.2088  0.1920  0.7700
   91SAPS    C1 8828   5.380  -0.169   6.493  0.0693 -0.1840  0.2593
   91SAPS    HA 8829   5.312  -0.082   6.500 -0.7872 -0.8868  0.8166
   91SAPS    HB 8830   5.328  -0.256   6.447  0.7353  0.7266 -2.4178
   91SAPS    C2 8831   5.402  -0.202   6.639  0.5012 -0.1050 -0.1754
   91SAPS    HS 8832   5.303  -0.235   6.679 -0.7597  3.6291  0.1150
   91SAPS   O21 8833   5.463  -0.108   6.729  0.1554  0.3496  0.4248
   91SAPS   C21 8834   5.423   0.018   6.743  0.1350 -0.2246 -0.3563
   91SAPS   O22 8835   5.326   0.070   6.685 -0.4992 -0.7639 -0.0309
   91SAPS   C22 8836   5.532   0.094   6.830  0.2795  0.3221  0.3831
   91SAPS   H2R 8837   5.572   0.178   6.768  0.9334  0.4074  0.9223
   91SAPS   H2S 8838   5.467   0.143   6.906  0.1441  0.0708  0.4298
   91SAPS    C3 8839   5.489  -0.334   6.643 -0.6917 -0.1891 -0.4368
   91SAPS    HX 8840   5.587  -0.308   6.598 -0.1740  0.7861  1.1538
   91SAPS    HY 8841   5.437  -0.412   6.583 -1.1666 -0.5311  0.3913
   91SAPS   O31 8842   5.510  -0.389   6.783  0.3225 -0.2636 -0.2134
   91SAPS   C31 8843   5.622  -0.362   6.840  0.3385  1.1885 -0.0496
   91SAPS   O32 8844   5.727  -0.320   6.794 -0.1426 -0.0436  0.0387
   91SAPS   C32 8845   5.616  -0.401   6.993 -0.5922  0.5997  0.4119
   91SAPS   H2X 8846   5.539  -0.338   7.041 -0.9589  0.4754 -0.0003
   91SAPS   H2Y 8847   5.719  -0.390   7.032 -0.1535 -2.2065  0.2742
   91SAPS   C23 8848   5.643   0.010   6.891 -0.1184 -0.0825  0.5005
   91SAPS   H3R 8849   5.706  -0.021   6.804 -0.0627 -0.9872  0.8493
   91SAPS   H3S 8850   5.607  -0.084   6.938  1.1358  0.7424  3.3599
   91SAPS   C24 8851   5.730   0.098   6.995 -0.1894  0.2717  0.5733
   91SAPS   H4R 8852   5.660   0.107   7.080  0.2077  0.6575  0.8694
   91SAPS   H4S 8853   5.740   0.198   6.946  0.9777 -0.2376 -0.2765
   91SAPS   C25 8854   5.862   0.034   7.026  0.7883 -0.1502 -0.2712
   91SAPS   H5R 8855   5.931   0.017   6.943 -0.9296 -2.5922 -1.2951
   91SAPS   C26 8856   5.908  -0.008   7.144  0.6458 -0.3818 -0.1339
   91SAPS   H6R 8857   5.999  -0.070   7.138 -0.5623 -2.3792  1.1498
   91SAPS   C27 8858   5.832  -0.012   7.273 -0.1076  0.4038  0.3374
   91SAPS   H7R 8859   5.752   0.064   7.264 -2.1646 -1.5021  1.4919
   91SAPS   H7S 8860   5.890   0.018   7.364 -1.5575 -1.1101  1.8259
   91SAPS   C28 8861   5.768  -0.151   7.297  0.2075 -0.4300 -0.7639
   91SAPS   H8R 8862   5.718  -0.193   7.209 -0.2187  0.6921 -1.0777
   91SAPS   C29 8863   5.753  -0.207   7.420  0.9048  0.3088  0.6045
   91SAPS   H9R 8864   5.715  -0.310   7.422  2.3977 -0.2984 -0.5232
   91SAPS  C210 8865   5.795  -0.147   7.553  0.1062 -0.9340 -0.2943
   91SAPS  H10R 8866   5.836  -0.044   7.545 -0.7581 -0.4011  1.5783
   91SAPS  H10S 8867   5.886  -0.204   7.579  1.5794  1.8379  1.0126
   91SAPS  C211 8868   5.693  -0.149   7.667 -0.6564 -0.8826 -0.6620
   91SAPS  H11R 8869   5.590  -0.140   7.632 -0.6993 -3.3426 -1.3515
   91SAPS  C212 8870   5.726  -0.164   7.796 -0.7117  0.6599 -0.7014
   91SAPS  H12R 8871   5.646  -0.170   7.871  1.1025 -3.5525  1.2382
   91SAPS  C213 8872   5.871  -0.166   7.854  0.6289 -0.2780  0.3131
   91SAPS  H13R 8873   5.907  -0.061   7.849 -1.6077  0.5840  1.1612
   91SAPS  H13S 8874   5.940  -0.222   7.787 -0.6616 -1.1984 -0.2807
   91SAPS  C214 8875   5.873  -0.229   7.995  0.8774 -0.0094  0.4152
   91SAPS  H14R 8876   5.798  -0.198   8.069  1.7400 -0.6047  1.5708
   91SAPS  C215 8877   5.975  -0.301   8.043  0.0095  1.1949  0.2035
   91SAPS  H15R 8878   5.965  -0.329   8.149 -1.0285  0.5987 -0.0376
   91SAPS  C216 8879   6.108  -0.333   7.981 -0.3748 -0.3918 -0.2907
   91SAPS  H16R 8880   6.157  -0.248   7.928 -0.6457 -0.8979 -1.3768
   91SAPS  H16S 8881   6.101  -0.411   7.902 -0.5741 -0.3059 -0.3610
   91SAPS  C217 8882   6.200  -0.377   8.099  0.0309 -0.7898 -0.0331
   91SAPS  H17R 8883   6.296  -0.426   8.069  0.6334  1.0173 -1.2182
   91SAPS  H17S 8884   6.147  -0.456   8.157 -0.7514 -0.0622  0.2611
   91SAPS  C218 8885   6.259  -0.266   8.190 -0.8534  0.7158  0.7061
   91SAPS  H18R 8886   6.183  -0.194   8.228 -1.0463  0.0821  1.5488
   91SAPS  H18S 8887   6.336  -0.216   8.127  1.6033 -1.3872  1.8470
   91SAPS  C219 8888   6.343  -0.329   8.304  0.4455 -0.0664  0.0495
   91SAPS  H19R 8889   6.414  -0.248   8.330  0.8917  0.5005 -2.6118
   91SAPS  H19S 8890   6.413  -0.404   8.261 -1.1104 -1.1088 -0.8013
   91SAPS  C220 8891   6.264  -0.368   8.426  0.1252  0.0244  0.5065
   91SAPS  H20R 8892   6.207  -0.280   8.461 -0.6615 -0.1268 -0.3640
   91SAPS  H20S 8893   6.327  -0.413   8.505 -1.8522  1.3978  2.9790
   91SAPS  H20T 8894   6.188  -0.445   8.402  0.1615 -0.1197  0.8552
   91SAPS   C33 8895   5.555  -0.547   7.017 -0.1387  0.3893 -0.0631
   91SAPS   H3X 8896   5.628  -0.616   6.969 -0.4882  0.2313 -0.3668
   91SAPS   H3Y 8897   5.453  -0.541   6.975 -2.3125 -0.9682  4.4282
   91SAPS   C34 8898   5.543  -0.586   7.168  0.6187 -0.4082  0.0252
   91SAPS   H4X 8899   5.468  -0.522   7.219  0.0972  0.5169 -1.8262
   91SAPS   H4Y 8900   5.643  -0.565   7.212  0.7353  1.4044 -0.9850
   91SAPS   C35 8901   5.522  -0.736   7.175 -0.0332 -0.0807 -0.1294
   91SAPS   H5X 8902   5.610  -0.787   7.131 -0.3323 -0.5951 -0.1394
   91SAPS   H5Y 8903   5.438  -0.771   7.111 -0.5259  1.0033 -0.1085
   91SAPS   C36 8904   5.507  -0.799   7.318 -0.0594 -0.3381 -0.1575
   91SAPS   H6X 8905   5.590  -0.767   7.385  0.2444 -1.7398  0.1708
   91SAPS   H6Y 8906   5.511  -0.910   7.319  1.4602 -0.3024 -0.2863
   91SAPS   C37 8907   5.382  -0.757   7.395 -0.4332  0.1100 -0.0377
   91SAPS   H7X 8908   5.295  -0.784   7.332 -0.4472  0.2600 -0.0844
   91SAPS   H7Y 8909   5.395  -0.649   7.421  0.6717 -0.0614  0.1860
   91SAPS   C38 8910   5.371  -0.832   7.528 -0.8549  0.0085 -0.7718
   91SAPS   H8X 8911   5.459  -0.814   7.593 -0.6725  0.5575 -1.1636
   91SAPS   H8Y 8912   5.364  -0.942   7.520 -1.4845  0.0498 -0.8572
   91SAPS   C39 8913   5.251  -0.786   7.606 -0.3434  0.4706 -0.8965
   91SAPS   H9X 8914   5.166  -0.812   7.539  0.9390  2.1983 -3.3445
   91SAPS   H9Y 8915   5.252  -0.679   7.636 -2.1705  0.0541  0.8516
   91SAPS  C310 8916   5.231  -0.862   7.738 -0.0127 -0.3506 -0.0431
   91SAPS  H10X 8917   5.331  -0.874   7.785  0.6229  2.1532 -0.6167
   91SAPS  H10Y 8918   5.194  -0.963   7.710  1.7971 -0.8601 -0.7167
   91SAPS  C311 8919   5.143  -0.797   7.853 -0.2138 -0.1617  0.4316
   91SAPS  H11X 8920   5.056  -0.753   7.799 -0.6820  2.2356  2.9360
   91SAPS  H11Y 8921   5.193  -0.711   7.901 -2.1728  0.7695  0.9149
   91SAPS  C312 8922   5.092  -0.907   7.956  0.3177 -0.2141  1.0746
   91SAPS  H12X 8923   5.174  -0.950   8.017  0.0598 -2.2724  0.0463
   91SAPS  H12Y 8924   5.042  -0.987   7.898  0.6063 -0.5354  1.2701
   91SAPS  C313 8925   4.979  -0.847   8.047 -0.0464  0.4080 -0.7785
   91SAPS  H13X 8926   4.939  -0.932   8.107 -0.5845  0.6169 -0.8361
   91SAPS  H13Y 8927   4.908  -0.786   7.988 -0.5481 -0.1174 -0.7262
   91SAPS  C314 8928   5.018  -0.755   8.175  0.0415 -0.1077 -0.3031
   91SAPS  H14X 8929   4.926  -0.708   8.216 -0.4949 -0.9211 -0.5541
   91SAPS  H14Y 8930   5.072  -0.669   8.130 -0.7045  0.5711  0.0835
   91SAPS  C315 8931   5.114  -0.818   8.284 -0.4795  0.6829  0.2095
   91SAPS  H15X 8932   5.141  -0.752   8.369 -2.0665  2.4458 -0.5736
   91SAPS  H15Y 8933   5.208  -0.833   8.226  0.0869 -0.4119  1.3805
   91SAPS  C316 8934   5.053  -0.942   8.355  0.1530 -0.1543  0.1456
   91SAPS  H16X 8935   5.043  -1.023   8.279 -3.4854  1.5339 -1.4286
   91SAPS  H16Y 8936   4.948  -0.916   8.381  0.0495 -0.0030 -0.3967
   91SAPS  C317 8937   5.134  -0.980   8.478  0.2091  0.1344 -0.4106
   91SAPS  H17X 8938   5.080  -1.061   8.532  2.7665  0.1003  2.3556
   91SAPS  H17Y 8939   5.144  -0.890   8.542 -1.9378  0.8558 -0.9746
   91SAPS  C318 8940   5.276  -1.029   8.457  0.2526  0.2335  0.2083
   91SAPS  H18X 8941   5.290  -1.090   8.365 -1.3548  1.4801 -0.9239
   91SAPS  H18Y 8942   5.311  -1.092   8.541 -1.9205  0.3432  1.2646
   91SAPS  H18Z 8943   5.342  -0.942   8.437 -3.1286  2.6357 -1.6496
   92SAPS     N 8944   4.869   5.084   6.052 -0.1223  0.2940 -0.3954
   92SAPS   HN1 8945   4.890   4.994   6.003  1.1829  1.7029 -2.6194
   92SAPS   HN2 8946   4.870   5.084   6.156  0.0932  1.4645 -0.3853
   92SAPS   HN3 8947   4.781   5.114   6.006 -0.5242 -2.3066 -1.5079
   92SAPS   C12 8948   4.978   5.179   6.013 -0.7334 -0.1420 -0.1464
   92SAPS  H12A 8949   5.071   5.128   6.033 -2.1427 -3.6790 -1.8381
   92SAPS   C13 8950   4.969   5.197   5.858 -0.4791  0.8676  0.6478
   92SAPS  O13A 8951   4.899   5.122   5.781  0.1215 -0.1665  0.5830
   92SAPS  O13B 8952   5.080   5.235   5.808  0.2137 -0.5813 -0.1793
   92SAPS   C11 8953   4.967   5.318   6.080 -0.1830  0.1951  0.3480
   92SAPS  H11A 8954   5.048   5.378   6.033  0.6575 -1.3250 -0.2090
   92SAPS  H11B 8955   4.999   5.302   6.185  1.5779 -2.0649 -0.4520
   92SAPS     P 8956   4.806   5.519   6.126  0.1011 -0.5513 -0.8494
   92SAPS   O13 8957   4.891   5.609   6.053  0.0461 -0.4718 -0.3367
   92SAPS   O14 8958   4.657   5.530   6.119  0.4763  0.2265  0.1118
   92SAPS   O12 8959   4.840   5.379   6.062  0.0002 -0.2357 -0.1359
   92SAPS   O11 8960   4.848   5.502   6.282 -0.4704 -0.4439  0.4929
   92SAPS    C1 8961   4.814   5.390   6.360 -0.1270  0.4193  0.1158
   92SAPS    HA 8962   4.753   5.317   6.302  0.0755  1.6278 -1.6967
   92SAPS    HB 8963   4.905   5.337   6.395 -1.4163 -2.0240  0.0209
   92SAPS    C2 8964   4.750   5.434   6.494 -0.6363  0.2071  0.1157
   92SAPS    HS 8965   4.645   5.468   6.475 -0.6511 -0.4334 -1.0317
   92SAPS   O21 8966   4.830   5.527   6.558 -0.0568  0.1967  0.0816
   92SAPS   C21 8967   4.822   5.659   6.529  0.1178  0.6166  0.4930
   92SAPS   O22 8968   4.747   5.711   6.448 -0.1329 -0.3038 -0.1099
   92SAPS   C22 8969   4.914   5.730   6.617 -0.1804 -0.5803  0.3843
   92SAPS   H2R 8970   4.922   5.681   6.717 -2.9751 -3.0321 -0.4637
   92SAPS   H2S 8971   5.017   5.731   6.576 -1.0900 -0.8661 -2.0093
   92SAPS    C3 8972   4.743   5.311   6.591 -0.2803  0.3617 -0.7501
   92SAPS    HX 8973   4.850   5.284   6.604 -1.1405 -2.4926  1.4594
   92SAPS    HY 8974   4.705   5.219   6.543 -0.6862  1.0171 -1.7177
   92SAPS   O31 8975   4.685   5.340   6.718 -0.1410 -0.2197  0.3626
   92SAPS   C31 8976   4.559   5.292   6.725 -0.4200 -0.3501  0.9040
   92SAPS   O32 8977   4.508   5.218   6.643  0.2274 -0.0909  0.3346
   92SAPS   C32 8978   4.501   5.334   6.853  0.0128 -0.2226 -0.4198
   92SAPS   H2X 8979   4.470   5.440   6.844  1.4033  0.0069 -3.5693
   92SAPS   H2Y 8980   4.575   5.328   6.936  0.4493  2.7353 -0.5033
   92SAPS   C23 8981   4.873   5.877   6.646  0.4475 -0.9481  0.5524
   92SAPS   H3R 8982   4.933   5.917   6.729 -0.2359  0.9515  0.1733
   92SAPS   H3S 8983   4.766   5.884   6.677  0.1167  1.1003 -0.8692
   92SAPS   C24 8984   4.898   5.982   6.536 -0.2911  0.4138  0.1346
   92SAPS   H4R 8985   4.828   5.972   6.450 -0.3510  2.9533 -0.1974
   92SAPS   H4S 8986   5.006   5.978   6.508  0.4455  1.1414  2.5887
   92SAPS   C25 8987   4.861   6.118   6.600 -0.3466 -0.1237  0.1075
   92SAPS   H5R 8988   4.943   6.181   6.637 -0.0679 -0.5352  0.2004
   92SAPS   C26 8989   4.743   6.184   6.574 -0.3465 -0.0144 -0.1069
   92SAPS   H6R 8990   4.715   6.270   6.637  0.5308 -0.0727  0.3771
   92SAPS   C27 8991   4.630   6.119   6.499  0.3342 -0.2482  0.2252
   92SAPS   H7R 8992   4.622   6.010   6.521  1.9300 -0.5950 -0.7173
   92SAPS   H7S 8993   4.665   6.114   6.394  1.1189  1.5333  0.3618
   92SAPS   C28 8994   4.499   6.192   6.511  0.9827 -0.2875 -0.0911
   92SAPS   H8R 8995   4.475   6.269   6.436  0.2846  1.6856  2.0225
   92SAPS   C29 8996   4.398   6.169   6.595  0.0582  0.8364 -0.3010
   92SAPS   H9R 8997   4.312   6.237   6.582  0.9405  1.6209 -2.3648
   92SAPS  C210 8998   4.397   6.074   6.711 -0.4621 -0.0331 -0.3723
   92SAPS  H10R 8999   4.502   6.040   6.703 -0.2777  0.8622 -2.5139
   92SAPS  H10S 9000   4.321   5.994   6.700  0.0126 -0.5050 -0.2406
   92SAPS  C211 9001   4.388   6.131   6.851  0.6476  0.0407 -0.6109
   92SAPS  H11R 9002   4.338   6.229   6.850  1.5023  0.4911 -1.1503
   92SAPS  C212 9003   4.427   6.071   6.969  0.0026 -0.6055  0.3617
   92SAPS  H12R 9004   4.398   6.122   7.061 -1.4820 -1.5024  0.4234
   92SAPS  C213 9005   4.484   5.931   6.996  0.2479 -0.4661  0.2351
   92SAPS  H13R 9006   4.466   5.879   6.899 -0.9517 -0.6679  0.5547
   92SAPS  H13S 9007   4.427   5.886   7.080 -0.3268 -1.8655 -0.8607
   92SAPS  C214 9008   4.631   5.934   7.023  0.0779 -0.1950  0.3051
   92SAPS  H14R 9009   4.682   6.020   7.069  0.9179 -0.4716 -0.0844
   92SAPS  C215 9010   4.708   5.825   6.996  0.2545  0.4774  0.4553
   92SAPS  H15R 9011   4.815   5.829   7.019  0.8666 -1.5820 -1.6112
   92SAPS  C216 9012   4.660   5.694   6.942  0.3639 -0.4011  0.4851
   92SAPS  H16R 9013   4.690   5.694   6.835 -1.9974  2.0815 -0.2814
   92SAPS  H16S 9014   4.549   5.688   6.948  0.4463 -0.8425  1.8919
   92SAPS  C217 9015   4.727   5.579   7.004 -0.2774  0.3638 -0.5022
   92SAPS  H17R 9016   4.837   5.590   7.018 -0.4550  0.7720  0.6945
   92SAPS  H17S 9017   4.719   5.493   6.934  1.1532  0.3840 -0.7351
   92SAPS  C218 9018   4.666   5.560   7.147 -0.5427 -0.3947 -0.2384
   92SAPS  H18R 9019   4.557   5.576   7.132 -0.4902  0.8249  0.4545
   92SAPS  H18S 9020   4.708   5.636   7.216 -1.9045  2.1327 -2.0117
   92SAPS  C219 9021   4.686   5.421   7.216  0.2000 -0.2638 -0.3490
   92SAPS  H19R 9022   4.793   5.391   7.217 -0.6691 -4.0256 -1.7530
   92SAPS  H19S 9023   4.643   5.340   7.152 -0.1574 -3.9592  4.0597
   92SAPS  C220 9024   4.619   5.402   7.358  0.3156 -0.2685  0.1760
   92SAPS  H20R 9025   4.627   5.298   7.397  0.6893  0.6789  2.8112
   92SAPS  H20S 9026   4.509   5.416   7.343  0.4597  0.0753 -0.6124
   92SAPS  H20T 9027   4.659   5.474   7.431  2.6703 -0.0143 -1.2641
   92SAPS   C33 9028   4.369   5.257   6.906 -0.0342  0.0285 -0.1608
   92SAPS   H3X 9029   4.389   5.148   6.920 -4.3639 -0.6005  3.5558
   92SAPS   H3Y 9030   4.278   5.261   6.843  0.1876 -2.7849 -0.7949
   92SAPS   C34 9031   4.323   5.310   7.044 -0.1092 -0.1594  0.6363
   92SAPS   H4X 9032   4.407   5.307   7.116  1.1987 -0.2903 -0.8396
   92SAPS   H4Y 9033   4.244   5.246   7.089 -0.2749 -0.4517 -0.0582
   92SAPS   C35 9034   4.272   5.451   7.032 -0.4129 -0.2614 -0.6491
   92SAPS   H5X 9035   4.166   5.452   6.999 -0.8109  0.8403  0.5802
   92SAPS   H5Y 9036   4.326   5.519   6.962 -1.2011  1.6767  0.5512
   92SAPS   C36 9037   4.275   5.531   7.169 -0.7545  0.4098 -0.0967
   92SAPS   H6X 9038   4.381   5.541   7.200 -0.4873 -1.9412 -0.1091
   92SAPS   H6Y 9039   4.228   5.475   7.252 -2.7046  0.1259 -1.3445
   92SAPS   C37 9040   4.222   5.677   7.173 -0.6064  0.0537 -0.8390
   92SAPS   H7X 9041   4.112   5.662   7.171 -0.3195 -2.3830 -2.0540
   92SAPS   H7Y 9042   4.267   5.730   7.087  1.6897  0.5680  0.5950
   92SAPS   C38 9043   4.263   5.754   7.299  0.4277  0.0306  0.2855
   92SAPS   H8X 9044   4.260   5.864   7.280  1.3303 -0.0379 -0.3226
   92SAPS   H8Y 9045   4.371   5.729   7.313  0.3406 -1.6875 -1.6160
   92SAPS   C39 9046   4.167   5.724   7.416  0.2221 -0.0880  0.2808
   92SAPS   H9X 9047   4.136   5.618   7.407 -1.0264  0.2909 -0.2182
   92SAPS   H9Y 9048   4.069   5.775   7.407  0.7176  1.3623  2.4003
   92SAPS  C310 9049   4.233   5.741   7.553 -0.2936 -0.2644 -1.5841
   92SAPS  H10X 9050   4.256   5.849   7.565  1.9124 -0.7084 -1.3468
   92SAPS  H10Y 9051   4.331   5.691   7.568 -0.5699 -0.5159 -0.4847
   92SAPS  C311 9052   4.133   5.696   7.668 -0.1953 -0.4827  0.0805
   92SAPS  H11X 9053   4.116   5.587   7.659  0.6771 -0.6660  0.4972
   92SAPS  H11Y 9054   4.042   5.756   7.647 -1.1921 -1.3818  1.6440
   92SAPS  C312 9055   4.181   5.739   7.809  0.6788 -0.6164 -0.0385
   92SAPS  H12X 9056   4.165   5.847   7.828  1.8250 -0.3161 -0.7243
   92SAPS  H12Y 9057   4.291   5.722   7.812  0.8533  0.1944 -1.3386
   92SAPS  C313 9058   4.113   5.648   7.912 -1.1760  0.0995 -0.2495
   92SAPS  H13X 9059   4.165   5.553   7.888 -0.0076  0.8186 -0.6346
   92SAPS  H13Y 9060   4.007   5.628   7.888 -1.3478  1.0825 -0.3400
   92SAPS  C314 9061   4.121   5.686   8.062 -1.0087 -0.3639 -0.1960
   92SAPS  H14X 9062   4.053   5.770   8.089  1.4641  1.7768 -0.2428
   92SAPS  H14Y 9063   4.219   5.713   8.107 -1.9920 -1.8964  3.2028
   92SAPS  C315 9064   4.085   5.560   8.149  0.4104 -0.1296 -0.4126
   92SAPS  H15X 9065   4.154   5.479   8.118  3.1005  1.8696 -0.0066
   92SAPS  H15Y 9066   3.988   5.509   8.129  0.6463 -0.4289 -0.8116
   92SAPS  C316 9067   4.120   5.582   8.295  0.5784 -0.1663  0.1418
   92SAPS  H16X 9068   4.225   5.618   8.291  0.3576  0.5291  0.4992
   92SAPS  H16Y 9069   4.120   5.482   8.344 -0.7687 -0.1481  0.2058
   92SAPS  C317 9070   4.033   5.680   8.370 -0.0547  0.0629  0.1180
   92SAPS  H17X 9071   3.925   5.652   8.362 -0.5827  1.7115  1.0416
   92SAPS  H17Y 9072   4.046   5.782   8.329  2.8509 -1.3214 -2.9124
   92SAPS  C318 9073   4.076   5.687   8.511 -0.1541 -0.5526 -0.4388
   92SAPS  H18X 9074   4.181   5.719   8.528 -0.3952 -0.2356  0.5149
   92SAPS  H18Y 9075   4.068   5.591   8.567  0.2865  1.4968  3.4831
   92SAPS  H18Z 9076   4.021   5.767   8.566  1.2089 -0.2081  0.4614
   93SAPS     N 9077   5.763   4.757   6.187  0.0505  0.3483 -0.7430
   93SAPS   HN1 9078   5.684   4.776   6.252  0.1366 -0.9829 -0.2073
   93SAPS   HN2 9079   5.736   4.669   6.139  2.9863 -0.9093 -0.3276
   93SAPS   HN3 9080   5.846   4.733   6.245  0.2553  1.6782 -0.4536
   93SAPS   C12 9081   5.782   4.863   6.085 -0.9497  0.0728  0.1965
   93SAPS  H12A 9082   5.873   4.846   6.030 -0.5102  0.3304  0.8211
   93SAPS   C13 9083   5.669   4.900   5.989 -0.3960  0.0705  0.0349
   93SAPS  O13A 9084   5.562   4.835   5.997  0.1181 -0.2221  0.4740
   93SAPS  O13B 9085   5.690   4.985   5.901  0.1324  0.2851 -0.4143
   93SAPS   C11 9086   5.811   4.989   6.171  0.3036 -0.1523 -0.3096
   93SAPS  H11A 9087   5.726   5.000   6.242  0.9452 -1.6941  0.7519
   93SAPS  H11B 9088   5.817   5.081   6.110 -1.0585  0.8608  1.0029
   93SAPS     P 9089   5.959   5.037   6.380  0.0611 -0.1856 -0.1850
   93SAPS   O13 9090   5.989   4.920   6.471  0.4764  0.4619  0.3987
   93SAPS   O14 9091   6.058   5.155   6.373 -0.6229 -0.4881  0.0218
   93SAPS   O12 9092   5.937   4.977   6.239  0.0735 -0.6909  0.2318
   93SAPS   O11 9093   5.812   5.094   6.421 -0.0199  0.4746 -0.3034
   93SAPS    C1 9094   5.788   5.234   6.430 -0.2042 -0.2627  0.0370
   93SAPS    HA 9095   5.851   5.297   6.363 -0.2248 -0.6543 -0.3558
   93SAPS    HB 9096   5.683   5.254   6.400 -0.6818 -2.3541  0.1357
   93SAPS    C2 9097   5.789   5.282   6.577 -0.7706  0.1204  0.6202
   93SAPS    HS 9098   5.745   5.383   6.590  0.7233  0.6734  1.7725
   93SAPS   O21 9099   5.920   5.277   6.631 -0.3747  0.4151  0.7282
   93SAPS   C21 9100   6.011   5.370   6.590  0.1933 -0.4011 -0.4024
   93SAPS   O22 9101   5.976   5.470   6.526  0.0709 -0.2614 -0.4842
   93SAPS   C22 9102   6.147   5.326   6.622 -0.5452  0.1755  0.5308
   93SAPS   H2R 9103   6.159   5.225   6.666  1.7622 -0.3813 -1.2118
   93SAPS   H2S 9104   6.193   5.307   6.523 -1.9228  1.2957 -0.3659
   93SAPS    C3 9105   5.710   5.174   6.652 -0.3530 -0.4531 -0.6183
   93SAPS    HX 9106   5.761   5.076   6.644 -0.0616 -0.5460  1.6941
   93SAPS    HY 9107   5.617   5.153   6.594  0.4560 -2.5143 -1.2441
   93SAPS   O31 9108   5.679   5.208   6.795  0.3934  0.7409  0.0936
   93SAPS   C31 9109   5.664   5.101   6.874 -0.3414 -0.0082 -0.2987
   93SAPS   O32 9110   5.673   4.984   6.847 -0.3182  0.2772 -0.2954
   93SAPS   C32 9111   5.602   5.147   7.004  0.1137 -0.2931  0.3659
   93SAPS   H2X 9112   5.502   5.099   7.006 -0.0255 -0.0011  0.3615
   93SAPS   H2Y 9113   5.571   5.252   6.989  0.1248 -0.5825 -2.0777
   93SAPS   C23 9114   6.232   5.436   6.695  0.9878  0.5097 -0.0185
   93SAPS   H3R 9115   6.239   5.525   6.628  1.8811 -0.8962 -1.8831
   93SAPS   H3S 9116   6.331   5.392   6.718  0.4555  0.3034  2.0397
   93SAPS   C24 9117   6.154   5.483   6.828 -0.0482 -0.0608 -0.1860
   93SAPS   H4R 9118   6.064   5.536   6.789 -0.8839 -1.5698 -0.4078
   93SAPS   H4S 9119   6.226   5.559   6.864  0.2717 -0.7493  0.6593
   93SAPS   C25 9120   6.130   5.364   6.918  0.0345  0.5608  0.3720
   93SAPS   H5R 9121   6.059   5.286   6.885 -0.0936  0.1025  1.7008
   93SAPS   C26 9122   6.179   5.352   7.046 -0.4699  0.1706  0.4953
   93SAPS   H6R 9123   6.156   5.258   7.098  1.4423  0.3728  1.8385
   93SAPS   C27 9124   6.293   5.436   7.104  0.5863 -0.1080 -0.0548
   93SAPS   H7R 9125   6.358   5.483   7.027  0.9594  1.7992  1.3304
   93SAPS   H7S 9126   6.356   5.372   7.169 -1.6434 -0.7419  1.6040
   93SAPS   C28 9127   6.247   5.558   7.177 -0.9961 -0.7832 -0.3025
   93SAPS   H8R 9128   6.171   5.620   7.127  0.2057 -1.1370 -2.6621
   93SAPS   C29 9129   6.291   5.601   7.293  0.3245 -0.1173 -0.9965
   93SAPS   H9R 9130   6.250   5.694   7.336  1.3400  1.3776 -3.1107
   93SAPS  C210 9131   6.397   5.531   7.376  0.0074 -0.7861 -0.8116
   93SAPS  H10R 9132   6.365   5.426   7.397  1.2359 -1.0530 -0.1695
   93SAPS  H10S 9133   6.398   5.567   7.481 -2.7638 -0.0643 -0.9641
   93SAPS  C211 9134   6.537   5.529   7.320 -0.4601 -0.2023  0.5817
   93SAPS  H11R 9135   6.543   5.484   7.219 -0.1115 -2.7781  1.6700
   93SAPS  C212 9136   6.650   5.565   7.381 -0.7616  0.2171  0.0851
   93SAPS  H12R 9137   6.740   5.568   7.318 -1.1129 -1.4655 -0.5395
   93SAPS  C213 9138   6.669   5.634   7.515 -0.5281  0.4534  0.6785
   93SAPS  H13R 9139   6.759   5.604   7.572 -1.0302 -0.7092  0.8751
   93SAPS  H13S 9140   6.589   5.591   7.580 -0.3444 -3.7487 -1.5814
   93SAPS  C214 9141   6.652   5.788   7.504 -0.0632  0.0834  0.0588
   93SAPS  H14R 9142   6.708   5.830   7.418 -1.4355  1.0367 -0.4083
   93SAPS  C215 9143   6.562   5.864   7.572 -0.2358 -0.2414  0.1225
   93SAPS  H15R 9144   6.561   5.971   7.547 -1.8362 -0.0780  0.7342
   93SAPS  C216 9145   6.464   5.817   7.679 -1.1291  0.3842 -0.3868
   93SAPS  H16R 9146   6.499   5.866   7.772 -3.6620 -1.9890  1.9841
   93SAPS  H16S 9147   6.459   5.707   7.687 -1.6678  0.3537 -0.9839
   93SAPS  C217 9148   6.326   5.865   7.644  1.0803 -0.6931  0.5591
   93SAPS  H17R 9149   6.284   5.808   7.559 -1.4823  2.3100 -0.4108
   93SAPS  H17S 9150   6.321   5.974   7.620  0.8066 -1.2060 -2.0213
   93SAPS  C218 9151   6.227   5.850   7.760 -0.5895  0.5907  0.8561
   93SAPS  H18R 9152   6.205   5.742   7.770  1.8913 -0.0411  0.1219
   93SAPS  H18S 9153   6.129   5.897   7.739 -0.8594 -1.0160 -2.1289
   93SAPS  C219 9154   6.268   5.908   7.895  0.3410 -0.6102 -0.5540
   93SAPS  H19R 9155   6.309   6.010   7.875 -0.3272 -0.1807  0.1974
   93SAPS  H19S 9156   6.348   5.848   7.945 -1.1507 -0.2251  2.5370
   93SAPS  C220 9157   6.156   5.920   8.003 -0.1546 -0.6084  0.0828
   93SAPS  H20R 9158   6.128   5.815   8.030  0.7052 -0.3167  2.3561
   93SAPS  H20S 9159   6.074   5.976   7.955  1.5421  1.7831 -0.1764
   93SAPS  H20T 9160   6.199   5.974   8.090  1.8185 -0.5768 -0.8475
   93SAPS   C33 9161   5.695   5.133   7.127  0.0692 -0.2407  0.1106
   93SAPS   H3X 9162   5.766   5.050   7.113  0.0906 -0.2068  0.0184
   93SAPS   H3Y 9163   5.648   5.106   7.224  0.3985 -0.4279  0.2156
   93SAPS   C34 9164   5.778   5.269   7.162 -0.3567  0.2752  0.0481
   93SAPS   H4X 9165   5.708   5.354   7.173  0.0592  0.4107  1.8387
   93SAPS   H4Y 9166   5.850   5.301   7.084 -0.4908 -0.8902 -0.5893
   93SAPS   C35 9167   5.865   5.237   7.290  0.6083  0.1284  0.3035
   93SAPS   H5X 9168   5.912   5.337   7.292 -0.6797  0.7554  0.7259
   93SAPS   H5Y 9169   5.941   5.156   7.285  2.1446  1.5241  0.1774
   93SAPS   C36 9170   5.774   5.232   7.415 -1.1414 -0.0151 -0.2511
   93SAPS   H6X 9171   5.726   5.132   7.415 -1.6675  0.2261 -0.9061
   93SAPS   H6Y 9172   5.694   5.308   7.405 -3.0909 -1.4734  2.9371
   93SAPS   C37 9173   5.855   5.234   7.545  0.6706 -0.2591 -0.4790
   93SAPS   H7X 9174   5.922   5.322   7.542 -0.7038  0.8101 -0.9990
   93SAPS   H7Y 9175   5.916   5.141   7.550 -0.0480 -0.6891  2.1503
   93SAPS   C38 9176   5.770   5.247   7.675  0.0930  1.0311 -0.2900
   93SAPS   H8X 9177   5.693   5.168   7.685  0.3396  0.8963  0.5971
   93SAPS   H8Y 9178   5.719   5.344   7.659 -2.2719  0.2845  2.1029
   93SAPS   C39 9179   5.855   5.247   7.800  1.1297  0.1453 -0.4786
   93SAPS   H9X 9180   5.912   5.152   7.811 -1.5668 -1.3686  1.7868
   93SAPS   H9Y 9181   5.778   5.257   7.879  0.9000  0.5803 -0.7543
   93SAPS  C310 9182   5.956   5.361   7.814 -0.6285 -0.1674  0.9127
   93SAPS  H10X 9183   5.898   5.456   7.807 -1.0771 -0.3267  2.1647
   93SAPS  H10Y 9184   6.021   5.370   7.724 -3.2986  1.0972 -1.0218
   93SAPS  C311 9185   6.022   5.347   7.952 -0.1481  0.0293  1.0893
   93SAPS  H11X 9186   6.061   5.243   7.960 -0.5989 -0.4684 -1.9018
   93SAPS  H11Y 9187   5.958   5.341   8.042  0.5197  1.1817  1.6634
   93SAPS  C312 9188   6.130   5.456   7.981 -0.0317 -0.3507 -0.6910
   93SAPS  H12X 9189   6.172   5.440   8.083 -0.0076 -1.9820 -0.9329
   93SAPS  H12Y 9190   6.080   5.555   7.989  1.9077  0.5852  0.8009
   93SAPS  C313 9191   6.250   5.466   7.883  0.2193  0.1841  0.0051
   93SAPS  H13X 9192   6.228   5.496   7.779  1.9073 -0.4868 -0.5755
   93SAPS  H13Y 9193   6.291   5.364   7.869  0.1972 -0.0825  1.6084
   93SAPS  C314 9194   6.365   5.529   7.953  0.6589 -0.2264 -1.0305
   93SAPS  H14X 9195   6.364   5.496   8.059  2.9029  0.7307 -0.6511
   93SAPS  H14Y 9196   6.335   5.636   7.953 -2.5267 -1.0065 -2.2862
   93SAPS  C315 9197   6.495   5.496   7.891 -0.3384 -0.3490  0.0086
   93SAPS  H15X 9198   6.487   5.520   7.783  1.2163  0.1928 -0.0053
   93SAPS  H15Y 9199   6.521   5.388   7.888  0.8831 -0.0534 -1.1071
   93SAPS  C316 9200   6.620   5.567   7.935  0.4373 -0.4173 -0.3478
   93SAPS  H16X 9201   6.612   5.597   8.042  3.8418  1.8574 -0.5465
   93SAPS  H16Y 9202   6.622   5.656   7.868  0.1589 -1.9233 -2.4438
   93SAPS  C317 9203   6.746   5.494   7.914 -0.4748 -0.0391  0.4837
   93SAPS  H17X 9204   6.753   5.448   7.813  3.1383 -1.2892  1.1639
   93SAPS  H17Y 9205   6.758   5.406   7.982 -0.6910 -0.2564  0.2439
   93SAPS  C318 9206   6.866   5.589   7.916 -0.0018 -0.7645  0.1377
   93SAPS  H18X 9207   6.912   5.616   8.014 -0.6454 -2.7337  1.0150
   93SAPS  H18Y 9208   6.842   5.675   7.849 -1.8063 -0.2083  1.4223
   93SAPS  H18Z 9209   6.950   5.529   7.873  1.8406 -0.6961  3.3646
   94SAPS     N 9210   6.084   0.028   6.272 -0.0457 -0.0614 -0.3040
   94SAPS   HN1 9211   6.081  -0.035   6.355 -3.7030  0.3144  0.0261
   94SAPS   HN2 9212   6.126   0.117   6.306  2.5877 -1.6653  0.9720
   94SAPS   HN3 9213   5.985   0.043   6.245 -0.9730 -1.4114  2.0212
   94SAPS   C12 9214   6.174  -0.030   6.173 -0.0258 -0.6792  0.4309
   94SAPS  H12A 9215   6.254  -0.072   6.231  1.4925 -0.5364 -1.4328
   94SAPS   C13 9216   6.112  -0.138   6.077  0.6444 -0.3294 -0.2655
   94SAPS  O13A 9217   5.986  -0.146   6.084  0.0457  0.1452 -0.6472
   94SAPS  O13B 9218   6.180  -0.207   5.995 -0.4553  0.4346  0.1012
   94SAPS   C11 9219   6.231   0.076   6.086 -0.1821 -0.3661  0.0791
   94SAPS  H11A 9220   6.147   0.122   6.030  0.2562 -2.1820 -2.2522
   94SAPS  H11B 9221   6.307   0.030   6.019  3.2020  2.1590  1.8518
   94SAPS     P 9222   6.382   0.290   6.088 -0.1661  0.1688  0.1281
   94SAPS   O13 9223   6.516   0.242   6.041  0.0713 -0.2186  0.2276
   94SAPS   O14 9224   6.292   0.347   5.980  0.4565  0.4033 -0.3464
   94SAPS   O12 9225   6.303   0.172   6.156 -0.1566  0.0252 -0.2613
   94SAPS   O11 9226   6.389   0.392   6.207 -0.0810  0.7307  0.3436
   94SAPS    C1 9227   6.475   0.385   6.317  0.6765  0.5810  0.0693
   94SAPS    HA 9228   6.573   0.336   6.296  0.0593 -0.2323 -0.9926
   94SAPS    HB 9229   6.488   0.487   6.359 -1.0763 -0.1453  2.5689
   94SAPS    C2 9230   6.408   0.314   6.431  0.5879  0.3976 -0.1801
   94SAPS    HS 9231   6.382   0.210   6.400 -1.4029  0.9835 -0.5689
   94SAPS   O21 9232   6.293   0.385   6.478  0.1734 -0.2972  0.0690
   94SAPS   C21 9233   6.183   0.334   6.466  0.1876 -0.4559 -0.1245
   94SAPS   O22 9234   6.156   0.224   6.411  0.2954  0.0309 -0.5915
   94SAPS   C22 9235   6.084   0.417   6.541  0.4320  0.1788  0.3648
   94SAPS   H2R 9236   6.106   0.432   6.649 -1.7670 -1.8450  1.1840
   94SAPS   H2S 9237   6.085   0.519   6.495 -0.4248  1.6185  3.2928
   94SAPS    C3 9238   6.506   0.303   6.549  0.2572  0.5420 -0.0056
   94SAPS    HX 9239   6.519   0.406   6.586  2.1460  0.2073  0.3272
   94SAPS    HY 9240   6.608   0.273   6.517 -0.4572 -2.2853  0.1087
   94SAPS   O31 9241   6.445   0.225   6.653  0.2338  0.1364  0.2521
   94SAPS   C31 9242   6.460   0.094   6.627 -0.6725 -0.5341 -0.0153
   94SAPS   O32 9243   6.541   0.045   6.545  0.8979 -0.4717 -0.0557
   94SAPS   C32 9244   6.361   0.017   6.717  0.5606  0.9836 -0.1423
   94SAPS   H2X 9245   6.350  -0.086   6.677 -2.0519  0.8750  0.6487
   94SAPS   H2Y 9246   6.262   0.066   6.704 -0.5272  1.0055  5.4606
   94SAPS   C23 9247   5.936   0.370   6.550  0.0287 -0.2503 -0.1720
   94SAPS   H3R 9248   5.925   0.296   6.632 -1.8006  0.4686  0.2855
   94SAPS   H3S 9249   5.918   0.312   6.458  0.3773 -3.0299  1.4165
   94SAPS   C24 9250   5.827   0.483   6.569  0.2903  0.4522  0.3672
   94SAPS   H4R 9251   5.737   0.427   6.603  0.7451 -0.7338 -0.3094
   94SAPS   H4S 9252   5.826   0.529   6.468 -0.1828  0.7552  0.5095
   94SAPS   C25 9253   5.866   0.581   6.668  0.8003 -0.3871  0.1249
   94SAPS   H5R 9254   5.946   0.650   6.638  2.0889 -1.8116  0.1461
   94SAPS   C26 9255   5.815   0.608   6.791 -0.8398 -0.5455 -0.1613
   94SAPS   H6R 9256   5.855   0.687   6.857 -3.6027 -0.5213  1.6598
   94SAPS   C27 9257   5.711   0.521   6.860  0.5613  0.4523 -0.3074
   94SAPS   H7R 9258   5.747   0.470   6.952  0.8224 -3.0819 -2.1819
   94SAPS   H7S 9259   5.673   0.435   6.801  0.9366 -2.5703  3.4568
   94SAPS   C28 9260   5.587   0.596   6.890  0.1532 -1.2174 -0.1248
   94SAPS   H8R 9261   5.585   0.689   6.832  1.3867 -0.5974  0.8041
   94SAPS   C29 9262   5.483   0.565   6.971 -0.5852 -0.2473  0.1593
   94SAPS   H9R 9263   5.401   0.639   6.976 -1.5103 -1.3275  1.3706
   94SAPS  C210 9264   5.444   0.437   7.048 -0.1383  0.2803  0.1611
   94SAPS  H10R 9265   5.527   0.363   7.046  2.3649  2.8806  0.7772
   94SAPS  H10S 9266   5.348   0.390   7.016 -0.3974  0.3504  0.8251
   94SAPS  C211 9267   5.411   0.480   7.189 -0.1896  0.1084 -0.1427
   94SAPS  H11R 9268   5.329   0.553   7.190  0.1656  0.5599 -1.2950
   94SAPS  C212 9269   5.451   0.434   7.313 -0.7334  0.6229  1.2691
   94SAPS  H12R 9270   5.393   0.460   7.402 -1.9977 -1.0922  0.9882
   94SAPS  C213 9271   5.544   0.317   7.339  0.2806  0.1997 -0.4254
   94SAPS  H13R 9272   5.541   0.237   7.261  0.0057 -0.8613  0.6475
   94SAPS  H13S 9273   5.503   0.267   7.429 -0.3848  1.3344 -0.0821
   94SAPS  C214 9274   5.692   0.354   7.360 -0.0809 -0.3651 -0.3459
   94SAPS  H14R 9275   5.733   0.417   7.280 -3.0894  0.7765 -1.1328
   94SAPS  C215 9276   5.768   0.341   7.466 -0.0165  0.7958  0.0574
   94SAPS  H15R 9277   5.867   0.391   7.462  0.9390 -1.0557 -1.9973
   94SAPS  C216 9278   5.732   0.268   7.595 -0.3833 -0.4698  0.6346
   94SAPS  H16R 9279   5.809   0.194   7.627 -0.0611  0.0135  0.9805
   94SAPS  H16S 9280   5.642   0.204   7.582  0.0853 -1.2406  1.1302
   94SAPS  C217 9281   5.709   0.377   7.700  0.1706 -0.1038  0.0084
   94SAPS  H17R 9282   5.641   0.456   7.661 -0.9789 -0.6410  0.8605
   94SAPS  H17S 9283   5.804   0.420   7.738 -1.1321  0.7031  2.5575
   94SAPS  C218 9284   5.640   0.330   7.825 -0.5437  0.5684  0.7357
   94SAPS  H18R 9285   5.640   0.408   7.904 -0.2001  1.9031 -0.5308
   94SAPS  H18S 9286   5.698   0.239   7.851 -0.3352 -0.1234 -1.8167
   94SAPS  C219 9287   5.493   0.305   7.812  1.2924 -0.6512  0.1684
   94SAPS  H19R 9288   5.462   0.215   7.754 -1.5078  0.6882 -0.6182
   94SAPS  H19S 9289   5.447   0.385   7.750  1.3904 -0.5967  0.1654
   94SAPS  C220 9290   5.420   0.306   7.949 -0.4587  0.8282 -0.5086
   94SAPS  H20R 9291   5.385   0.202   7.964  2.0114 -0.2158 -1.5371
   94SAPS  H20S 9292   5.345   0.388   7.957 -1.5494 -0.2734  1.0506
   94SAPS  H20T 9293   5.480   0.322   8.041 -1.2324 -1.4211  0.4617
   94SAPS   C33 9294   6.406   0.017   6.863 -0.0117  0.7338 -0.2143
   94SAPS   H3X 9295   6.517   0.022   6.862  0.1837 -1.8745  0.4887
   94SAPS   H3Y 9296   6.380  -0.080   6.911 -0.5885  0.6973 -0.5895
   94SAPS   C34 9297   6.351   0.130   6.954  0.7265  0.4398  0.0353
   94SAPS   H4X 9298   6.386   0.213   6.889  1.1570  1.2300  1.2415
   94SAPS   H4Y 9299   6.408   0.129   7.049  1.1681 -1.6223 -0.2198
   94SAPS   C35 9300   6.201   0.138   6.984 -0.2094  0.9658  1.0888
   94SAPS   H5X 9301   6.163   0.044   7.030 -2.7110  1.4478  0.1738
   94SAPS   H5Y 9302   6.136   0.150   6.895  1.0604 -2.9041 -0.5522
   94SAPS   C36 9303   6.156   0.249   7.088  0.5704  0.6157 -0.1333
   94SAPS   H6X 9304   6.045   0.260   7.095  0.4114 -1.0754  0.7278
   94SAPS   H6Y 9305   6.197   0.350   7.067 -0.0222  0.5232 -1.9147
   94SAPS   C37 9306   6.184   0.205   7.227  0.4212 -0.1868  0.3720
   94SAPS   H7X 9307   6.294   0.201   7.243  1.0914 -0.8530 -3.4498
   94SAPS   H7Y 9308   6.138   0.106   7.248 -0.3090  0.1604  0.4633
   94SAPS   C38 9309   6.118   0.297   7.328  0.2526  0.8242 -0.5441
   94SAPS   H8X 9310   6.013   0.313   7.294 -1.4998 -3.1148  2.1793
   94SAPS   H8Y 9311   6.169   0.395   7.334  3.3251 -0.7297  4.0653
   94SAPS   C39 9312   6.113   0.233   7.471  0.0177  0.0092  0.9450
   94SAPS   H9X 9313   6.053   0.139   7.468 -1.4836  0.9303  1.1161
   94SAPS   H9Y 9314   6.058   0.305   7.535  0.0944 -0.7017  1.8366
   94SAPS  C310 9315   6.250   0.209   7.539  0.3161  0.3865 -0.2254
   94SAPS  H10X 9316   6.330   0.265   7.485 -1.0327  0.8668 -1.7817
   94SAPS  H10Y 9317   6.285   0.104   7.548  0.3498  0.2526 -1.7303
   94SAPS  C311 9318   6.267   0.257   7.685  0.4020 -0.6545 -0.7212
   94SAPS  H11X 9319   6.234   0.363   7.689  1.3842 -0.2762 -2.0722
   94SAPS  H11Y 9320   6.373   0.251   7.719 -0.0852 -3.0735  0.6195
   94SAPS  C312 9321   6.194   0.169   7.781 -0.7912  1.0725 -0.0808
   94SAPS  H12X 9322   6.208   0.059   7.769 -1.4823  0.7354  1.8094
   94SAPS  H12Y 9323   6.085   0.184   7.767 -1.0922  0.0216  0.9235
   94SAPS  C313 9324   6.222   0.186   7.936 -0.6739 -0.3896  0.6860
   94SAPS  H13X 9325   6.203   0.295   7.947 -0.7957 -0.2889 -0.4070
   94SAPS  H13Y 9326   6.330   0.168   7.954  0.0678  1.1758 -1.7026
   94SAPS  C314 9327   6.138   0.100   8.027 -0.0656  0.1794 -0.1622
   94SAPS  H14X 9328   6.199   0.062   8.111  1.3508  2.7067  0.0447
   94SAPS  H14Y 9329   6.099   0.018   7.962 -2.0799 -1.3291  2.7310
   94SAPS  C315 9330   6.026   0.186   8.086  0.0054  0.0740  0.1606
   94SAPS  H15X 9331   5.967   0.237   8.007 -0.2685  0.1343  0.4022
   94SAPS  H15Y 9332   6.066   0.271   8.144  0.2853  1.2389 -1.6673
   94SAPS  C316 9333   5.941   0.101   8.191 -0.3605 -0.4672  0.4448
   94SAPS  H16X 9334   6.023   0.065   8.257  0.3614 -1.1615 -0.7921
   94SAPS  H16Y 9335   5.906   0.014   8.132  0.9861 -0.5532 -0.2672
   94SAPS  C317 9336   5.825   0.178   8.259  0.4375 -0.1202  0.5046
   94SAPS  H17X 9337   5.875   0.255   8.322  1.7895 -0.5741  0.0265
   94SAPS  H17Y 9338   5.757   0.121   8.326 -2.6938  1.0748 -1.4589
   94SAPS  C318 9339   5.723   0.246   8.162 -0.1283  0.0682 -0.9357
   94SAPS  H18X 9340   5.775   0.328   8.106  0.0616  1.7740  1.6028
   94SAPS  H18Y 9341   5.640   0.298   8.214  0.2912 -1.9088  1.9209
   94SAPS  H18Z 9342   5.684   0.158   8.107  1.8978 -2.7163  1.7746
   95SAPS     N 9343   2.207   5.967   6.057 -0.3539  0.1557 -0.4315
   95SAPS   HN1 9344   2.222   6.043   6.126  1.8475  1.4430 -2.2066
   95SAPS   HN2 9345   2.114   5.988   6.014 -1.0719 -1.9247 -0.0050
   95SAPS   HN3 9346   2.181   5.883   6.114  0.2723  0.8033  0.8636
   95SAPS   C12 9347   2.316   5.944   5.956  0.4398 -0.2677  0.4148
   95SAPS  H12A 9348   2.305   5.842   5.922 -1.2123 -0.0220  0.1078
   95SAPS   C13 9349   2.303   6.029   5.828  0.2797 -0.4012  0.2993
   95SAPS  O13A 9350   2.195   6.088   5.814  0.4496 -1.1267 -0.7117
   95SAPS  O13B 9351   2.391   6.024   5.739 -0.2897  0.0395 -0.5393
   95SAPS   C11 9352   2.452   5.950   6.021 -0.5213  0.2537 -0.5001
   95SAPS  H11A 9353   2.445   6.030   6.098 -0.8670 -1.1685  1.0163
   95SAPS  H11B 9354   2.533   5.969   5.948 -0.4822 -0.2945 -0.5997
   95SAPS     P 9355   2.609   5.763   6.117 -0.1750  0.0544 -0.0358
   95SAPS   O13 9356   2.658   5.699   5.989  0.2851  0.2703 -0.8863
   95SAPS   O14 9357   2.697   5.862   6.176  0.0728 -0.0499  0.1754
   95SAPS   O12 9358   2.466   5.826   6.095  0.2102  0.1785 -0.3860
   95SAPS   O11 9359   2.574   5.655   6.225  0.3300  0.0609 -0.1106
   95SAPS    C1 9360   2.460   5.572   6.189  0.1053  0.1914 -0.0882
   95SAPS    HA 9361   2.426   5.577   6.083 -0.7616 -2.1512  0.0251
   95SAPS    HB 9362   2.492   5.466   6.204  1.4144  0.3690 -1.3874
   95SAPS    C2 9363   2.346   5.593   6.288 -0.5161  0.1002  0.9140
   95SAPS    HS 9364   2.329   5.703   6.279  0.6366  0.2978  1.0269
   95SAPS   O21 9365   2.394   5.545   6.416  0.1817 -0.2656  0.0670
   95SAPS   C21 9366   2.376   5.632   6.510 -0.1444 -0.4951  0.2612
   95SAPS   O22 9367   2.319   5.742   6.499  0.3312 -0.1089  0.4201
   95SAPS   C22 9368   2.422   5.571   6.634  0.4639 -0.0573  0.1185
   95SAPS   H2R 9369   2.366   5.475   6.636 -0.0612  0.2299 -0.3209
   95SAPS   H2S 9370   2.532   5.560   6.624  0.5206 -0.2152  0.8505
   95SAPS    C3 9371   2.219   5.521   6.241 -0.0110  0.1461  0.4011
   95SAPS    HX 9372   2.228   5.411   6.254 -2.3047  0.0577  1.8289
   95SAPS    HY 9373   2.206   5.542   6.133  1.2916 -0.8595  0.0233
   95SAPS   O31 9374   2.111   5.555   6.329  0.1175 -0.4804  0.4038
   95SAPS   C31 9375   2.064   5.680   6.311  0.6452 -0.3295 -0.1972
   95SAPS   O32 9376   2.100   5.757   6.228 -0.1041 -0.6390 -0.0322
   95SAPS   C32 9377   1.957   5.691   6.418  0.5017  0.1360 -0.6463
   95SAPS   H2X 9378   1.939   5.590   6.460  1.3088 -0.1680 -1.0092
   95SAPS   H2Y 9379   1.857   5.711   6.374 -0.6834 -1.2178  1.2641
   95SAPS   C23 9380   2.376   5.653   6.766 -0.1920 -0.2658  0.1680
   95SAPS   H3R 9381   2.266   5.647   6.780 -0.1470  0.6328  1.0163
   95SAPS   H3S 9382   2.425   5.753   6.760 -3.7139  1.5459 -2.6430
   95SAPS   C24 9383   2.437   5.570   6.883 -0.1260 -0.4661 -0.2559
   95SAPS   H4R 9384   2.546   5.590   6.891 -0.2461 -0.3747  1.6854
   95SAPS   H4S 9385   2.415   5.461   6.876  0.6485 -0.5864 -0.9285
   95SAPS   C25 9386   2.386   5.617   7.015  0.3188 -0.6274 -0.2630
   95SAPS   H5R 9387   2.382   5.726   7.028 -0.9194 -0.7746  0.7741
   95SAPS   C26 9388   2.346   5.540   7.114 -0.0123  0.5060  0.1589
   95SAPS   H6R 9389   2.295   5.595   7.194  0.1388  1.0702 -0.1261
   95SAPS   C27 9390   2.336   5.390   7.128 -0.2462  0.4713  0.0606
   95SAPS   H7R 9391   2.331   5.345   7.026  2.7386  0.7202 -0.2856
   95SAPS   H7S 9392   2.245   5.350   7.178  0.6484 -0.7718  0.7688
   95SAPS   C28 9393   2.454   5.316   7.195 -0.5269  0.2034  0.7377
   95SAPS   H8R 9394   2.526   5.277   7.121 -1.0738  1.6297 -0.6062
   95SAPS   C29 9395   2.478   5.290   7.327 -0.3762  0.4337 -0.2850
   95SAPS   H9R 9396   2.567   5.235   7.360 -1.1991  0.0087  1.3282
   95SAPS  C210 9397   2.387   5.338   7.439  0.2337  0.4362 -0.3622
   95SAPS  H10R 9398   2.307   5.412   7.418 -2.1085 -2.4443 -2.2766
   95SAPS  H10S 9399   2.448   5.383   7.521  0.1160  1.8281 -1.0072
   95SAPS  C211 9400   2.321   5.203   7.480 -0.0544 -0.3556  0.7082
   95SAPS  H11R 9401   2.259   5.158   7.400 -1.2765  1.6261  0.4616
   95SAPS  C212 9402   2.352   5.133   7.588  0.1357 -0.0070  0.0113
   95SAPS  H12R 9403   2.295   5.041   7.608 -0.2615  0.5498  1.6318
   95SAPS  C213 9404   2.466   5.164   7.682  0.0509  0.5655  0.7072
   95SAPS  H13R 9405   2.447   5.262   7.731  0.4602 -0.2078  2.5086
   95SAPS  H13S 9406   2.566   5.162   7.633 -0.4595 -2.4410 -0.3932
   95SAPS  C214 9407   2.465   5.057   7.785 -0.5248 -0.0907  0.0293
   95SAPS  H14R 9408   2.424   4.958   7.760  0.9610 -0.7218 -0.0172
   95SAPS  C215 9409   2.519   5.070   7.910  0.0916  0.1326  0.1249
   95SAPS  H15R 9410   2.514   4.991   7.987 -1.1839  0.1701  0.0859
   95SAPS  C216 9411   2.585   5.203   7.957 -0.7375  0.0311  0.5181
   95SAPS  H16R 9412   2.576   5.280   7.878 -2.4609 -0.1675  0.4861
   95SAPS  H16S 9413   2.693   5.183   7.975 -0.4793  2.1000  1.4793
   95SAPS  C217 9414   2.524   5.241   8.091 -0.3203 -0.1165  0.2937
   95SAPS  H17R 9415   2.534   5.166   8.172 -3.8957 -0.2401  0.7855
   95SAPS  H17S 9416   2.413   5.244   8.085 -0.3930  0.1804  1.5637
   95SAPS  C218 9417   2.576   5.375   8.146  0.2903 -0.9699  0.1025
   95SAPS  H18R 9418   2.526   5.404   8.240  1.4127  0.9241  0.1666
   95SAPS  H18S 9419   2.555   5.462   8.081  1.9781  0.7770  1.7768
   95SAPS  C219 9420   2.731   5.371   8.161 -0.2130  0.4201 -0.1499
   95SAPS  H19R 9421   2.749   5.469   8.211 -1.2532  0.0311  1.0426
   95SAPS  H19S 9422   2.775   5.366   8.059  0.5175  1.2757  0.1103
   95SAPS  C220 9423   2.799   5.274   8.262  0.3645 -0.0080 -0.9923
   95SAPS  H20R 9424   2.909   5.285   8.271  0.2033  0.7335  0.1848
   95SAPS  H20S 9425   2.771   5.171   8.229 -0.2156  0.1993 -1.1508
   95SAPS  H20T 9426   2.756   5.295   8.362  0.6693 -0.5365 -0.7445
   95SAPS   C33 9427   1.998   5.791   6.528  0.9732 -0.0233  0.1815
   95SAPS   H3X 9428   2.022   5.890   6.483  1.8783  0.0914  0.8816
   95SAPS   H3Y 9429   2.085   5.741   6.578 -1.0943 -1.5631  2.4683
   95SAPS   C34 9430   1.895   5.815   6.638 -0.3576  0.3789  0.0021
   95SAPS   H4X 9431   1.874   5.720   6.691  2.4016 -0.2288  0.1355
   95SAPS   H4Y 9432   1.804   5.858   6.591  0.2891  0.9539 -0.7624
   95SAPS   C35 9433   1.948   5.916   6.741 -0.7814 -0.3378 -0.4731
   95SAPS   H5X 9434   1.863   5.967   6.792  1.6678  1.5714  2.0661
   95SAPS   H5Y 9435   2.007   5.994   6.688 -0.9208 -0.6688 -1.1216
   95SAPS   C36 9436   2.039   5.865   6.845 -0.0577  0.8850  0.1129
   95SAPS   H6X 9437   2.081   5.952   6.899  5.5844 -1.0215 -0.6165
   95SAPS   H6Y 9438   2.129   5.809   6.812 -0.4268 -0.4887  1.3341
   95SAPS   C37 9439   1.953   5.769   6.931  0.3759  0.0033 -0.6133
   95SAPS   H7X 9440   1.947   5.664   6.897 -0.9697  0.6402 -2.5662
   95SAPS   H7Y 9441   1.846   5.800   6.936 -0.2698 -2.1574 -0.2538
   95SAPS   C38 9442   2.011   5.758   7.073 -0.5648 -0.0493 -0.0965
   95SAPS   H8X 9443   2.067   5.845   7.112 -0.8406  0.2913 -0.4523
   95SAPS   H8Y 9444   2.088   5.678   7.071 -1.0948 -0.5978  0.7289
   95SAPS   C39 9445   1.900   5.711   7.170 -0.6238  0.9887 -0.0114
   95SAPS   H9X 9446   1.863   5.610   7.140 -0.4311  0.8657  0.1635
   95SAPS   H9Y 9447   1.817   5.781   7.147 -2.1516 -0.1665  1.7132
   95SAPS  C310 9448   1.942   5.698   7.314  0.5960 -0.0762 -0.2112
   95SAPS  H10X 9449   1.849   5.695   7.375 -0.5658  2.6138 -1.6581
   95SAPS  H10Y 9450   1.999   5.788   7.349  0.6746 -0.0434 -0.4237
   95SAPS  C311 9451   2.024   5.569   7.342  0.2364 -0.1453  0.1321
   95SAPS  H11X 9452   2.123   5.569   7.292 -0.9987  0.4570 -2.5537
   95SAPS  H11Y 9453   1.966   5.476   7.321  0.6238 -0.2443 -0.5482
   95SAPS  C312 9454   2.041   5.537   7.493  0.4472 -0.1926 -0.2290
   95SAPS  H12X 9455   2.055   5.427   7.502  0.1883 -0.0566  3.5471
   95SAPS  H12Y 9456   1.944   5.564   7.540  0.8958 -1.3038  1.3845
   95SAPS  C313 9457   2.144   5.613   7.571  0.3836 -0.3506  0.2372
   95SAPS  H13X 9458   2.146   5.724   7.559  3.8146 -0.1302  1.6380
   95SAPS  H13Y 9459   2.238   5.580   7.521 -0.3192 -1.8906 -0.1345
   95SAPS  C314 9460   2.158   5.586   7.723 -0.1648 -0.0460  0.5226
   95SAPS  H14X 9461   2.203   5.486   7.741 -0.0157  0.4634  3.3901
   95SAPS  H14Y 9462   2.059   5.608   7.767 -0.2288 -1.5507  1.1836
   95SAPS  C315 9463   2.256   5.686   7.787 -0.4920 -0.4046  0.7983
   95SAPS  H15X 9464   2.235   5.786   7.742  0.1093 -0.7616 -0.3081
   95SAPS  H15Y 9465   2.364   5.668   7.767 -0.8865 -2.2003  0.1030
   95SAPS  C316 9466   2.246   5.705   7.939  0.0041 -0.3993 -0.1487
   95SAPS  H16X 9467   2.142   5.742   7.954 -1.1951 -1.8077 -3.8148
   95SAPS  H16Y 9468   2.317   5.785   7.966  0.6808 -0.8580 -0.5435
   95SAPS  C317 9469   2.285   5.579   8.012  0.5154 -0.3427 -0.2310
   95SAPS  H17X 9470   2.377   5.541   7.961  0.0432  0.6628 -1.8900
   95SAPS  H17Y 9471   2.207   5.500   8.003 -0.1652  0.4802 -1.8544
   95SAPS  C318 9472   2.303   5.602   8.161  0.1904 -0.1353 -0.1514
   95SAPS  H18X 9473   2.204   5.633   8.201  0.3622  0.0138  0.1533
   95SAPS  H18Y 9474   2.382   5.676   8.184  0.0200 -0.2813  0.9891
   95SAPS  H18Z 9475   2.331   5.506   8.210 -2.6850 -1.8863 -1.5870
   96SAPS     N 9476   4.866   0.389   5.577  0.5133 -0.4757 -0.3288
   96SAPS   HN1 9477   4.870   0.491   5.554  0.0550 -0.3854 -0.0166
   96SAPS   HN2 9478   4.951   0.354   5.626  0.1130 -1.6460 -0.4327
   96SAPS   HN3 9479   4.848   0.329   5.494 -0.4315 -1.5153  0.5978
   96SAPS   C12 9480   4.747   0.376   5.671  0.0147  0.3175 -0.6270
   96SAPS  H12A 9481   4.763   0.434   5.760  0.4461 -1.2522  0.3706
   96SAPS   C13 9482   4.615   0.432   5.617 -0.0238  0.1466 -0.4820
   96SAPS  O13A 9483   4.612   0.489   5.504 -0.2369 -0.5220 -0.4763
   96SAPS  O13B 9484   4.511   0.426   5.689  0.4443  0.5744  0.1906
   96SAPS   C11 9485   4.733   0.228   5.708 -0.3189  0.5837 -0.5465
   96SAPS  H11A 9486   4.711   0.172   5.615  3.3013  0.1847 -1.3083
   96SAPS  H11B 9487   4.650   0.205   5.778  1.1811  0.2940  1.2077
   96SAPS     P 9488   4.871   0.077   5.880  0.2152 -0.1987 -0.0668
   96SAPS   O13 9489   4.811  -0.053   5.847  0.0245 -0.1598  0.3517
   96SAPS   O14 9490   5.015   0.079   5.906  0.0587  0.6804 -0.2126
   96SAPS   O12 9491   4.854   0.175   5.754 -0.6938  0.6786  0.2655
   96SAPS   O11 9492   4.790   0.146   5.994  0.0686 -0.1249 -0.1561
   96SAPS    C1 9493   4.817   0.276   6.057 -0.0766  0.2563 -0.3397
   96SAPS    HA 9494   4.916   0.314   6.023  1.3159 -2.1413  0.8054
   96SAPS    HB 9495   4.739   0.349   6.025 -0.1871  1.2831  2.0784
   96SAPS    C2 9496   4.806   0.270   6.210 -1.0275  0.7579  0.0462
   96SAPS    HS 9497   4.909   0.273   6.252 -0.2592 -0.0540 -1.6810
   96SAPS   O21 9498   4.742   0.140   6.245  0.2273 -0.0282  0.0553
   96SAPS   C21 9499   4.792   0.072   6.354 -0.5671 -0.3332 -0.2563
   96SAPS   O22 9500   4.892   0.109   6.412  0.1164 -0.2618 -0.4104
   96SAPS   C22 9501   4.701  -0.039   6.389  0.5524  0.0708  0.6515
   96SAPS   H2R 9502   4.624   0.008   6.454 -1.6072 -2.3082 -0.0434
   96SAPS   H2S 9503   4.652  -0.077   6.296  1.1807  2.1748 -0.6249
   96SAPS    C3 9504   4.721   0.383   6.271 -0.6421  0.5123 -0.1548
   96SAPS    HX 9505   4.613   0.357   6.259 -0.6615  1.2053 -1.7318
   96SAPS    HY 9506   4.738   0.477   6.214 -0.5929  0.3641 -0.3828
   96SAPS   O31 9507   4.752   0.403   6.403 -0.0263  0.2194  0.0050
   96SAPS   C31 9508   4.683   0.340   6.507  0.3980 -0.0049  0.2576
   96SAPS   O32 9509   4.577   0.282   6.484 -0.1862  0.3312 -0.3878
   96SAPS   C32 9510   4.767   0.330   6.629 -0.4388  0.3814 -0.0427
   96SAPS   H2X 9511   4.746   0.416   6.695  0.8393 -0.5518  1.6673
   96SAPS   H2Y 9512   4.873   0.342   6.599 -1.0930  0.9655 -2.3469
   96SAPS   C23 9513   4.765  -0.150   6.484 -0.4844  0.4301 -0.1471
   96SAPS   H3R 9514   4.779  -0.102   6.584  2.1378 -0.3300 -0.0769
   96SAPS   H3S 9515   4.871  -0.173   6.464 -0.8942 -1.2670 -0.4668
   96SAPS   C24 9516   4.687  -0.279   6.502 -0.5767 -0.8069 -0.9703
   96SAPS   H4R 9517   4.749  -0.335   6.576 -0.6875 -1.1197 -1.1153
   96SAPS   H4S 9518   4.683  -0.337   6.408  2.3321  1.1901 -2.4864
   96SAPS   C25 9519   4.546  -0.260   6.540  0.2936 -1.1739  0.2915
   96SAPS   H5R 9520   4.478  -0.222   6.462  0.2334 -0.4915  0.6721
   96SAPS   C26 9521   4.486  -0.276   6.659  0.2012 -0.3139 -0.1881
   96SAPS   H6R 9522   4.377  -0.263   6.661  0.1709 -0.6135  0.2989
   96SAPS   C27 9523   4.550  -0.334   6.776  0.3783  0.5647  0.2270
   96SAPS   H7R 9524   4.654  -0.373   6.767  0.8414  0.6763  3.5378
   96SAPS   H7S 9525   4.492  -0.425   6.802  1.5561 -1.3897 -3.4063
   96SAPS   C28 9526   4.559  -0.242   6.892 -0.0368 -0.3052 -0.1261
   96SAPS   H8R 9527   4.581  -0.139   6.862 -1.4529 -0.1205 -0.5819
   96SAPS   C29 9528   4.545  -0.253   7.026  0.4653 -0.0990  0.2580
   96SAPS   H9R 9529   4.562  -0.166   7.091 -0.2894 -0.5673  1.1149
   96SAPS  C210 9530   4.508  -0.374   7.107  0.2948  0.0709 -0.1979
   96SAPS  H10R 9531   4.453  -0.451   7.049 -1.5883  1.0649  0.1561
   96SAPS  H10S 9532   4.429  -0.332   7.174  1.6460 -0.3504  1.7209
   96SAPS  C211 9533   4.622  -0.449   7.187 -0.0105 -0.0380  0.2121
   96SAPS  H11R 9534   4.706  -0.472   7.121 -1.6436 -1.6518 -1.4408
   96SAPS  C212 9535   4.610  -0.513   7.302 -0.0907  0.6190  0.4737
   96SAPS  H12R 9536   4.701  -0.547   7.354 -0.8478 -0.9791  0.8567
   96SAPS  C213 9537   4.484  -0.516   7.396  0.4904  0.3311  0.6387
   96SAPS  H13R 9538   4.389  -0.494   7.341  0.4148 -1.9672 -0.2670
   96SAPS  H13S 9539   4.498  -0.432   7.468 -2.4594  0.1791  1.5083
   96SAPS  C214 9540   4.473  -0.648   7.469 -0.1649 -0.0576  0.0291
   96SAPS  H14R 9541   4.475  -0.730   7.396  0.7404 -0.3328  0.3418
   96SAPS  C215 9542   4.463  -0.669   7.605  0.7016 -0.7896  0.4487
   96SAPS  H15R 9543   4.455  -0.775   7.636  0.6530 -1.0567 -0.4485
   96SAPS  C216 9544   4.439  -0.557   7.703 -0.2035  0.2010 -0.8496
   96SAPS  H16R 9545   4.388  -0.597   7.793  0.9320  1.9543  0.6309
   96SAPS  H16S 9546   4.365  -0.482   7.667 -1.1014 -0.8532 -1.2627
   96SAPS  C217 9547   4.569  -0.483   7.752  0.0356 -0.1757 -0.1097
   96SAPS  H17R 9548   4.537  -0.393   7.808 -2.8472  0.5382 -2.6333
   96SAPS  H17S 9549   4.636  -0.437   7.676  0.1483 -1.0687 -0.5706
   96SAPS  C218 9550   4.635  -0.573   7.861 -0.0004 -0.5711 -0.3990
   96SAPS  H18R 9551   4.679  -0.662   7.811 -0.1166 -0.1913 -1.1836
   96SAPS  H18S 9552   4.565  -0.604   7.942  0.4332 -1.7923 -0.4661
   96SAPS  C219 9553   4.755  -0.500   7.926  0.4221 -0.8712  0.0459
   96SAPS  H19R 9554   4.808  -0.441   7.849  1.8757 -0.6159  1.1944
   96SAPS  H19S 9555   4.810  -0.580   7.981 -2.1590 -2.7260  0.1026
   96SAPS  C220 9556   4.706  -0.395   8.029  0.2799 -0.2502 -0.0854
   96SAPS  H20R 9557   4.789  -0.329   8.062  0.6720 -0.3756 -0.8083
   96SAPS  H20S 9558   4.659  -0.444   8.117 -0.7554  0.9946  0.0800
   96SAPS  H20T 9559   4.621  -0.339   7.987 -2.0875 -1.8464  2.2607
   96SAPS   C33 9560   4.730   0.214   6.719 -0.3566 -0.3664 -0.0686
   96SAPS   H3X 9561   4.741   0.117   6.667  0.9505 -0.2762  0.0153
   96SAPS   H3Y 9562   4.622   0.223   6.746 -0.2524 -0.0886  0.2598
   96SAPS   C34 9563   4.808   0.207   6.852  0.3597  0.7075  0.1990
   96SAPS   H4X 9564   4.800   0.307   6.900 -0.0369  0.2400  1.1361
   96SAPS   H4Y 9565   4.913   0.174   6.837 -0.1915 -1.1599  0.2253
   96SAPS   C35 9566   4.746   0.107   6.950  0.8350 -0.3985 -0.4563
   96SAPS   H5X 9567   4.754   0.010   6.897 -1.0447 -0.0541 -1.4557
   96SAPS   H5Y 9568   4.637   0.131   6.955  0.6343 -1.5032  1.0848
   96SAPS   C36 9569   4.790   0.125   7.095 -0.2232  0.0112  0.3771
   96SAPS   H6X 9570   4.746   0.223   7.124 -0.6799 -0.8438  2.8110
   96SAPS   H6Y 9571   4.901   0.134   7.098 -0.2554  0.0420  2.8733
   96SAPS   C37 9572   4.747   0.011   7.182  0.2043 -0.2313  0.3101
   96SAPS   H7X 9573   4.781  -0.085   7.137 -4.4323 -1.6107 -0.7962
   96SAPS   H7Y 9574   4.637   0.014   7.192  0.3560  2.3168  2.1993
   96SAPS   C38 9575   4.811   0.029   7.317 -0.5745  0.6306  0.3055
   96SAPS   H8X 9576   4.789   0.130   7.357 -1.4374  0.4818  0.2144
   96SAPS   H8Y 9577   4.922   0.019   7.317 -0.5156  1.0810 -1.0804
   96SAPS   C39 9578   4.753  -0.073   7.421  0.4732  0.0700  0.1326
   96SAPS   H9X 9579   4.763  -0.182   7.399 -0.5991 -0.5084  2.1868
   96SAPS   H9Y 9580   4.642  -0.066   7.410  0.4310 -1.0900 -0.3476
   96SAPS  C310 9581   4.791  -0.033   7.558 -0.7774 -0.0735  0.2638
   96SAPS  H10X 9582   4.764   0.075   7.560 -2.1099 -0.3322 -1.3423
   96SAPS  H10Y 9583   4.902  -0.038   7.559 -0.6755  1.4022 -0.7138
   96SAPS  C311 9584   4.724  -0.102   7.675 -0.3419 -0.4752 -0.3594
   96SAPS  H11X 9585   4.779  -0.190   7.716 -1.7613  0.0750  3.0601
   96SAPS  H11Y 9586   4.628  -0.141   7.635 -0.4636  2.0940 -2.8417
   96SAPS  C312 9587   4.731  -0.010   7.797  0.6362  0.0644  0.1437
   96SAPS  H12X 9588   4.671  -0.048   7.882  0.9034  0.1499  0.3712
   96SAPS  H12Y 9589   4.694   0.088   7.760  0.0157 -0.8526 -1.7709
   96SAPS  C313 9590   4.872   0.031   7.845  0.4433 -0.0465 -0.2863
   96SAPS  H13X 9591   4.912   0.121   7.793 -0.8012  0.6026 -0.1725
   96SAPS  H13Y 9592   4.942  -0.052   7.822  2.4924  0.9129  2.0244
   96SAPS  C314 9593   4.891   0.059   7.993 -0.8146  0.2383  0.2987
   96SAPS  H14X 9594   4.889  -0.035   8.052  1.7136 -0.2755 -0.3178
   96SAPS  H14Y 9595   4.816   0.138   8.015 -2.5317 -0.3950 -2.7622
   96SAPS  C315 9596   5.024   0.134   8.024  0.3407 -0.3267 -0.4466
   96SAPS  H15X 9597   5.025   0.231   7.969  0.8588 -1.1843 -2.0104
   96SAPS  H15Y 9598   5.116   0.079   7.995  2.0809  2.0021  0.3037
   96SAPS  C316 9599   5.046   0.161   8.174 -0.5315  0.0626 -0.2827
   96SAPS  H16X 9600   5.053   0.066   8.231  1.4270  2.3922  3.8301
   96SAPS  H16Y 9601   4.957   0.217   8.212 -0.2573  0.0699  0.3571
   96SAPS  C317 9602   5.173   0.241   8.205  0.4920  0.0413  0.0624
   96SAPS  H17X 9603   5.168   0.335   8.145  1.4663 -1.7105 -2.9801
   96SAPS  H17Y 9604   5.262   0.189   8.163 -1.8813 -3.4940 -1.0500
   96SAPS  C318 9605   5.189   0.273   8.353 -0.7863  0.2085 -0.4283
   96SAPS  H18X 9606   5.299   0.285   8.367 -0.3234 -2.3645 -1.3348
   96SAPS  H18Y 9607   5.163   0.189   8.420 -1.0990  0.3617 -0.3562
   96SAPS  H18Z 9608   5.138   0.366   8.386 -0.3846 -0.2512  1.5842
   97SAPS     N 9609   1.177   4.213   5.755  0.1385  0.3769 -0.0572
   97SAPS   HN1 9610   1.115   4.245   5.677  0.6060  1.2460 -0.0821
   97SAPS   HN2 9611   1.149   4.118   5.788 -1.0406  0.4047 -0.8871
   97SAPS   HN3 9612   1.152   4.275   5.834  0.1148  0.7786 -0.3754
   97SAPS   C12 9613   1.323   4.222   5.735  0.5515  0.2017  0.5546
   97SAPS  H12A 9614   1.346   4.155   5.653 -0.0334  3.2648 -2.3528
   97SAPS   C13 9615   1.374   4.357   5.689 -0.5456  0.9058  0.2268
   97SAPS  O13A 9616   1.299   4.456   5.660 -0.1078  0.8287 -0.0678
   97SAPS  O13B 9617   1.502   4.364   5.673  0.1780  0.0386  0.2474
   97SAPS   C11 9618   1.393   4.161   5.854  0.1289  0.6935 -0.3502
   97SAPS  H11A 9619   1.361   4.216   5.945 -0.1660  2.1685 -1.3097
   97SAPS  H11B 9620   1.503   4.169   5.843  0.2403 -0.1906  0.0074
   97SAPS     P 9621   1.276   3.931   5.946 -0.1603  0.1839  0.3524
   97SAPS   O13 9622   1.141   3.985   5.917 -0.1448 -0.2716 -0.1305
   97SAPS   O14 9623   1.304   3.791   5.908  0.7511 -0.2343  0.1495
   97SAPS   O12 9624   1.384   4.015   5.867  0.3551 -0.6237 -0.6308
   97SAPS   O11 9625   1.316   3.937   6.096 -0.5521 -1.0430 -0.1544
   97SAPS    C1 9626   1.442   3.900   6.154 -0.1834 -0.0184  0.3314
   97SAPS    HA 9627   1.516   3.889   6.072  1.3620 -0.8085  1.7584
   97SAPS    HB 9628   1.473   3.984   6.220 -2.2484 -0.0316  1.4035
   97SAPS    C2 9629   1.445   3.761   6.226  0.9165  0.0167 -1.0306
   97SAPS    HS 9630   1.416   3.680   6.155  1.4744  0.0102 -1.2565
   97SAPS   O21 9631   1.360   3.763   6.345 -0.1203 -0.0361 -0.0561
   97SAPS   C21 9632   1.311   3.648   6.399 -0.6389 -0.0884  0.6804
   97SAPS   O22 9633   1.326   3.539   6.339 -0.5331 -0.7087 -0.5889
   97SAPS   C22 9634   1.233   3.689   6.518 -0.0887 -0.0467 -0.1023
   97SAPS   H2R 9635   1.290   3.761   6.581  0.4116 -2.3843  2.2707
   97SAPS   H2S 9636   1.147   3.752   6.488 -0.5712 -1.1816 -1.1971
   97SAPS    C3 9637   1.583   3.723   6.263 -0.1151  0.0425 -0.5299
   97SAPS    HX 9638   1.638   3.701   6.169 -1.2282 -0.0135 -1.1762
   97SAPS    HY 9639   1.572   3.633   6.328  0.6288  0.8963  0.8366
   97SAPS   O31 9640   1.656   3.831   6.333 -0.5780 -0.2966 -0.0662
   97SAPS   C31 9641   1.744   3.778   6.411 -0.3422 -0.2430  0.6620
   97SAPS   O32 9642   1.783   3.661   6.411 -0.0111 -0.1544 -0.4198
   97SAPS   C32 9643   1.787   3.890   6.505  0.3866  0.5345  0.2808
   97SAPS   H2X 9644   1.702   3.895   6.577  0.4004 -2.4347  0.6283
   97SAPS   H2Y 9645   1.797   3.981   6.443 -0.1528  1.2350  1.1868
   97SAPS   C23 9646   1.179   3.580   6.606 -0.3751 -0.1511 -0.9128
   97SAPS   H3R 9647   1.264   3.532   6.660 -0.4282 -0.1006 -0.7830
   97SAPS   H3S 9648   1.125   3.492   6.566 -1.5008 -0.8022  1.8545
   97SAPS   C24 9649   1.087   3.641   6.717 -0.3624 -0.3825 -0.6166
   97SAPS   H4R 9650   1.136   3.717   6.782  3.9022 -0.6319 -3.1571
   97SAPS   H4S 9651   1.069   3.559   6.789  2.4469  0.2747  0.9798
   97SAPS   C25 9652   0.948   3.676   6.660 -0.6216 -0.2484 -0.0779
   97SAPS   H5R 9653   0.955   3.742   6.572 -0.3702  0.2437  0.3036
   97SAPS   C26 9654   0.831   3.635   6.714 -0.7564  0.1559  0.7894
   97SAPS   H6R 9655   0.740   3.656   6.657 -0.8617 -1.3897  0.3542
   97SAPS   C27 9656   0.822   3.547   6.836  0.0613  0.0634 -0.8787
   97SAPS   H7R 9657   0.894   3.575   6.916 -0.0078 -0.7026 -0.5352
   97SAPS   H7S 9658   0.862   3.445   6.815  0.8591  0.2251 -0.2162
   97SAPS   C28 9659   0.677   3.531   6.879  0.7305 -0.0319 -0.6721
   97SAPS   H8R 9660   0.601   3.566   6.807 -0.6420 -0.9038  0.3085
   97SAPS   C29 9661   0.640   3.480   7.000  0.1261 -0.3269  0.8515
   97SAPS   H9R 9662   0.532   3.473   7.019  0.0743  0.3293  0.8123
   97SAPS  C210 9663   0.732   3.420   7.100  0.1951 -0.1822  0.3695
   97SAPS  H10R 9664   0.829   3.473   7.095  0.6641 -1.1392 -2.3730
   97SAPS  H10S 9665   0.769   3.320   7.070  3.5458  0.5724  1.5798
   97SAPS  C211 9666   0.685   3.399   7.235  0.5241 -0.6350  0.1467
   97SAPS  H11R 9667   0.576   3.392   7.246  0.4773  0.0358  0.1613
   97SAPS  C212 9668   0.754   3.407   7.345 -0.5688 -0.4155 -0.3328
   97SAPS  H12R 9669   0.703   3.402   7.442 -0.3533 -0.8341 -0.2409
   97SAPS  C213 9670   0.900   3.445   7.357  0.2995  1.2174 -0.6180
   97SAPS  H13R 9671   0.937   3.500   7.268 -0.3155  1.2487 -0.8640
   97SAPS  H13S 9672   0.957   3.350   7.363 -1.0798  0.3689 -0.2327
   97SAPS  C214 9673   0.922   3.530   7.481 -0.0874 -0.3689  0.2595
   97SAPS  H14R 9674   0.871   3.627   7.479  1.2496  0.3933  1.1652
   97SAPS  C215 9675   0.986   3.499   7.593  0.5056 -0.2753 -0.2848
   97SAPS  H15R 9676   1.016   3.580   7.661 -0.7428  1.0134 -1.2234
   97SAPS  C216 9677   1.048   3.367   7.624 -0.2012 -0.4803 -0.3369
   97SAPS  H16R 9678   1.158   3.354   7.625 -0.3370 -2.0093  1.6575
   97SAPS  H16S 9679   1.003   3.280   7.571 -2.1869  0.7720 -0.8245
   97SAPS  C217 9680   1.013   3.340   7.775  0.8278  0.2937  0.2334
   97SAPS  H17R 9681   1.072   3.409   7.838 -1.3597  3.9096 -1.3250
   97SAPS  H17S 9682   1.037   3.235   7.802 -1.3402  0.4784  3.4124
   97SAPS  C218 9683   0.862   3.356   7.817 -0.5306  0.1685  0.1178
   97SAPS  H18R 9684   0.798   3.302   7.744 -0.7665  2.4422 -1.4476
   97SAPS  H18S 9685   0.814   3.455   7.803 -0.6335  0.0575 -0.3297
   97SAPS  C219 9686   0.813   3.278   7.943 -0.2717 -0.6848 -0.8465
   97SAPS  H19R 9687   0.865   3.313   8.035 -1.1787  1.3774 -1.0711
   97SAPS  H19S 9688   0.839   3.171   7.927  1.0339 -0.4605 -0.3283
   97SAPS  C220 9689   0.667   3.296   7.962  0.8884  0.4017  0.6508
   97SAPS  H20R 9690   0.633   3.399   7.987 -1.1991 -0.0996  0.0574
   97SAPS  H20S 9691   0.624   3.235   8.044  0.9914  1.6006  1.6288
   97SAPS  H20T 9692   0.605   3.278   7.872 -1.3390  2.6842  1.5794
   97SAPS   C33 9693   1.917   3.867   6.579  0.5348  0.4209 -0.2381
   97SAPS   H3X 9694   1.967   3.966   6.569 -1.2012  1.2877 -0.7669
   97SAPS   H3Y 9695   1.986   3.802   6.522  4.6120  1.7298  2.7086
   97SAPS   C34 9696   1.920   3.811   6.720 -0.5399 -0.0330  0.2163
   97SAPS   H4X 9697   1.852   3.726   6.738  0.5158 -0.8055  0.6381
   97SAPS   H4Y 9698   1.894   3.884   6.800  0.5602 -0.1776  0.7176
   97SAPS   C35 9699   2.066   3.775   6.758  0.6470  0.3448 -0.3637
   97SAPS   H5X 9700   2.123   3.871   6.751  0.0706  0.9271  1.9920
   97SAPS   H5Y 9701   2.104   3.711   6.676 -0.8274 -0.7632 -0.2086
   97SAPS   C36 9702   2.095   3.718   6.896 -0.5456 -0.3114 -0.6412
   97SAPS   H6X 9703   2.202   3.692   6.907 -0.4892  0.4245  0.7212
   97SAPS   H6Y 9704   2.033   3.629   6.922  0.3640 -0.3900  1.3972
   97SAPS   C37 9705   2.061   3.827   7.003  0.2508  0.3536  0.0352
   97SAPS   H7X 9706   1.956   3.863   7.008  0.6892  1.5200  1.5007
   97SAPS   H7Y 9707   2.132   3.910   6.982  1.8537 -1.0968 -0.5415
   97SAPS   C38 9708   2.096   3.762   7.141  0.3150 -0.3601 -0.7279
   97SAPS   H8X 9709   2.205   3.739   7.132  0.1002 -1.6255 -0.2443
   97SAPS   H8Y 9710   2.043   3.666   7.157  0.0511  0.1655  1.9085
   97SAPS   C39 9711   2.063   3.841   7.266 -0.1926  0.4481  0.3792
   97SAPS   H9X 9712   1.954   3.858   7.262 -0.1622  1.3273  2.3109
   97SAPS   H9Y 9713   2.123   3.935   7.267  2.9511 -1.3912 -0.5941
   97SAPS  C310 9714   2.092   3.762   7.392 -0.2799  0.4402 -0.1083
   97SAPS  H10X 9715   2.197   3.727   7.396 -0.6097 -0.5409  0.3230
   97SAPS  H10Y 9716   2.027   3.672   7.394 -0.2345  0.3773 -1.1299
   97SAPS  C311 9717   2.069   3.838   7.528  0.2638  0.3960  0.3475
   97SAPS  H11X 9718   1.968   3.872   7.559  1.2213  1.7009  2.2216
   97SAPS  H11Y 9719   2.130   3.930   7.539  1.7223 -0.2887 -1.5347
   97SAPS  C312 9720   2.111   3.734   7.645  0.6332 -0.0563 -0.2114
   97SAPS  H12X 9721   2.206   3.683   7.619 -1.0222 -2.0483 -2.9049
   97SAPS  H12Y 9722   2.034   3.659   7.676  2.8775 -2.9831 -1.2793
   97SAPS  C313 9723   2.138   3.813   7.777 -0.6189  0.3278 -0.2271
   97SAPS  H13X 9724   2.041   3.812   7.832  0.4419  0.8315  1.7349
   97SAPS  H13Y 9725   2.173   3.918   7.761  2.5787 -0.0700  2.9678
   97SAPS  C314 9726   2.254   3.751   7.871 -0.2305 -0.2641 -0.4258
   97SAPS  H14X 9727   2.337   3.746   7.797  0.0437 -0.6876 -0.0951
   97SAPS  H14Y 9728   2.239   3.643   7.896  1.1483 -1.2741 -3.4405
   97SAPS  C315 9729   2.285   3.835   7.991 -0.0422 -0.1991  0.1105
   97SAPS  H15X 9730   2.188   3.822   8.042 -0.6402  1.2531 -0.5839
   97SAPS  H15Y 9731   2.281   3.945   7.975  2.0024  0.2383  2.1461
   97SAPS  C316 9732   2.408   3.798   8.068  0.4190 -0.0322 -0.5636
   97SAPS  H16X 9733   2.501   3.815   8.010 -0.3496  0.3912 -1.7347
   97SAPS  H16Y 9734   2.403   3.689   8.085  1.3939 -0.0703 -0.4733
   97SAPS  C317 9735   2.409   3.869   8.201  1.2524 -0.0163  0.4798
   97SAPS  H17X 9736   2.315   3.834   8.251 -0.9154  0.9870 -2.5964
   97SAPS  H17Y 9737   2.405   3.977   8.177 -3.6118 -0.3696 -1.5550
   97SAPS  C318 9738   2.528   3.834   8.290 -0.2345  0.1839  0.6829
   97SAPS  H18X 9739   2.529   3.726   8.317  1.7497 -0.4277 -1.4554
   97SAPS  H18Y 9740   2.524   3.895   8.382 -1.2535  0.6361  0.3575
   97SAPS  H18Z 9741   2.625   3.862   8.242 -0.8476  0.3162 -0.5329
   98SAPS     N 9742   1.486   4.638   5.782 -0.1094  0.2849  0.3295
   98SAPS   HN1 9743   1.391   4.680   5.789 -0.4341 -0.5420  1.1004
   98SAPS   HN2 9744   1.491   4.546   5.734  2.8988 -0.8376  2.4787
   98SAPS   HN3 9745   1.506   4.611   5.880 -0.8755  0.3839  0.5171
   98SAPS   C12 9746   1.582   4.740   5.729  0.1201 -0.1801 -0.2985
   98SAPS  H12A 9747   1.683   4.703   5.727 -0.0568 -0.6525 -1.4172
   98SAPS   C13 9748   1.559   4.777   5.576  0.4463 -0.6014 -0.6955
   98SAPS  O13A 9749   1.455   4.740   5.520 -0.2682 -0.0053 -0.2266
   98SAPS  O13B 9750   1.649   4.853   5.525  0.4014 -0.3548 -0.5598
   98SAPS   C11 9751   1.588   4.865   5.821 -0.0986 -0.1577 -0.1017
   98SAPS  H11A 9752   1.492   4.921   5.817 -1.4168 -2.3713 -1.5168
   98SAPS  H11B 9753   1.663   4.942   5.792  1.2985 -1.3803  0.1928
   98SAPS     P 9754   1.561   4.910   6.077 -0.2042  0.2310  0.3052
   98SAPS   O13 9755   1.655   5.021   6.119 -0.3309 -0.1011 -0.2752
   98SAPS   O14 9756   1.419   4.951   6.054 -0.1601  0.3798 -0.3842
   98SAPS   O12 9757   1.621   4.836   5.956  0.0228  0.6621  0.3875
   98SAPS   O11 9758   1.572   4.795   6.181  0.8730 -0.0846 -0.2883
   98SAPS    C1 9759   1.466   4.731   6.246  0.1626 -0.6117 -0.9641
   98SAPS    HA 9760   1.374   4.720   6.185 -1.4742  0.8974  1.0765
   98SAPS    HB 9761   1.496   4.630   6.279 -1.5669 -1.7853 -2.7598
   98SAPS    C2 9762   1.415   4.812   6.375 -0.7463  0.3287 -0.2282
   98SAPS    HS 9763   1.416   4.922   6.359  0.8986  0.5954  1.4149
   98SAPS   O21 9764   1.498   4.780   6.491 -0.2665  0.2102  0.4708
   98SAPS   C21 9765   1.612   4.846   6.513 -0.4797  0.1457 -0.3797
   98SAPS   O22 9766   1.651   4.942   6.454 -0.5100  0.3561  0.5336
   98SAPS   C22 9767   1.688   4.776   6.631 -0.2380 -0.3880  0.4534
   98SAPS   H2R 9768   1.637   4.679   6.644  0.2245 -0.6725  0.2122
   98SAPS   H2S 9769   1.789   4.742   6.598  0.3975  1.4229  0.4293
   98SAPS    C3 9770   1.273   4.761   6.417  0.0102  0.4782  0.3729
   98SAPS    HX 9771   1.261   4.655   6.388 -0.3971  0.2062  1.5077
   98SAPS    HY 9772   1.204   4.826   6.358  0.8693  0.1744 -1.0157
   98SAPS   O31 9773   1.240   4.770   6.556  0.0950 -0.0972  0.4382
   98SAPS   C31 9774   1.218   4.889   6.607  0.3955  0.6386  0.7340
   98SAPS   O32 9775   1.229   4.994   6.542 -0.1806  0.3122  0.5422
   98SAPS   C32 9776   1.153   4.870   6.743 -0.2984 -0.6021 -0.1951
   98SAPS   H2X 9777   1.185   4.781   6.802 -0.9193  0.4223  1.7925
   98SAPS   H2Y 9778   1.043   4.862   6.726 -0.6755  1.1982  1.0958
   98SAPS   C23 9779   1.689   4.860   6.759 -0.4233  0.2178 -0.4663
   98SAPS   H3R 9780   1.592   4.913   6.766 -1.9512 -2.4243 -0.3363
   98SAPS   H3S 9781   1.763   4.942   6.767 -0.1728  0.1287 -1.7759
   98SAPS   C24 9782   1.697   4.771   6.886 -0.3775 -0.6519 -0.1556
   98SAPS   H4R 9783   1.620   4.691   6.877 -1.4182 -0.1557  2.9405
   98SAPS   H4S 9784   1.671   4.836   6.972 -0.1935 -0.6831 -0.0752
   98SAPS   C25 9785   1.843   4.718   6.900  0.5900  0.0665  0.2322
   98SAPS   H5R 9786   1.907   4.736   6.812 -0.3032  1.6850 -0.1416
   98SAPS   C26 9787   1.906   4.677   7.015  0.1690 -0.0557  0.4993
   98SAPS   H6R 9788   2.015   4.664   7.008  0.1755  0.4112 -0.4929
   98SAPS   C27 9789   1.849   4.663   7.150  0.1120  0.2731 -0.4198
   98SAPS   H7R 9790   1.836   4.760   7.203  1.1570  0.5364 -0.6178
   98SAPS   H7S 9791   1.933   4.622   7.210  1.0184 -1.3222 -2.6671
   98SAPS   C28 9792   1.733   4.569   7.173  0.5331 -0.0621  0.7060
   98SAPS   H8R 9793   1.711   4.500   7.091 -0.7868 -0.1899  1.1313
   98SAPS   C29 9794   1.667   4.540   7.287  0.3888 -0.0115 -0.2946
   98SAPS   H9R 9795   1.579   4.475   7.292  0.3345  0.1645  1.6970
   98SAPS  C210 9796   1.678   4.615   7.421 -0.4531  0.0725  0.4379
   98SAPS  H10R 9797   1.602   4.694   7.406  1.6077  1.8348 -1.5708
   98SAPS  H10S 9798   1.774   4.670   7.425 -0.6345  0.5557 -1.0980
   98SAPS  C211 9799   1.646   4.531   7.545  0.5568  0.3674 -0.0616
   98SAPS  H11R 9800   1.570   4.453   7.532  0.6032  0.2219  0.4856
   98SAPS  C212 9801   1.694   4.544   7.672  0.6251 -0.3505 -0.2062
   98SAPS  H12R 9802   1.652   4.476   7.748  1.7945 -1.4087 -0.4718
   98SAPS  C213 9803   1.797   4.644   7.712  0.4552  0.1345 -0.3546
   98SAPS  H13R 9804   1.751   4.731   7.763 -1.0606 -1.3544  0.9840
   98SAPS  H13S 9805   1.839   4.692   7.621 -1.9517 -0.8509 -2.0923
   98SAPS  C214 9806   1.909   4.587   7.801 -0.1954 -0.7564  0.1007
   98SAPS  H14R 9807   1.988   4.541   7.740  0.6961 -0.4715  1.0084
   98SAPS  C215 9808   1.916   4.587   7.937 -0.4083 -0.4063 -1.3354
   98SAPS  H15R 9809   1.993   4.533   7.993 -0.4568  1.5792  0.8078
   98SAPS  C216 9810   1.816   4.645   8.028  0.1623 -0.3545  0.3579
   98SAPS  H16R 9811   1.720   4.665   7.974  0.0709  0.0918  0.6838
   98SAPS  H16S 9812   1.863   4.736   8.071 -0.6308 -0.5668  1.7537
   98SAPS  C217 9813   1.795   4.554   8.148  0.3499 -0.1761  0.5999
   98SAPS  H17R 9814   1.798   4.447   8.119 -1.8762 -0.5802  1.6484
   98SAPS  H17S 9815   1.698   4.572   8.199 -0.0389  2.4973 -0.8920
   98SAPS  C218 9816   1.906   4.588   8.261  0.0374 -0.0284  0.4115
   98SAPS  H18R 9817   2.002   4.605   8.208 -0.1513 -0.8007 -0.1955
   98SAPS  H18S 9818   1.906   4.503   8.333 -1.0826  0.6194  1.1965
   98SAPS  C219 9819   1.879   4.713   8.337 -1.0363  0.6329 -0.2006
   98SAPS  H19R 9820   1.834   4.789   8.268  0.7968  1.7054 -0.2850
   98SAPS  H19S 9821   1.975   4.756   8.372 -1.0750 -0.3954  1.2677
   98SAPS  C220 9822   1.791   4.698   8.460 -0.1350  0.2007 -0.3973
   98SAPS  H20R 9823   1.833   4.637   8.543  0.5199  1.6274  0.3533
   98SAPS  H20S 9824   1.690   4.661   8.431  0.6409 -1.6929 -0.8331
   98SAPS  H20T 9825   1.778   4.797   8.509  1.4890  0.3139 -0.1416
   98SAPS   C33 9826   1.153   4.997   6.838  0.1775  0.2560  0.0481
   98SAPS   H3X 9827   1.084   4.985   6.924  2.7430 -0.2156  2.1886
   98SAPS   H3Y 9828   1.106   5.076   6.776  0.1845 -0.8877 -1.4877
   98SAPS   C34 9829   1.291   5.025   6.901 -0.0324  0.9768  0.4198
   98SAPS   H4X 9830   1.277   5.125   6.947  0.1651  1.8193 -1.2613
   98SAPS   H4Y 9831   1.363   5.023   6.816  0.1607 -0.9603  0.5780
   98SAPS   C35 9832   1.323   4.936   7.020  0.0333  1.0119 -0.0711
   98SAPS   H5X 9833   1.364   4.837   6.990 -0.6284  0.4449  0.8129
   98SAPS   H5Y 9834   1.229   4.926   7.080 -0.7943  1.8873 -1.1858
   98SAPS   C36 9835   1.424   5.006   7.109  0.1700 -0.4116 -0.2927
   98SAPS   H6X 9836   1.382   5.108   7.105  0.5657 -0.2805 -2.6152
   98SAPS   H6Y 9837   1.525   5.008   7.062  0.3227  0.8358  0.0583
   98SAPS   C37 9838   1.441   4.935   7.242 -0.3475  0.6229 -0.3130
   98SAPS   H7X 9839   1.536   4.950   7.297 -1.5911 -2.4547  3.0163
   98SAPS   H7Y 9840   1.438   4.824   7.232  1.3633  0.4619  0.6075
   98SAPS   C38 9841   1.328   4.971   7.345 -0.0055  0.0123  0.1283
   98SAPS   H8X 9842   1.228   4.938   7.309  0.5614  0.0328 -1.5336
   98SAPS   H8Y 9843   1.309   5.078   7.369 -0.4154  0.2798 -1.2841
   98SAPS   C39 9844   1.342   4.899   7.484  0.6913 -0.6159 -0.5732
   98SAPS   H9X 9845   1.364   4.791   7.466  2.3170 -0.4271  0.0748
   98SAPS   H9Y 9846   1.241   4.902   7.529  0.8939 -1.3666 -0.0395
   98SAPS  C310 9847   1.445   4.969   7.569 -0.3763  0.9287 -0.6640
   98SAPS  H10X 9848   1.406   5.066   7.606 -0.0084  0.8285  0.0156
   98SAPS  H10Y 9849   1.541   4.984   7.515  0.8107  1.3480  1.4460
   98SAPS  C311 9850   1.492   4.895   7.696 -0.4546 -0.0116  0.6059
   98SAPS  H11X 9851   1.585   4.948   7.725  0.0550 -0.4210 -0.2284
   98SAPS  H11Y 9852   1.530   4.792   7.676 -0.5681  0.0701 -0.0408
   98SAPS  C312 9853   1.385   4.897   7.801 -0.1439  0.6616 -0.0773
   98SAPS  H12X 9854   1.293   4.855   7.754  0.9052  0.7796 -2.4045
   98SAPS  H12Y 9855   1.357   4.996   7.842 -3.8176 -0.3223  0.1588
   98SAPS  C313 9856   1.431   4.812   7.924  0.9690  0.4442 -0.4840
   98SAPS  H13X 9857   1.532   4.856   7.945  0.3503  1.8772 -0.3880
   98SAPS  H13Y 9858   1.443   4.706   7.896 -1.6941 -0.7792  2.4137
   98SAPS  C314 9859   1.335   4.830   8.048 -0.6133  0.1730  0.7678
   98SAPS  H14X 9860   1.249   4.760   8.044 -1.7914  1.6375 -1.4275
   98SAPS  H14Y 9861   1.287   4.930   8.054 -0.2053  0.4339 -0.1287
   98SAPS  C315 9862   1.409   4.804   8.180 -0.4065 -0.2922 -0.6033
   98SAPS  H15X 9863   1.490   4.880   8.192  0.3578 -1.4600  2.5574
   98SAPS  H15Y 9864   1.452   4.702   8.178  0.8611  0.2223 -0.8057
   98SAPS  C316 9865   1.326   4.826   8.307 -0.1274 -0.1718 -0.3419
   98SAPS  H16X 9866   1.230   4.772   8.294  0.1766 -0.1662 -3.2635
   98SAPS  H16Y 9867   1.310   4.935   8.320 -0.2837  0.2971 -3.6446
   98SAPS  C317 9868   1.388   4.776   8.436  0.2460 -0.2602  0.4072
   98SAPS  H17X 9869   1.441   4.682   8.411  0.0978  0.0818 -1.3568
   98SAPS  H17Y 9870   1.309   4.733   8.500 -1.7682 -0.8278 -2.2542
   98SAPS  C318 9871   1.468   4.886   8.502 -0.1312  0.3351  0.9903
   98SAPS  H18X 9872   1.546   4.926   8.434 -1.8096  1.5934 -0.2852
   98SAPS  H18Y 9873   1.514   4.840   8.591  1.0335 -0.0362  0.2122
   98SAPS  H18Z 9874   1.406   4.970   8.540 -0.8759 -0.5072  1.6697
   99SAPS     N 9875   1.976   0.850   6.080  0.1308  0.0521  0.0372
   99SAPS   HN1 9876   2.078   0.855   6.096  0.6052  0.8567 -2.6581
   99SAPS   HN2 9877   1.949   0.907   5.997 -2.6785 -0.2622  0.6193
   99SAPS   HN3 9878   1.932   0.885   6.168  3.9276  1.6915  1.5188
   99SAPS   C12 9879   1.957   0.704   6.067  0.5215  0.4021  0.3459
   99SAPS  H12A 9880   1.968   0.677   5.963  0.2037  2.3164 -0.2186
   99SAPS   C13 9881   2.065   0.623   6.149  0.0050  0.1542 -1.1283
   99SAPS  O13A 9882   2.156   0.680   6.212 -0.5495  0.6141 -0.3200
   99SAPS  O13B 9883   2.076   0.499   6.130  0.1281  0.2154  0.4246
   99SAPS   C11 9884   1.815   0.675   6.129  0.3876 -0.2836  0.8790
   99SAPS  H11A 9885   1.813   0.701   6.237 -0.8305 -1.8312  1.2624
   99SAPS  H11B 9886   1.791   0.567   6.116 -1.5940  0.2780 -0.6248
   99SAPS     P 9887   1.558   0.716   6.074 -0.0129  0.1472 -0.3821
   99SAPS   O13 9888   1.508   0.756   5.940 -0.3205 -0.1661 -0.2711
   99SAPS   O14 9889   1.554   0.570   6.105 -0.2866  0.0338  0.0080
   99SAPS   O12 9890   1.705   0.755   6.078 -0.3377  0.0170 -0.7961
   99SAPS   O11 9891   1.490   0.801   6.183  0.2403  0.0128 -0.0275
   99SAPS    C1 9892   1.453   0.936   6.156 -0.0028 -0.1581  0.4175
   99SAPS    HA 9893   1.539   1.001   6.130 -0.1119 -0.5996 -1.1057
   99SAPS    HB 9894   1.384   0.944   6.069  2.6827  2.5432 -1.6631
   99SAPS    C2 9895   1.405   1.021   6.281  0.2144  0.1018  0.0526
   99SAPS    HS 9896   1.439   1.125   6.263 -3.1258  0.9815 -2.2697
   99SAPS   O21 9897   1.455   0.972   6.409 -0.6552 -0.1862  0.1623
   99SAPS   C21 9898   1.582   0.958   6.413  0.0410  0.1156 -0.1247
   99SAPS   O22 9899   1.663   1.017   6.343  0.3000 -0.1231 -0.1793
   99SAPS   C22 9900   1.613   0.872   6.530  0.7414  0.1590 -0.0632
   99SAPS   H2R 9901   1.615   0.935   6.622  1.0577  0.5225 -0.3147
   99SAPS   H2S 9902   1.530   0.799   6.535  2.3416 -1.6936  0.9279
   99SAPS    C3 9903   1.256   1.025   6.300  1.3766 -0.8068 -0.1779
   99SAPS    HX 9904   1.227   0.921   6.326 -0.2786 -0.3477 -0.0826
   99SAPS    HY 9905   1.211   1.056   6.203 -0.2974  2.4946  1.4854
   99SAPS   O31 9906   1.211   1.118   6.402  0.3188  0.0363 -0.3407
   99SAPS   C31 9907   1.083   1.124   6.410 -0.3136 -0.4631  0.7143
   99SAPS   O32 9908   1.011   1.080   6.323 -0.1725 -0.3812 -0.0842
   99SAPS   C32 9909   1.046   1.218   6.524 -0.4383  0.2448  0.1711
   99SAPS   H2X 9910   1.096   1.315   6.502 -0.0753  0.5988  2.3523
   99SAPS   H2Y 9911   1.090   1.182   6.619  1.1483  0.3669 -0.4764
   99SAPS   C23 9912   1.750   0.804   6.521  0.2101  0.2942 -0.5720
   99SAPS   H3R 9913   1.831   0.879   6.533  0.9613 -0.5512 -0.2016
   99SAPS   H3S 9914   1.759   0.748   6.425 -0.8054  1.3146 -1.2753
   99SAPS   C24 9915   1.783   0.721   6.644  0.3960 -0.3542 -0.6548
   99SAPS   H4R 9916   1.769   0.792   6.728  1.8718 -0.2101 -0.5002
   99SAPS   H4S 9917   1.890   0.690   6.640  0.1024 -1.7673  0.9411
   99SAPS   C25 9918   1.708   0.590   6.661  1.0507  0.1408  0.3620
   99SAPS   H5R 9919   1.729   0.515   6.584 -0.6768 -0.1753  0.1586
   99SAPS   C26 9920   1.617   0.552   6.756 -0.1257  0.3191 -0.1333
   99SAPS   H6R 9921   1.574   0.452   6.745 -0.6485  0.4236  0.8209
   99SAPS   C27 9922   1.567   0.628   6.880 -0.1063 -0.4132 -0.2586
   99SAPS   H7R 9923   1.597   0.734   6.862 -0.7559 -0.0076  0.9217
   99SAPS   H7S 9924   1.616   0.589   6.972  2.1198  1.2920 -0.6342
   99SAPS   C28 9925   1.414   0.616   6.878 -0.0928  0.1000  0.3700
   99SAPS   H8R 9926   1.370   0.643   6.781  1.7520  0.4734 -0.4005
   99SAPS   C29 9927   1.326   0.581   6.977  0.0410  0.2988  0.5361
   99SAPS   H9R 9928   1.221   0.584   6.945 -0.0482  1.1169  0.9024
   99SAPS  C210 9929   1.354   0.536   7.120  0.4691 -0.0529  0.1288
   99SAPS  H10R 9930   1.450   0.480   7.130  0.9801  0.9022  0.7146
   99SAPS  H10S 9931   1.279   0.455   7.137  0.0457  0.0129 -1.2780
   99SAPS  C211 9932   1.347   0.646   7.220  0.6347 -0.0410 -0.3609
   99SAPS  H11R 9933   1.395   0.739   7.186  2.3766  0.4863  3.1393
   99SAPS  C212 9934   1.286   0.639   7.336 -0.4169 -0.0383  0.3647
   99SAPS  H12R 9935   1.279   0.729   7.399  0.1190 -0.6564  1.3275
   99SAPS  C213 9936   1.221   0.517   7.400  0.0279 -0.8709  0.1283
   99SAPS  H13R 9937   1.296   0.437   7.418  1.7953  0.9860  1.5188
   99SAPS  H13S 9938   1.158   0.467   7.323 -0.5632 -1.2020  0.8106
   99SAPS  C214 9939   1.125   0.532   7.516  0.5960 -0.6727 -0.5178
   99SAPS  H14R 9940   1.020   0.541   7.483  0.7604  0.8466 -0.6921
   99SAPS  C215 9941   1.140   0.524   7.657 -0.6087  0.2514  0.0469
   99SAPS  H15R 9942   1.052   0.529   7.723  0.0803  0.5084  0.9777
   99SAPS  C216 9943   1.272   0.509   7.731  0.4492  0.0830 -0.3660
   99SAPS  H16R 9944   1.354   0.474   7.666  0.6280  0.4439 -0.3341
   99SAPS  H16S 9945   1.265   0.423   7.801  0.2305 -0.6093 -1.2190
   99SAPS  C217 9946   1.313   0.647   7.793  0.0828 -0.1072  0.1065
   99SAPS  H17R 9947   1.324   0.720   7.710 -0.7793 -2.2056 -1.9812
   99SAPS  H17S 9948   1.418   0.647   7.828  0.3545  0.3931 -0.6646
   99SAPS  C218 9949   1.210   0.710   7.893 -0.2528 -0.4109  0.1208
   99SAPS  H18R 9950   1.107   0.729   7.856 -1.2835 -0.6972  2.6106
   99SAPS  H18S 9951   1.257   0.806   7.925 -2.1809  1.0685 -1.2513
   99SAPS  C219 9952   1.189   0.624   8.013 -0.0069  0.0133 -0.0228
   99SAPS  H19R 9953   1.288   0.612   8.062  0.3597 -0.6863 -0.9143
   99SAPS  H19S 9954   1.154   0.525   7.976 -0.1469 -0.4897  1.3967
   99SAPS  C220 9955   1.094   0.683   8.120 -0.0663  0.6458  0.7305
   99SAPS  H20R 9956   1.149   0.773   8.156  0.7135  1.8431 -2.9435
   99SAPS  H20S 9957   1.083   0.621   8.211  1.0127 -1.3132 -0.4119
   99SAPS  H20T 9958   0.993   0.711   8.082 -0.1009 -0.1699  0.2126
   99SAPS   C33 9959   0.890   1.221   6.541 -0.2074 -0.1811  0.3212
   99SAPS   H3X 9960   0.845   1.120   6.549 -2.4639  0.5583 -1.6671
   99SAPS   H3Y 9961   0.849   1.261   6.446  1.3539 -1.3780 -0.9078
   99SAPS   C34 9962   0.853   1.309   6.661  0.3011 -0.4122  0.3118
   99SAPS   H4X 9963   0.845   1.413   6.623  0.9933 -0.2639  0.5599
   99SAPS   H4Y 9964   0.928   1.295   6.741 -0.4956  1.3038  1.4101
   99SAPS   C35 9965   0.712   1.269   6.712  0.0706 -0.5312  0.2294
   99SAPS   H5X 9966   0.706   1.167   6.757 -1.5675 -0.9124 -0.7760
   99SAPS   H5Y 9967   0.640   1.271   6.628  0.7783  1.3234 -0.3748
   99SAPS   C36 9968   0.656   1.368   6.821  0.0059  0.4302 -0.3485
   99SAPS   H6X 9969   0.557   1.342   6.864 -0.4417 -0.3257 -1.7561
   99SAPS   H6Y 9970   0.647   1.472   6.783  0.3710 -0.1097 -1.9988
   99SAPS   C37 9971   0.755   1.369   6.939  0.1417  0.0652  1.2341
   99SAPS   H7X 9972   0.848   1.420   6.908 -0.2049  0.0173  0.0917
   99SAPS   H7Y 9973   0.764   1.260   6.958 -2.5550 -0.4582  0.0275
   99SAPS   C38 9974   0.704   1.436   7.062 -0.1990  0.4048  0.2906
   99SAPS   H8X 9975   0.627   1.373   7.112  1.2641 -2.7388 -1.1194
   99SAPS   H8Y 9976   0.662   1.536   7.038  1.4154  1.1760  0.5191
   99SAPS   C39 9977   0.803   1.473   7.172 -0.7117  0.1552 -0.3762
   99SAPS   H9X 9978   0.865   1.559   7.139 -0.6891  0.0526 -0.5989
   99SAPS   H9Y 9979   0.850   1.381   7.211 -0.0640 -0.4565 -2.4937
   99SAPS  C310 9980   0.726   1.524   7.295  0.1908 -0.0440 -0.2824
   99SAPS  H10X 9981   0.641   1.459   7.326 -0.1852  0.0381 -1.1170
   99SAPS  H10Y 9982   0.690   1.628   7.285  1.6204  0.5964  0.8271
   99SAPS  C311 9983   0.823   1.530   7.417  1.0470  0.4892 -0.5473
   99SAPS  H11X 9984   0.911   1.591   7.388  1.2795 -0.5361 -2.1180
   99SAPS  H11Y 9985   0.852   1.424   7.435 -0.0144  0.2729 -0.0111
   99SAPS  C312 9986   0.752   1.591   7.540 -0.1658 -0.7334  0.3526
   99SAPS  H12X 9987   0.654   1.540   7.557 -1.1213  0.9134  0.0715
   99SAPS  H12Y 9988   0.730   1.699   7.521 -0.3507 -0.9592 -0.8038
   99SAPS  C313 9989   0.826   1.580   7.678 -0.4181 -0.1522  0.6134
   99SAPS  H13X 9990   0.909   1.652   7.662 -3.3290  3.2452 -0.3388
   99SAPS  H13Y 9991   0.874   1.481   7.697 -1.0872 -0.4962  0.5545
   99SAPS  C314 9992   0.751   1.643   7.795  0.3076  0.3712 -0.4339
   99SAPS  H14X 9993   0.662   1.583   7.826  0.7597  0.8083  1.8972
   99SAPS  H14Y 9994   0.712   1.738   7.753 -1.8337 -0.1897  0.1139
   99SAPS  C315 9995   0.833   1.660   7.930 -0.1334 -0.5140  0.6195
   99SAPS  H15X 9996   0.921   1.725   7.910 -0.6242 -0.1288 -0.3772
   99SAPS  H15Y 9997   0.862   1.558   7.961  1.1105 -0.4586 -0.2798
   99SAPS  C316 9998   0.745   1.722   8.049  0.4443 -0.2807  0.2043
   99SAPS  H16X 9999   0.669   1.641   8.058 -2.8139  2.4930 -0.4028
   99SAPS  H16Y10000   0.694   1.810   8.005  3.2161  2.5393  2.2190
   99SAPS  C31710001   0.825   1.771   8.169 -0.0313 -0.1695  0.1440
   99SAPS  H17X10002   0.746   1.811   8.236  0.1720 -0.1759  0.3893
   99SAPS  H17Y10003   0.897   1.851   8.142 -0.1214 -0.5245 -1.2382
   99SAPS  C31810004   0.885   1.656   8.245 -0.2217 -0.1352 -0.2229
   99SAPS  H18X10005   0.933   1.687   8.340  1.5701 -0.7404 -0.8932
   99SAPS  H18Y10006   0.957   1.608   8.175  0.5264  2.4623 -1.3667
   99SAPS  H18Z10007   0.802   1.587   8.268 -0.9387  0.7384 -0.1250
  100SAPS     N10008   3.823   4.437   6.441 -0.2561 -0.1109 -0.1791
  100SAPS   HN110009   3.722   4.463   6.450 -1.5661 -3.1546 -3.7200
  100SAPS   HN210010   3.867   4.409   6.531 -2.0527  0.1903  0.8508
  100SAPS   HN310011   3.877   4.521   6.413 -0.0559  0.1673  0.9922
  100SAPS   C1210012   3.845   4.344   6.333 -0.5668 -0.2933 -0.2581
  100SAPS  H12A10013   3.761   4.276   6.342 -0.9624  0.1868 -0.2730
  100SAPS   C1310014   3.828   4.402   6.195  0.2465 -0.0443  1.0129
  100SAPS  O13A10015   3.806   4.523   6.170 -0.4149  0.6889  0.0141
  100SAPS  O13B10016   3.827   4.315   6.100  0.4310  0.2736  0.3580
  100SAPS   C1110017   3.980   4.276   6.341  0.0869  0.1365  0.2194
  100SAPS  H11A10018   4.066   4.338   6.308  0.1099 -1.4211 -3.1624
  100SAPS  H11B10019   3.976   4.189   6.271 -1.2744  0.0503  0.3811
  100SAPS     P10020   4.033   4.076   6.492 -0.2408  0.3346  0.0841
  100SAPS   O1310021   3.921   3.994   6.443  0.1977 -0.2712 -0.3423
  100SAPS   O1410022   4.162   4.048   6.429 -0.2028 -0.1011  0.2497
  100SAPS   O1210023   4.009   4.230   6.472  0.0568  0.3979 -0.7212
  100SAPS   O1110024   4.049   4.051   6.646  0.1463  0.5433  0.1064
  100SAPS    C110025   4.046   4.160   6.738 -0.4031 -0.1748 -0.0379
  100SAPS    HA10026   4.090   4.124   6.834 -0.2800 -1.4408 -0.5583
  100SAPS    HB10027   4.115   4.242   6.708 -0.8566  0.1216 -0.2775
  100SAPS    C210028   3.901   4.213   6.776 -0.5227  0.5885 -0.4140
  100SAPS    HS10029   3.844   4.221   6.681 -2.8809  0.2956  0.8948
  100SAPS   O2110030   3.899   4.330   6.860 -0.3387 -0.5195  0.1605
  100SAPS   C2110031   3.939   4.440   6.788  0.8638  0.9958 -0.3962
  100SAPS   O2210032   3.977   4.439   6.672  0.0629 -0.2027  0.5785
  100SAPS   C2210033   3.934   4.556   6.882 -0.1246  0.1537  0.3458
  100SAPS   H2R10034   3.927   4.653   6.829  0.5899 -0.9405 -1.9076
  100SAPS   H2S10035   3.843   4.550   6.945 -0.2454 -1.1724  0.0874
  100SAPS    C310036   3.814   4.109   6.853 -0.0393  0.6627 -0.3367
  100SAPS    HX10037   3.835   4.006   6.819  1.3044  1.5057 -2.3211
  100SAPS    HY10038   3.706   4.120   6.830 -0.6675 -0.9128  1.6497
  100SAPS   O3110039   3.840   4.109   6.998 -0.1751  0.2463  1.3498
  100SAPS   C3110040   3.750   4.170   7.067  0.5288 -0.5736 -0.2883
  100SAPS   O3210041   3.652   4.223   7.024  0.6087 -0.3768  0.4703
  100SAPS   C3210042   3.777   4.147   7.218 -0.3001  0.2845  0.1280
  100SAPS   H2X10043   3.797   4.246   7.265  0.0282 -0.0850  0.7776
  100SAPS   H2Y10044   3.859   4.076   7.241 -0.6378 -0.6915 -1.5135
  100SAPS   C2310045   4.060   4.558   6.975  0.1151 -0.0666 -0.4155
  100SAPS   H3R10046   4.069   4.460   7.028 -1.8944 -1.3360 -2.2416
  100SAPS   H3S10047   4.033   4.624   7.061 -0.7482 -2.3629  1.1941
  100SAPS   C2410048   4.196   4.599   6.920  0.2973  0.6020  0.5700
  100SAPS   H4R10049   4.230   4.523   6.846 -0.1376  1.0598 -0.1065
  100SAPS   H4S10050   4.263   4.598   7.009  1.3789  2.5586 -0.1575
  100SAPS   C2510051   4.203   4.733   6.866  0.4478 -0.5461 -0.3802
  100SAPS   H5R10052   4.147   4.732   6.771 -1.1821  1.3232  0.4876
  100SAPS   C2610053   4.270   4.842   6.908  0.2002  0.4956 -0.4264
  100SAPS   H6R10054   4.261   4.930   6.842  0.0199 -0.8327 -2.2317
  100SAPS   C2710055   4.330   4.860   7.044 -0.3109 -0.6285 -0.0909
  100SAPS   H7R10056   4.410   4.937   7.044 -0.9627  0.0468 -0.1553
  100SAPS   H7S10057   4.383   4.766   7.072  0.8348  0.0920  0.2182
  100SAPS   C2810058   4.222   4.883   7.149 -0.4442 -0.4977  0.4151
  100SAPS   H8R10059   4.132   4.821   7.132 -1.0704  1.2547 -4.0824
  100SAPS   C2910060   4.219   4.967   7.256  0.4919  0.4369  0.1476
  100SAPS   H9R10061   4.124   4.978   7.311  0.7290 -1.2984  0.9755
  100SAPS  C21010062   4.318   5.065   7.313 -0.0391  0.4420 -0.1690
  100SAPS  H10R10063   4.274   5.142   7.379 -2.2660 -0.7854 -0.1188
  100SAPS  H10S10064   4.380   5.114   7.234 -0.5039 -1.1305 -1.5744
  100SAPS  C21110065   4.415   4.970   7.386  0.3419  0.1315  0.0769
  100SAPS  H11R10066   4.480   4.917   7.316 -0.8886  1.7548 -2.4335
  100SAPS  C21210067   4.440   4.948   7.512  0.4589 -0.8129 -0.0089
  100SAPS  H12R10068   4.515   4.878   7.551 -0.2993 -1.2825  0.6344
  100SAPS  C21310069   4.370   5.029   7.619  0.4505 -0.4664 -0.1067
  100SAPS  H13R10070   4.374   4.965   7.709  0.4576  0.0997  0.2944
  100SAPS  H13S10071   4.261   5.028   7.600  0.4836 -1.6018 -0.3136
  100SAPS  C21410072   4.427   5.169   7.643  0.3031 -0.6630 -0.0162
  100SAPS  H14R10073   4.470   5.224   7.557 -3.9226  0.9808 -1.3503
  100SAPS  C21510074   4.424   5.239   7.757  0.8047 -0.7589 -0.1049
  100SAPS  H15R10075   4.473   5.336   7.771 -0.4526 -0.4258  2.7094
  100SAPS  C21610076   4.385   5.188   7.896  0.2181 -0.0577  0.1299
  100SAPS  H16R10077   4.477   5.188   7.958 -0.3459 -0.0109  0.9702
  100SAPS  H16S10078   4.339   5.087   7.885 -0.6000 -0.1940  3.7967
  100SAPS  C21710079   4.280   5.272   7.962  0.1554 -0.4245 -0.5979
  100SAPS  H17R10080   4.191   5.257   7.898  1.1836 -2.1934 -1.6869
  100SAPS  H17S10081   4.308   5.380   7.964 -0.5730 -0.2314  0.7352
  100SAPS  C21810082   4.272   5.213   8.105  0.0653  0.1679  0.0183
  100SAPS  H18R10083   4.286   5.103   8.107 -0.1315  0.1314 -0.4538
  100SAPS  H18S10084   4.172   5.243   8.143  0.3491  0.9522  0.1682
  100SAPS  C21910085   4.366   5.278   8.209 -0.2004 -0.9982 -0.1842
  100SAPS  H19R10086   4.335   5.385   8.212  0.4050 -0.8313  0.2317
  100SAPS  H19S10087   4.472   5.271   8.175  0.4871 -1.5351  1.9198
  100SAPS  C22010088   4.355   5.224   8.354  0.0368  0.1730  0.2922
  100SAPS  H20R10089   4.247   5.227   8.378 -0.1308  0.0169 -0.4291
  100SAPS  H20S10090   4.423   5.274   8.426  1.5360 -2.3491  0.7633
  100SAPS  H20T10091   4.380   5.118   8.332 -1.8644 -0.0646 -0.9040
  100SAPS   C3310092   3.651   4.078   7.285 -0.4494 -0.2974 -0.0575
  100SAPS   H3X10093   3.624   3.986   7.230 -0.1344 -0.2540 -0.2888
  100SAPS   H3Y10094   3.572   4.156   7.283  1.6725  2.0193  0.2977
  100SAPS   C3410095   3.685   4.035   7.428 -0.2667  1.0819  0.7250
  100SAPS   H4X10096   3.591   3.998   7.474 -0.2629  1.2558  0.8767
  100SAPS   H4Y10097   3.728   4.121   7.484  1.1826  0.1656  1.0836
  100SAPS   C3510098   3.788   3.919   7.429  0.3760 -0.1191  0.2419
  100SAPS   H5X10099   3.893   3.949   7.412  1.5892 -2.8102  2.1404
  100SAPS   H5Y10100   3.766   3.849   7.346  0.8994  1.1490 -0.9901
  100SAPS   C3610101   3.791   3.840   7.561  0.9600  0.4728  0.1586
  100SAPS   H6X10102   3.689   3.833   7.604  0.8788  3.5359  0.6798
  100SAPS   H6Y10103   3.850   3.895   7.638  1.1102  0.4924  0.0292
  100SAPS   C3710104   3.859   3.707   7.538  0.5548 -0.0673 -0.1925
  100SAPS   H7X10105   3.963   3.732   7.509  0.0430 -0.4343 -2.5772
  100SAPS   H7Y10106   3.804   3.646   7.464 -1.2487 -0.5166  1.4303
  100SAPS   C3810107   3.863   3.619   7.667 -0.1356  0.0050 -0.1645
  100SAPS   H8X10108   3.757   3.597   7.692 -0.3033  1.4720  0.5615
  100SAPS   H8Y10109   3.903   3.668   7.759 -1.8430  0.6377  0.2861
  100SAPS   C3910110   3.936   3.486   7.653 -0.6849 -0.1260  0.4427
  100SAPS   H9X10111   4.041   3.516   7.636 -0.4580  0.5319  2.7154
  100SAPS   H9Y10112   3.894   3.426   7.569  0.2314  0.7606 -0.6720
  100SAPS  C31010113   3.932   3.394   7.780 -0.1787  0.1820 -0.1654
  100SAPS  H10X10114   3.980   3.444   7.866 -1.0627  1.1302 -0.2025
  100SAPS  H10Y10115   3.999   3.310   7.752  1.5810  0.9440  1.6212
  100SAPS  C31110116   3.803   3.336   7.832 -0.2088 -0.2849 -0.4125
  100SAPS  H11X10117   3.760   3.270   7.754  0.5104 -0.2412 -0.8519
  100SAPS  H11Y10118   3.731   3.418   7.851 -0.6935 -1.3001  2.8361
  100SAPS  C31210119   3.817   3.263   7.966 -0.3597  0.2100  0.7363
  100SAPS  H12X10120   3.872   3.323   8.042 -1.8890  1.0577  1.1967
  100SAPS  H12Y10121   3.878   3.170   7.952  0.0206  0.7533 -1.5675
  100SAPS  C31310122   3.681   3.233   8.028  0.2741  0.5117  0.6073
  100SAPS  H13X10123   3.636   3.146   7.975  2.0011 -0.6280  0.9382
  100SAPS  H13Y10124   3.626   3.328   8.011  1.5132  0.8066 -2.3600
  100SAPS  C31410125   3.679   3.200   8.178  0.3958 -0.1348 -0.3795
  100SAPS  H14X10126   3.775   3.175   8.229 -0.7288  1.2402  2.6857
  100SAPS  H14Y10127   3.604   3.121   8.198 -0.9219  0.8415 -1.2866
  100SAPS  C31510128   3.632   3.327   8.265 -0.0207  0.3669 -0.2034
  100SAPS  H15X10129   3.669   3.423   8.223 -0.0800  0.2166 -0.6043
  100SAPS  H15Y10130   3.664   3.314   8.371  1.0751  2.0339 -0.2854
  100SAPS  C31610131   3.481   3.338   8.259  0.2167  0.6910  0.5782
  100SAPS  H16X10132   3.433   3.246   8.300 -2.4878  1.4492 -0.6105
  100SAPS  H16Y10133   3.452   3.351   8.152  1.0893  0.6042  0.3240
  100SAPS  C31710134   3.423   3.447   8.339 -0.0948 -0.2239  0.5937
  100SAPS  H17X10135   3.498   3.476   8.416 -0.3649 -0.5331  0.9820
  100SAPS  H17Y10136   3.334   3.418   8.399 -0.1685 -2.3070 -0.4205
  100SAPS  C31810137   3.380   3.567   8.251  0.1470  0.1606  0.0179
  100SAPS  H18X10138   3.470   3.631   8.237  0.7418 -0.0503  2.3476
  100SAPS  H18Y10139   3.292   3.621   8.291  0.1767 -0.5178  1.0517
  100SAPS  H18Z10140   3.349   3.540   8.148 -1.4659  0.6742  0.3373
  101OSM      N10141   2.096   3.237  10.699  0.1404 -0.0922  0.0094
  101OSM    C1510142   2.009   3.166  10.600  0.4736  0.6206 -0.2971
  101OSM   H15A10143   1.991   3.230  10.515  1.4321  1.6569  0.2482
  101OSM   H15B10144   1.916   3.145  10.650  0.2706 -0.0485 -0.9478
  101OSM   H15C10145   2.066   3.081  10.565  2.7371  1.5322  0.8947
  101OSM    C1410146   2.119   3.129  10.803 -1.1096 -0.7730  0.5802
  101OSM   H14A10147   2.027   3.094  10.848 -0.7293  0.8909  2.7982
  101OSM   H14B10148   2.179   3.170  10.883  1.2271  0.2246 -1.5486
  101OSM   H14C10149   2.176   3.045  10.765 -1.1764 -0.9228  0.8093
  101OSM    C1310150   2.224   3.280  10.642 -0.1401  0.1256 -0.1315
  101OSM   H13A10151   2.200   3.353  10.566 -3.6743 -0.1452  0.5510
  101OSM   H13B10152   2.278   3.193  10.609 -2.7239 -2.3597  1.6957
  101OSM   H13C10153   2.285   3.329  10.717  0.8794 -1.0669 -0.1479
  101OSM    C1210154   2.025   3.357  10.760  0.0761  1.5069 -0.3853
  101OSM   H12A10155   2.095   3.391  10.835 -0.0524  3.3112 -1.0294
  101OSM   H12B10156   1.941   3.308  10.808  0.7655  1.7288  1.0994
  101OSM    C1110157   1.992   3.471  10.659 -0.0896 -0.2587 -0.7534
  101OSM   H11A10158   1.883   3.480  10.677 -0.2000 -1.4925 -0.7375
  101OSM   H11B10159   2.034   3.442  10.560 -0.2610  0.7241 -1.1280
  101OSM      P10160   2.120   3.684  10.606 -0.0515  0.2538  0.4576
  101OSM    O1310161   2.165   3.804  10.684  0.0762  0.0524  0.4902
  101OSM    O1410162   2.225   3.599  10.534  0.0110  0.2950  0.0985
  101OSM    O1110163   1.997   3.714  10.507  0.3685  0.1899  0.6159
  101OSM    O1210164   2.045   3.593  10.714 -0.3936 -0.0267 -0.0544
  101OSM    C1S10165   2.021   3.803  10.396 -0.3480  0.3826 -0.2745
  101OSM    H1S10166   2.108   3.770  10.336 -1.5767 -1.1338 -1.2591
  101OSM    H1T10167   2.030   3.904  10.444  0.6024  0.1343  0.1117
  101OSM     NF10168   1.940   3.865  10.166 -0.1386  0.2956 -0.1488
  101OSM    HNF10169   1.927   3.963  10.157  0.4669  0.4360  0.3991
  101OSM    C2S10170   1.898   3.814  10.294 -0.1651 -0.7735  0.1644
  101OSM    H2S10171   1.854   3.715  10.269  0.2444 -0.7986 -0.4913
  101OSM    C3S10172   1.779   3.887  10.356  0.1416 -0.3779  0.1693
  101OSM    H3S10173   1.793   3.997  10.361  1.6353 -0.5276 -0.2574
  101OSM     O310174   1.747   3.840  10.487  0.0508 -0.0002  0.4005
  101OSM    HO310175   1.821   3.785  10.512  0.3431 -0.8335 -2.0393
  101OSM    C4S10176   1.666   3.867  10.259  0.2166 -0.0698  0.0643
  101OSM    H4S10177   1.667   3.955  10.193  0.2793 -0.1683 -0.0654
  101OSM    C5S10178   1.564   3.784  10.248  0.1471 -0.3583  0.0816
  101OSM    H5S10179   1.540   3.712  10.328 -0.5871  0.4368  0.5971
  101OSM    C6S10180   1.447   3.797  10.152  0.0607  0.3326 -0.1042
  101OSM    H6S10181   1.356   3.819  10.211 -0.3429 -1.2331 -0.0784
  101OSM    H6T10182   1.416   3.704  10.100 -0.8168  0.7591 -0.3627
  101OSM    C7S10183   1.450   3.903  10.042  0.0533 -0.0081  0.1941
  101OSM    H7S10184   1.478   4.003  10.080 -0.0354  0.4197 -0.8334
  101OSM    H7T10185   1.349   3.919   9.998  0.3355 -0.1572 -0.5275
  101OSM    C8S10186   1.544   3.861   9.928  0.1530 -0.5809  0.0740
  101OSM    H8S10187   1.505   3.762   9.895  1.6271 -1.1587 -0.0368
  101OSM    H8T10188   1.648   3.841   9.963  1.3547  3.2992 -0.8382
  101OSM    C9S10189   1.540   3.954   9.804 -0.4962 -0.1361 -0.1768
  101OSM    H9S10190   1.594   4.049   9.825  0.0939 -0.8128  1.5086
  101OSM    H9T10191   1.433   3.978   9.787 -0.3753  1.0998  0.6664
  101OSM   C10S10192   1.601   3.877   9.678  0.4705  0.2346 -0.8788
  101OSM   H10S10193   1.541   3.787   9.654  0.6578  0.0554 -0.6808
  101OSM   H10T10194   1.702   3.846   9.712  0.4091  0.7983 -0.1586
  101OSM   C11S10195   1.625   3.957   9.557 -0.4546 -0.5001  1.0960
  101OSM   H11S10196   1.700   4.036   9.581 -1.0730  0.7084 -0.7218
  101OSM   H11T10197   1.530   4.008   9.530  1.1838  3.0024  1.3158
  101OSM   C12S10198   1.678   3.865   9.448  0.2492  0.1461  0.5447
  101OSM   H12S10199   1.599   3.790   9.430  0.8605 -0.0360 -1.6880
  101OSM   H12T10200   1.766   3.807   9.483 -0.0790 -1.6703 -1.4706
  101OSM   C13S10201   1.717   3.948   9.322 -0.5221  0.1459 -0.0012
  101OSM   H13S10202   1.772   4.038   9.357 -1.2001  0.4675  0.2514
  101OSM   H13T10203   1.628   3.985   9.267  0.4790  0.1134 -1.6976
  101OSM   C14S10204   1.806   3.871   9.230 -0.5294  0.0409 -0.1126
  101OSM   H14S10205   1.743   3.787   9.192 -4.2224  1.3626  2.4916
  101OSM   H14T10206   1.901   3.834   9.274  1.5340 -1.8840 -5.3409
  101OSM   C15S10207   1.856   3.951   9.103 -0.3935  0.1692 -0.9487
  101OSM   H15S10208   1.934   3.896   9.046  0.1826 -1.8019  1.5753
  101OSM   H15T10209   1.914   4.042   9.130  2.4890 -1.5051 -1.1309
  101OSM   C16S10210   1.747   3.990   9.003  0.1089  0.0125 -0.6020
  101OSM   H16S10211   1.777   4.087   8.956 -2.8721  1.9784  1.1871
  101OSM   H16T10212   1.651   4.017   9.053 -1.5716 -3.0503 -1.8728
  101OSM   C17S10213   1.714   3.876   8.904  0.1836 -0.5853  0.0328
  101OSM   H17S10214   1.693   3.781   8.957  2.2024 -1.5669 -0.8078
  101OSM   H17T10215   1.801   3.866   8.835  2.3746  1.4901  2.2887
  101OSM   C18S10216   1.601   3.914   8.808  0.1487 -0.3390 -0.2457
  101OSM   H18S10217   1.507   3.935   8.865 -0.5568  2.3836 -2.2162
  101OSM   H18T10218   1.587   3.825   8.742 -2.3263 -0.2505  0.0581
  101OSM   H18U10219   1.622   4.003   8.747  0.3944 -1.5382 -1.9837
  101OSM    C1F10220   2.020   3.795  10.080  0.3018  0.3253  0.9578
  101OSM     OF10221   2.048   3.685  10.110 -0.1135 -0.4181 -0.1492
  101OSM    C2F10222   2.057   3.846   9.938 -0.2293  0.3556 -0.6019
  101OSM    H2F10223   2.015   3.763   9.877  2.2270 -1.7221  0.3608
  101OSM    H2G10224   2.166   3.824   9.934  0.0918  0.8598  2.6122
  101OSM    C3F10225   2.024   3.989   9.903  0.0640 -0.4133 -0.5513
  101OSM    H3F10226   2.091   4.046   9.971  0.0057  0.6140 -1.3214
  101OSM    H3G10227   1.918   4.012   9.927 -0.2517 -1.3435 -0.9840
  101OSM    C4F10228   2.055   4.017   9.759  0.2763  0.1731 -0.3373
  101OSM    H4F10229   1.998   3.951   9.690  0.1293 -1.3364  1.1520
  101OSM    H4G10230   2.165   4.010   9.750  0.5686  2.6891  0.5091
  101OSM    C5F10231   2.002   4.155   9.722 -0.2391  0.8032  0.0364
  101OSM    H5F10232   2.058   4.234   9.777 -0.2318  0.6623  0.2329
  101OSM    H5G10233   1.901   4.170   9.765 -0.1366 -1.2301  1.1423
  101OSM    C6F10234   2.009   4.196   9.575 -0.0701 -0.4466  0.4922
  101OSM    H6F10235   1.976   4.301   9.565  1.7158  0.1728  0.7340
  101OSM    H6G10236   1.941   4.131   9.516  0.4131  1.2146 -2.0355
  101OSM    C7F10237   2.148   4.162   9.512  0.4930  0.1210  0.6334
  101OSM    H7F10238   2.187   4.065   9.549 -1.9622 -0.8832  0.7811
  101OSM    H7G10239   2.222   4.237   9.547  1.2542 -0.9852  1.4516
  101OSM    C8F10240   2.148   4.153   9.354  0.0985 -0.4736  0.3661
  101OSM    H8F10241   2.083   4.070   9.321 -0.7026  0.4682 -0.4859
  101OSM    H8G10242   2.249   4.120   9.322 -0.2022 -1.9235  0.8237
  101OSM    C9F10243   2.094   4.280   9.291 -0.0712 -0.8382  0.7263
  101OSM    H9F10244   2.015   4.323   9.354  0.5001  0.3496  0.6548
  101OSM   C10F10245   2.129   4.331   9.171  0.2016  0.1780  0.0210
  101OSM   H10F10246   2.086   4.430   9.148 -3.4040 -1.2134  0.0861
  101OSM   C11F10247   2.236   4.273   9.080 -0.5000 -0.1226 -0.8001
  101OSM   H11F10248   2.257   4.168   9.107 -0.7772 -0.6218 -2.3785
  101OSM   H11G10249   2.326   4.335   9.097  0.0903 -1.4913  1.3103
  101OSM   C12F10250   2.176   4.274   8.941  0.6328  0.4505  0.9065
  101OSM   H12F10251   2.095   4.198   8.946 -0.5870  1.6702  0.0420
  101OSM   H12G10252   2.256   4.221   8.884  2.6705  0.5549  3.4823
  101OSM   C13F10253   2.135   4.417   8.886 -0.5215  0.4776 -0.0936
  101OSM   H13F10254   2.079   4.473   8.964 -1.2182  1.5284 -1.3147
  101OSM   H13G10255   2.065   4.393   8.804 -0.2144 -1.8001  0.2415
  101OSM   C14F10256   2.259   4.494   8.842  0.6852 -0.3505 -0.1312
  101OSM   H14F10257   2.302   4.440   8.755  1.3440 -0.6647  0.3797
  101OSM   H14G10258   2.332   4.497   8.926 -1.1315 -2.0202  1.6524
  101OSM   C15F10259   2.218   4.635   8.779 -0.1274 -0.1636  0.6035
  101OSM   H15F10260   2.171   4.698   8.858 -1.2952 -0.8832  0.4999
  101OSM   H15G10261   2.134   4.624   8.707  1.4841 -0.4920 -1.3280
  101OSM   C16F10262   2.330   4.716   8.725 -0.4207  0.4109 -0.3050
  101OSM   H16F10263   2.287   4.799   8.664 -0.7496  0.7196  0.3325
  101OSM   H16G10264   2.396   4.656   8.660 -0.6600  0.0529 -0.2157
  101OSM   C17F10265   2.420   4.774   8.832 -0.9252 -0.4140  0.5851
  101OSM   H17F10266   2.433   4.692   8.906  1.3968 -0.5238  0.1301
  101OSM   H17G10267   2.374   4.860   8.885 -0.9303  0.3787 -0.6661
  101OSM   C18F10268   2.557   4.821   8.774 -0.2662  0.1388 -0.0533
  101OSM   H18F10269   2.622   4.831   8.864 -4.0443  0.3781  2.8919
  101OSM   H18G10270   2.545   4.915   8.715  0.4217  0.4781  0.3289
  101OSM   H18H10271   2.606   4.746   8.708 -1.3955  0.9067 -1.8530
  102OSM      N10272   3.193   0.842  10.853 -0.1686 -0.2271 -0.2263
  102OSM    C1510273   3.284   0.915  10.757  0.2902 -0.1998 -0.1993
  102OSM   H15A10274   3.269   1.021  10.742 -0.5194 -0.4481 -1.2382
  102OSM   H15B10275   3.278   0.882  10.655  1.3885  0.8486 -0.6286
  102OSM   H15C10276   3.388   0.913  10.788  0.4309 -2.3195 -0.6428
  102OSM    C1410277   3.185   0.698  10.807 -0.2382  0.5166 -0.1570
  102OSM   H14A10278   3.158   0.633  10.889  1.1904  0.7909  0.5797
  102OSM   H14B10279   3.286   0.664  10.785 -0.6721 -1.9735  1.2345
  102OSM   H14C10280   3.122   0.679  10.722 -0.3519 -0.6098  0.1616
  102OSM    C1310281   3.250   0.845  10.995 -0.8704  0.0238 -0.2969
  102OSM   H13A10282   3.181   0.785  11.053  0.0268 -1.0220 -0.2872
  102OSM   H13B10283   3.254   0.943  11.038 -1.5705  0.9734 -2.2680
  102OSM   H13C10284   3.343   0.792  11.005 -0.9994 -0.6931 -2.3464
  102OSM    C1210285   3.057   0.916  10.847  0.1960  0.6202  0.3730
  102OSM   H12A10286   3.067   0.989  10.927  0.6642  1.6484 -0.6011
  102OSM   H12B10287   2.985   0.852  10.896 -0.9880  2.8717  1.7494
  102OSM    C1110288   2.996   0.957  10.709  0.1391 -0.3546 -0.4276
  102OSM   H11A10289   3.056   1.031  10.653  0.0741 -0.6263 -0.8585
  102OSM   H11B10290   2.904   1.014  10.732  0.3957 -0.1808  0.1907
  102OSM      P10291   2.859   0.751  10.655 -0.1613  0.3860 -0.0679
  102OSM    O1310292   2.905   0.622  10.599  0.9936  0.2286  0.5123
  102OSM    O1410293   2.817   0.763  10.801 -0.5529  0.3932  0.3678
  102OSM    O1110294   2.744   0.807  10.555 -0.3303  0.1488 -0.0238
  102OSM    O1210295   2.977   0.850  10.626  0.6324 -0.0908 -0.1100
  102OSM    C1S10296   2.773   0.892  10.444  0.2223 -0.9317  0.3152
  102OSM    H1S10297   2.873   0.941  10.446  0.0576 -0.5188 -0.6309
  102OSM    H1T10298   2.702   0.977  10.454  3.8257  2.2280  1.7900
  102OSM     NF10299   2.790   0.918  10.211  0.4861 -0.6306  0.5437
  102OSM    HNF10300   2.710   0.924  10.151  0.1057 -0.7339  1.0402
  102OSM    C2S10301   2.771   0.819  10.312 -0.3724  0.4778  0.4956
  102OSM    H2S10302   2.860   0.752  10.310  0.2953  1.3406 -1.2179
  102OSM    C3S10303   2.647   0.724  10.303 -0.1099 -0.2948  0.0029
  102OSM    H3S10304   2.555   0.783  10.318  0.3442  0.7267 -1.0128
  102OSM     O310305   2.643   0.613  10.388 -0.0260 -0.0708 -0.0577
  102OSM    HO310306   2.714   0.625  10.451  1.3100 -1.6353 -1.1711
  102OSM    C4S10307   2.637   0.674  10.164 -0.0388  0.3934 -0.6126
  102OSM    H4S10308   2.561   0.729  10.107 -1.6555 -1.1252 -0.0155
  102OSM    C5S10309   2.702   0.570  10.112  0.2104 -0.1506 -0.4019
  102OSM    H5S10310   2.777   0.507  10.163  1.2376 -2.3110 -4.1810
  102OSM    C6S10311   2.673   0.519   9.972  0.1227  0.4572  0.1388
  102OSM    H6S10312   2.636   0.415   9.983  1.6073 -0.4436 -2.5440
  102OSM    H6T10313   2.762   0.533   9.907 -1.2030  1.4017 -1.5460
  102OSM    C7S10314   2.555   0.588   9.910  0.0835  0.1889  0.4786
  102OSM    H7S10315   2.567   0.698   9.905  2.8861 -0.0252  1.0937
  102OSM    H7T10316   2.469   0.556   9.974  1.1936 -2.9304  0.5804
  102OSM    C8S10317   2.534   0.538   9.763 -0.7770  0.3074 -0.3986
  102OSM    H8S10318   2.499   0.434   9.779  0.3966  0.1278  1.3314
  102OSM    H8T10319   2.634   0.538   9.714 -0.2117 -2.9667  0.5054
  102OSM    C9S10320   2.427   0.610   9.680  0.9262 -0.3955  0.2143
  102OSM    H9S10321   2.443   0.719   9.688  0.8195 -0.2172 -1.5576
  102OSM    H9T10322   2.330   0.594   9.732  0.3697 -0.6894 -0.8750
  102OSM   C10S10323   2.405   0.557   9.542 -0.1973 -0.5281  0.6180
  102OSM   H10S10324   2.409   0.446   9.550  0.0811 -0.3814  2.9698
  102OSM   H10T10325   2.487   0.600   9.481 -0.2370  0.8183  1.4878
  102OSM   C11S10326   2.273   0.597   9.479  0.5351  0.0669 -0.0548
  102OSM   H11S10327   2.266   0.708   9.484  2.3961  0.2000  0.2318
  102OSM   H11T10328   2.182   0.563   9.533 -0.3138  0.6682 -1.0672
  102OSM   C12S10329   2.262   0.554   9.335  0.0606 -0.1306  0.0302
  102OSM   H12S10330   2.251   0.444   9.324 -0.3011 -0.2034  0.9514
  102OSM   H12T10331   2.359   0.581   9.289  0.6996  1.0882  1.9785
  102OSM   C13S10332   2.154   0.626   9.249 -0.0392  0.7527 -0.4274
  102OSM   H13S10333   2.174   0.735   9.258 -1.4658  1.2858 -2.7563
  102OSM   H13T10334   2.052   0.604   9.288 -0.3984  0.9831 -1.2119
  102OSM   C14S10335   2.173   0.583   9.102 -0.1534 -0.7476  0.6676
  102OSM   H14S10336   2.151   0.474   9.095 -1.2523 -0.5691  1.1560
  102OSM   H14T10337   2.278   0.596   9.069 -0.5722  0.0851 -0.4149
  102OSM   C15S10338   2.083   0.663   9.004 -0.2632 -0.4293 -0.2350
  102OSM   H15S10339   1.983   0.686   9.045 -0.9609 -1.3444 -1.3848
  102OSM   H15T10340   2.063   0.614   8.907  1.5546 -1.1531 -0.2983
  102OSM   C16S10341   2.144   0.802   8.968 -0.9474  0.5256 -0.3528
  102OSM   H16S10342   2.252   0.784   8.950 -1.3403 -1.8924 -0.6570
  102OSM   H16T10343   2.113   0.866   9.053  1.0881  0.2656  0.6333
  102OSM   C17S10344   2.091   0.855   8.831  0.3946 -0.3310 -1.3164
  102OSM   H17S10345   2.121   0.783   8.752  0.9800 -1.4082 -0.1521
  102OSM   H17T10346   2.150   0.948   8.819  2.1611 -0.7693  2.4834
  102OSM   C18S10347   1.952   0.889   8.828 -0.1778  0.4970  0.5093
  102OSM   H18S10348   1.930   0.992   8.862  1.1651  1.1834 -0.5843
  102OSM   H18T10349   1.884   0.822   8.885  0.7822 -2.0989 -1.1844
  102OSM   H18U10350   1.928   0.871   8.721  0.7841  0.6825  0.2555
  102OSM    C1F10351   2.894   0.995  10.179  0.1894 -0.3862 -1.1434
  102OSM     OF10352   2.994   1.007  10.245  0.1831 -0.2352 -0.6766
  102OSM    C2F10353   2.883   1.065  10.049 -0.0960 -0.1169  0.2662
  102OSM    H2F10354   2.797   1.134  10.059 -0.3600 -0.1583 -1.4532
  102OSM    H2G10355   2.848   0.997   9.968  1.3189  0.4711 -0.8640
  102OSM    C3F10356   3.013   1.135   9.996  0.4513  0.0761 -0.3273
  102OSM    H3F10357   3.102   1.069  10.012  0.1031 -0.2264  0.4067
  102OSM    H3G10358   3.037   1.224  10.057  0.7451  0.8289 -1.4989
  102OSM    C4F10359   3.017   1.182   9.854  0.2917  0.6942 -0.1621
  102OSM    H4F10360   3.120   1.224   9.848  0.8428 -0.3387  1.4196
  102OSM    H4G10361   2.945   1.267   9.843  1.6115  1.8095 -0.4983
  102OSM    C5F10362   3.013   1.077   9.741  0.2915 -0.4691  0.3584
  102OSM    H5F10363   2.907   1.046   9.731 -0.1303  0.9310  0.3636
  102OSM    H5G10364   3.069   0.986   9.774  0.4863 -0.5465 -0.1741
  102OSM    C6F10365   3.049   1.145   9.608  0.0131 -0.0575  0.0415
  102OSM    H6F10366   3.157   1.171   9.612  0.1383 -0.6482  0.6834
  102OSM    H6G10367   2.995   1.241   9.596 -1.5909 -0.9514 -0.1966
  102OSM    C7F10368   3.024   1.057   9.490 -0.1814 -0.1660  0.7434
  102OSM    H7F10369   2.931   0.999   9.509 -0.4499 -0.3933 -1.1011
  102OSM    H7G10370   3.105   0.982   9.477 -0.3809 -0.8595  2.9739
  102OSM    C8F10371   2.994   1.131   9.360  0.4203 -1.2327 -0.0356
  102OSM    H8F10372   3.081   1.197   9.340  0.3422 -1.1029  0.0545
  102OSM    H8G10373   2.919   1.213   9.370  1.0643 -0.4810 -1.1302
  102OSM    C9F10374   2.958   1.031   9.251 -0.1800 -0.2496  0.1087
  102OSM    H9F10375   2.884   0.955   9.277 -0.6740  0.7079  1.6043
  102OSM   C10F10376   3.019   1.025   9.126  0.0124  0.1270 -1.0748
  102OSM   H10F10377   3.014   0.934   9.064 -0.1277 -1.7077  1.4933
  102OSM   C11F10378   3.114   1.129   9.065 -0.1889 -0.2135  0.4030
  102OSM   H11F10379   3.139   1.205   9.142  0.6633 -1.1063  1.0303
  102OSM   H11G10380   3.062   1.178   8.979 -2.1041 -1.6669  0.6579
  102OSM   C12F10381   3.242   1.077   9.010 -0.5661 -0.2121  0.3225
  102OSM   H12F10382   3.296   1.162   8.962 -0.0415 -0.5454  0.3121
  102OSM   H12G10383   3.227   1.009   8.924  2.2002 -0.7618  0.1612
  102OSM   C13F10384   3.322   1.001   9.117 -0.1141  1.1940  0.7653
  102OSM   H13F10385   3.274   0.904   9.142  0.4307  0.9438  0.8402
  102OSM   H13G10386   3.332   1.051   9.216  0.2465 -2.7006  2.8571
  102OSM   C14F10387   3.464   0.983   9.060  0.6050  0.1884 -0.2156
  102OSM   H14F10388   3.522   0.924   9.134  1.0254 -0.7517 -1.2689
  102OSM   H14G10389   3.503   1.086   9.044  0.1427  0.0346 -2.6742
  102OSM   C15F10390   3.482   0.902   8.931  0.1651 -0.1805  0.2127
  102OSM   H15F10391   3.422   0.952   8.851 -2.5481 -3.8942 -0.3190
  102OSM   H15G10392   3.441   0.802   8.954  0.7207  0.1671  3.0703
  102OSM   C16F10393   3.632   0.896   8.889 -0.2675  0.6700 -0.1458
  102OSM   H16F10394   3.675   0.853   8.982 -0.6486 -0.1283 -0.3303
  102OSM   H16G10395   3.678   0.996   8.871 -1.0593  1.0367 -0.1815
  102OSM   C17F10396   3.662   0.808   8.766  0.3158  1.6607  0.6635
  102OSM   H17F10397   3.621   0.868   8.681  1.3039  3.1521  1.1953
  102OSM   H17G10398   3.602   0.715   8.769  1.3085  0.8836 -1.4025
  102OSM   C18F10399   3.808   0.769   8.746 -0.6732  0.0091  0.9698
  102OSM   H18F10400   3.818   0.732   8.642  0.6310 -0.1673  1.1379
  102OSM   H18G10401   3.819   0.689   8.822  0.3203  0.3371  1.1831
  102OSM   H18H10402   3.878   0.855   8.758 -1.3074  0.3618  2.3227
  103OSM      N10403   4.268   5.088  10.876 -0.7538 -0.3652 -0.1200
  103OSM    C1510404   4.359   5.095  10.758  0.1505  0.1843  0.5751
  103OSM   H15A10405   4.330   5.033  10.675  2.3856 -1.2484  0.7657
  103OSM   H15B10406   4.459   5.059  10.781 -0.1558 -0.9647  0.1301
  103OSM   H15C10407   4.356   5.194  10.714 -1.2021  0.2730  0.8248
  103OSM    C1410408   4.284   4.942  10.921 -0.0143  0.3270  0.3102
  103OSM   H14A10409   4.385   4.904  10.913 -0.1263  0.1690 -0.5119
  103OSM   H14B10410   4.238   4.878  10.846  1.2938 -1.8629  1.2588
  103OSM   H14C10411   4.235   4.920  11.014 -0.3720  0.2591  0.1090
  103OSM    C1310412   4.326   5.187  10.975 -0.3521 -0.0382  0.1259
  103OSM   H13A10413   4.262   5.191  11.062 -0.0326 -0.4025  0.3841
  103OSM   H13B10414   4.343   5.285  10.934 -0.2841 -0.7807 -1.7185
  103OSM   H13C10415   4.428   5.153  10.991 -0.1089 -0.5624 -2.1653
  103OSM    C1210416   4.122   5.122  10.854  0.4289 -0.4421 -0.0572
  103OSM   H12A10417   4.070   5.108  10.947  0.9287 -2.6392 -0.0529
  103OSM   H12B10418   4.082   5.040  10.797  0.5035 -1.6900  1.6285
  103OSM    C1110419   4.090   5.261  10.796  0.0640 -0.1723  0.0397
  103OSM   H11A10420   4.139   5.344  10.852 -1.4036  2.1806 -1.9628
  103OSM   H11B10421   3.981   5.274  10.813  0.2128 -0.1313  1.0293
  103OSM      P10422   4.066   5.193  10.547 -0.3508 -0.2101  0.7385
  103OSM    O1310423   4.144   5.088  10.484 -0.0051  0.3854  1.1110
  103OSM    O1410424   3.935   5.148  10.603  0.5331 -1.1827 -0.2936
  103OSM    O1110425   4.037   5.307  10.443  0.6880  0.2811 -0.3024
  103OSM    O1210426   4.144   5.269  10.661  0.4648 -0.4597  0.0158
  103OSM    C1S10427   4.056   5.447  10.465  1.1736 -0.1054 -0.0320
  103OSM    H1S10428   4.166   5.463  10.475  1.2472  0.2505 -1.2791
  103OSM    H1T10429   3.993   5.471  10.553 -1.7514 -0.4366 -1.8997
  103OSM     NF10430   4.025   5.669  10.367 -0.0957 -0.1643  0.2887
  103OSM    HNF10431   3.946   5.718  10.404 -0.0540  0.4411 -0.3820
  103OSM    C2S10432   4.004   5.530  10.339  0.4940  0.1902 -0.2464
  103OSM    H2S10433   4.070   5.498  10.256 -0.5885 -1.9765 -0.3319
  103OSM    C3S10434   3.854   5.495  10.302  0.6999 -0.3625  0.0197
  103OSM    H3S10435   3.783   5.540  10.375 -0.6710  1.1615 -2.1110
  103OSM     O310436   3.827   5.358  10.307 -0.5678 -0.4916  0.1742
  103OSM    HO310437   3.897   5.324  10.362  0.7675 -1.6743 -2.0790
  103OSM    C4S10438   3.825   5.553  10.159 -0.4068  0.1058 -0.2773
  103OSM    H4S10439   3.853   5.490  10.074 -1.2955  1.3510 -1.5522
  103OSM    C5S10440   3.777   5.674  10.129 -0.2275  0.0080 -0.6264
  103OSM    H5S10441   3.745   5.743  10.208 -1.3716  1.2390 -2.1229
  103OSM    C6S10442   3.757   5.722   9.992  0.5711  0.2828  0.4024
  103OSM    H6S10443   3.803   5.822   9.977  0.5265  0.1211 -1.0344
  103OSM    H6T10444   3.647   5.736   9.991  0.3077 -1.4666 -0.8417
  103OSM    C7S10445   3.804   5.636   9.877 -0.3901  0.2837 -0.6346
  103OSM    H7S10446   3.761   5.681   9.785  1.1981 -0.2040 -1.6541
  103OSM    H7T10447   3.772   5.533   9.906 -1.2060  1.0545  1.4498
  103OSM    C8S10448   3.951   5.649   9.854  0.2174  0.3618  0.2441
  103OSM    H8S10449   4.003   5.616   9.946 -1.0538  0.8167  1.1577
  103OSM    H8T10450   3.977   5.757   9.847 -2.7702  1.3731  2.5290
  103OSM    C9S10451   3.996   5.545   9.755  0.1639  0.2770  0.2998
  103OSM    H9S10452   3.943   5.448   9.749  1.6043 -0.5591  0.7159
  103OSM    H9T10453   4.106   5.531   9.758  0.2053 -0.2894 -2.0577
  103OSM   C10S10454   3.983   5.609   9.613  0.4372 -0.9259 -0.7620
  103OSM   H10S10455   4.054   5.694   9.601 -0.3845  0.1533  1.4636
  103OSM   H10T10456   3.888   5.665   9.607 -0.9642 -2.9475  1.0770
  103OSM   C11S10457   3.998   5.517   9.494 -0.3241  0.0534  0.1055
  103OSM   H11S10458   3.935   5.425   9.495  1.0838 -0.9578 -0.3521
  103OSM   H11T10459   4.093   5.460   9.499 -0.6867 -0.6232 -0.5008
  103OSM   C12S10460   3.979   5.587   9.358  0.1399 -0.6150 -0.5508
  103OSM   H12S10461   4.049   5.673   9.363 -0.9161  0.5051 -3.2202
  103OSM   H12T10462   3.875   5.626   9.353  0.0889 -0.0814  2.5948
  103OSM   C13S10463   4.033   5.515   9.233  0.1699  0.5132 -0.3271
  103OSM   H13S10464   4.021   5.582   9.145 -4.2361  1.3603  0.6738
  103OSM   H13T10465   3.960   5.435   9.209 -0.8078  0.7123  1.7459
  103OSM   C14S10466   4.174   5.449   9.244 -0.1936 -0.3249  0.2119
  103OSM   H14S10467   4.166   5.350   9.294  1.0552 -1.0093 -0.8872
  103OSM   H14T10468   4.239   5.512   9.309  0.2161 -0.2766 -0.2388
  103OSM   C15S10469   4.239   5.437   9.106  0.8546  0.1840 -0.1333
  103OSM   H15S10470   4.162   5.401   9.035  2.0488 -1.6789 -0.5500
  103OSM   H15T10471   4.320   5.362   9.113 -0.1568 -1.1676 -2.1286
  103OSM   C16S10472   4.299   5.566   9.056 -1.2582  0.7861  0.2797
  103OSM   H16S10473   4.387   5.584   9.121 -1.1468  0.8153  0.1226
  103OSM   H16T10474   4.231   5.653   9.070 -1.9042  0.4570 -0.7027
  103OSM   C17S10475   4.372   5.548   8.921  0.2345 -0.0514  0.3344
  103OSM   H17S10476   4.456   5.475   8.927 -2.2937 -3.2457 -0.1701
  103OSM   H17T10477   4.415   5.648   8.902 -2.2115  0.8988 -0.5965
  103OSM   C18S10478   4.278   5.502   8.807 -0.3910  0.3897 -0.3420
  103OSM   H18S10479   4.219   5.416   8.846  2.2877 -0.8139  1.3620
  103OSM   H18T10480   4.339   5.454   8.726 -1.1843 -1.4533  0.0875
  103OSM   H18U10481   4.211   5.584   8.774 -0.4352 -0.7939 -3.5596
  103OSM    C1F10482   4.145   5.730  10.374  0.6836  0.6795  0.5588
  103OSM     OF10483   4.253   5.671  10.354 -0.4324 -0.3528  0.4309
  103OSM    C2F10484   4.146   5.869  10.427  0.2877  0.4360  0.4954
  103OSM    H2F10485   4.218   5.885  10.510  0.3172 -0.4060  0.6392
  103OSM    H2G10486   4.044   5.903  10.458  0.8181  4.1688 -1.3067
  103OSM    C3F10487   4.198   5.970  10.317 -0.2685 -0.0072  0.0637
  103OSM    H3F10488   4.307   5.970  10.296 -0.4886  3.2264 -1.9317
  103OSM    H3G10489   4.168   6.066  10.365 -0.7219  0.6054 -1.3857
  103OSM    C4F10490   4.128   5.951  10.184  0.5207 -0.0739 -0.7510
  103OSM    H4F10491   4.019   5.957  10.203  0.5266  1.1902 -1.0085
  103OSM    H4G10492   4.153   5.852  10.140 -2.0505 -1.1739  0.0639
  103OSM    C5F10493   4.179   6.059  10.081  0.9645 -0.1796  0.1285
  103OSM    H5F10494   4.290   6.062  10.076  1.0398 -2.4519 -1.1629
  103OSM    H5G10495   4.141   6.155  10.120  0.9434  0.0152 -0.3663
  103OSM    C6F10496   4.123   6.040   9.941  0.3667 -0.3098  0.4869
  103OSM    H6F10497   4.013   6.052   9.936  0.1841 -1.6962  0.8397
  103OSM    H6G10498   4.142   5.935   9.910  0.1519  0.5722 -2.9913
  103OSM    C7F10499   4.182   6.136   9.837  0.4632  0.0705 -0.1967
  103OSM    H7F10500   4.113   6.130   9.750  0.2208 -0.7206  0.0411
  103OSM    H7G10501   4.280   6.091   9.808  1.4072  0.4943  2.1308
  103OSM    C8F10502   4.195   6.288   9.876 -0.3683 -0.2712  0.8638
  103OSM    H8F10503   4.248   6.308   9.972 -1.9894  3.4492  1.1577
  103OSM    H8G10504   4.091   6.326   9.876 -0.6288 -0.5145 -3.6935
  103OSM    C9F10505   4.260   6.371   9.761 -0.1466  0.1711  0.2850
  103OSM    H9F10506   4.365   6.396   9.782  0.3287 -0.5928 -1.0421
  103OSM   C10F10507   4.210   6.409   9.643 -0.2621 -0.0395  0.4223
  103OSM   H10F10508   4.272   6.469   9.575 -0.2295  0.3390  0.7849
  103OSM   C11F10509   4.072   6.394   9.593 -0.2417  0.2212 -0.1546
  103OSM   H11F10510   4.024   6.494   9.585 -0.3341  0.1502 -0.5357
  103OSM   H11G10511   4.009   6.330   9.658 -2.9698 -0.9905 -3.6679
  103OSM   C12F10512   4.074   6.342   9.451 -0.0774  0.1830 -0.4024
  103OSM   H12F10513   3.969   6.307   9.439 -1.1130  3.0379 -0.4379
  103OSM   H12G10514   4.131   6.246   9.453 -0.2150  0.0477 -1.7395
  103OSM   C13F10515   4.116   6.444   9.348  0.1578 -0.1557 -0.5859
  103OSM   H13F10516   4.050   6.532   9.363  0.2195 -0.0421 -0.9660
  103OSM   H13G10517   4.225   6.465   9.351  0.3561 -0.7082 -2.6144
  103OSM   C14F10518   4.085   6.394   9.210  0.1061 -0.2000 -0.1458
  103OSM   H14F10519   4.148   6.303   9.197  1.3923  0.6059  0.2586
  103OSM   H14G10520   4.116   6.474   9.139 -0.0122 -0.7503 -0.8399
  103OSM   C15F10521   3.927   6.367   9.186 -0.0504  0.2153  0.5409
  103OSM   H15F10522   3.859   6.434   9.243 -1.2902 -0.1819 -0.4205
  103OSM   H15G10523   3.915   6.268   9.234  1.2741  0.7476  2.0618
  103OSM   C16F10524   3.871   6.386   9.038  0.0418 -0.2506  0.3609
  103OSM   H16F10525   3.771   6.337   9.033  0.4629 -1.0804 -0.1617
  103OSM   H16G10526   3.937   6.344   8.960 -0.0369 -0.9327  0.6564
  103OSM   C17F10527   3.850   6.531   8.995  0.8897 -0.2930  1.0380
  103OSM   H17F10528   3.939   6.597   8.990 -0.1422  1.1313  0.9017
  103OSM   H17G10529   3.781   6.588   9.062 -1.7524 -1.3791 -0.5885
  103OSM   C18F10530   3.782   6.539   8.856  0.1846 -0.7459 -0.6474
  103OSM   H18F10531   3.771   6.643   8.818 -0.4383 -0.4912  0.2111
  103OSM   H18G10532   3.683   6.492   8.875  0.3433 -0.9635 -0.3617
  103OSM   H18H10533   3.836   6.470   8.787  2.5418  2.1294 -1.8688
  104OSM      N10534   6.515   6.437  10.699  0.2522  0.2237  0.1725
  104OSM    C1510535   6.437   6.368  10.803  0.6869  0.3358 -0.0410
  104OSM   H15A10536   6.340   6.414  10.792  0.1807 -0.9833 -1.4696
  104OSM   H15B10537   6.475   6.370  10.904  0.0006 -0.3755  0.2352
  104OSM   H15C10538   6.416   6.265  10.780  1.9051 -0.4582  2.1411
  104OSM    C1410539   6.452   6.426  10.568 -0.9475 -0.4667 -0.1588
  104OSM   H14A10540   6.526   6.445  10.491  0.0865 -1.1804  0.6335
  104OSM   H14B10541   6.365   6.490  10.563 -0.7772 -0.2764 -1.0133
  104OSM   H14C10542   6.424   6.322  10.559 -3.2851 -0.0985  1.7186
  104OSM    C1310543   6.518   6.576  10.749  0.4186  0.3221 -0.3211
  104OSM   H13A10544   6.595   6.634  10.700 -1.0344  0.9662 -1.9941
  104OSM   H13B10545   6.543   6.576  10.854 -0.8417 -1.0597  0.0229
  104OSM   H13C10546   6.420   6.621  10.739 -0.7687 -2.2543 -1.3134
  104OSM    C1210547   6.655   6.374  10.706  0.2097  0.9462  0.6446
  104OSM   H12A10548   6.653   6.266  10.708 -0.9879  0.9365 -0.1352
  104OSM   H12B10549   6.695   6.387  10.805  0.5119  0.2444  0.6275
  104OSM    C1110550   6.759   6.435  10.603 -0.6278  0.0381  0.0169
  104OSM   H11A10551   6.759   6.546  10.616 -2.3694 -0.0712  1.1432
  104OSM   H11B10552   6.725   6.411  10.500  0.6775  0.3806 -0.5255
  104OSM      P10553   7.012   6.449  10.590 -0.3411  0.1358 -0.2388
  104OSM    O1310554   7.021   6.569  10.672  0.4581 -0.1806  0.4540
  104OSM    O1410555   7.127   6.357  10.588  0.2211  0.0951  0.1271
  104OSM    O1110556   6.982   6.488  10.433 -0.1224  0.0809 -0.1826
  104OSM    O1210557   6.885   6.370  10.625 -0.4917  0.4000 -0.0563
  104OSM    C1S10558   6.959   6.397  10.328  0.4201 -0.6738  1.2090
  104OSM    H1S10559   6.854   6.359  10.335 -0.6645  1.1944 -2.1942
  104OSM    H1T10560   7.029   6.311  10.335  1.2844  0.0225  1.2985
  104OSM     NF10561   6.959   6.370  10.100  1.0716 -0.2053  0.6835
  104OSM    HNF10562   7.046   6.346  10.058  0.9401  0.9351 -0.3185
  104OSM    C2S10563   6.963   6.477  10.195  0.1694  0.7693 -0.1151
  104OSM    H2S10564   6.871   6.540  10.193 -1.0190 -0.8999 -0.0336
  104OSM    C3S10565   7.087   6.575  10.197 -0.1272  0.3762  0.1794
  104OSM    H3S10566   7.179   6.519  10.224  0.1988  0.9742  0.3283
  104OSM     O310567   7.073   6.684  10.290 -1.1629 -0.4910  0.7326
  104OSM    HO310568   6.997   6.655  10.339 -1.7728  0.3047  0.2827
  104OSM    C4S10569   7.109   6.628  10.059  0.2106  0.7731  0.3826
  104OSM    H4S10570   7.169   6.563   9.994 -1.6637 -0.4377 -0.1973
  104OSM    C5S10571   7.054   6.744  10.005  0.1371  0.0793 -0.3934
  104OSM    H5S10572   6.984   6.806  10.064 -0.8032 -0.6860 -0.6702
  104OSM    C6S10573   7.081   6.802   9.870  0.3688  0.5444 -0.5428
  104OSM    H6S10574   7.185   6.787   9.834 -0.2118 -0.6000 -1.8086
  104OSM    H6T10575   7.064   6.912   9.877 -0.6517  0.3022  2.8182
  104OSM    C7S10576   6.992   6.749   9.758 -0.1385  0.2316  0.3487
  104OSM    H7S10577   6.887   6.732   9.791  1.0310 -1.8199  3.5055
  104OSM    H7T10578   7.023   6.645   9.735  0.6032  0.6265 -0.5007
  104OSM    C8S10579   7.005   6.836   9.640  0.2874  0.2997  0.5330
  104OSM    H8S10580   7.106   6.871   9.609 -1.3736  4.8141 -0.4861
  104OSM    H8T10581   6.939   6.925   9.649 -1.2510 -0.9824  2.8016
  104OSM    C9S10582   6.941   6.759   9.517  0.3040 -0.3454  1.2552
  104OSM    H9S10583   6.994   6.662   9.503  0.3657 -0.4507  2.1722
  104OSM    H9T10584   6.936   6.819   9.423 -3.0748 -0.7565  1.0393
  104OSM   C10S10585   6.792   6.729   9.531  0.0284  0.2641  0.1141
  104OSM   H10S10586   6.749   6.812   9.590 -0.0231 -0.1383  0.6516
  104OSM   H10T10587   6.776   6.632   9.583 -0.5211  0.7178  0.8118
  104OSM   C11S10588   6.717   6.701   9.389 -0.6402 -0.5075 -0.3108
  104OSM   H11S10589   6.618   6.652   9.400 -1.4234  0.3011 -2.9252
  104OSM   H11T10590   6.787   6.641   9.326  0.1003  1.5676 -1.5571
  104OSM   C12S10591   6.682   6.833   9.307 -0.0483  0.1428  0.5428
  104OSM   H12S10592   6.767   6.904   9.311  0.6500 -0.6072 -0.2437
  104OSM   H12T10593   6.593   6.882   9.352 -1.1802 -1.5544  0.2654
  104OSM   C13S10594   6.651   6.795   9.160  0.0748 -0.2779 -0.4681
  104OSM   H13S10595   6.554   6.741   9.156  0.5476 -1.4830  1.9725
  104OSM   H13T10596   6.722   6.715   9.130 -0.6423 -1.6049  1.1927
  104OSM   C14S10597   6.648   6.919   9.061 -0.1570  0.2569 -0.0277
  104OSM   H14S10598   6.750   6.963   9.058 -0.8858  2.1511  1.0522
  104OSM   H14T10599   6.568   6.993   9.086  0.3453  0.3859  1.2895
  104OSM   C15S10600   6.618   6.869   8.916 -0.4443  0.2736 -0.1946
  104OSM   H15S10601   6.523   6.813   8.918 -0.7616  0.7456  2.8875
  104OSM   H15T10602   6.695   6.798   8.880 -1.4917  0.0908 -2.1717
  104OSM   C16S10603   6.623   6.979   8.810  0.1291  0.1105 -0.2799
  104OSM   H16S10604   6.667   6.945   8.714 -0.8204 -1.1505 -0.2889
  104OSM   H16T10605   6.692   7.058   8.847  0.4621 -0.6929  0.8773
  104OSM   C17S10606   6.498   7.045   8.766 -0.3093  0.0374  0.4012
  104OSM   H17S10607   6.530   7.139   8.716 -1.3626  0.0206 -0.3668
  104OSM   H17T10608   6.446   7.069   8.861  1.1453  0.5897  1.0834
  104OSM   C18S10609   6.422   6.956   8.664  0.8249 -0.0285  0.4115
  104OSM   H18S10610   6.402   6.858   8.710 -1.2963  0.3031  0.2767
  104OSM   H18T10611   6.500   6.926   8.590  0.3933 -0.7823  0.2566
  104OSM   H18U10612   6.332   7.017   8.639 -0.0756  0.3365  4.0399
  104OSM    C1F10613   6.844   6.299  10.073 -0.3408  0.1579  0.1929
  104OSM     OF10614   6.734   6.347  10.098 -0.6638  0.4143  0.3528
  104OSM    C2F10615   6.857   6.158  10.019 -0.2845 -0.4836 -0.7851
  104OSM    H2F10616   6.845   6.104  10.115  0.8124  1.0124  0.2268
  104OSM    H2G10617   6.964   6.150   9.990  0.2771  0.0511  1.0138
  104OSM    C3F10618   6.735   6.133   9.920 -0.1234  0.3542 -0.1016
  104OSM    H3F10619   6.636   6.151   9.968  1.3923  0.3432  3.3311
  104OSM    H3G10620   6.742   6.029   9.879 -0.4184 -0.2455  1.3084
  104OSM    C4F10621   6.754   6.222   9.799 -0.9439 -0.3508 -0.4541
  104OSM    H4F10622   6.859   6.211   9.766 -0.6225  0.8626  0.1125
  104OSM    H4G10623   6.739   6.327   9.831  0.3149  0.6011 -2.7961
  104OSM    C5F10624   6.663   6.197   9.686  0.2472 -0.6401  1.4476
  104OSM    H5F10625   6.555   6.197   9.714 -0.3695 -0.2287 -0.7653
  104OSM    H5G10626   6.693   6.106   9.630  0.0307  1.1401 -1.8010
  104OSM    C6F10627   6.670   6.306   9.578 -0.1428  0.3516  0.5074
  104OSM    H6F10628   6.773   6.302   9.537 -0.5307  1.7759 -0.6721
  104OSM    H6G10629   6.658   6.403   9.630  1.4683  0.1601  1.3082
  104OSM    C7F10630   6.572   6.266   9.463 -0.5732  0.9106  0.3851
  104OSM    H7F10631   6.471   6.238   9.501  0.0023 -1.3202  0.4079
  104OSM    H7G10632   6.602   6.166   9.425 -0.8740  1.1422 -0.5052
  104OSM    C8F10633   6.569   6.376   9.358 -0.3677  0.0415 -0.9595
  104OSM    H8F10634   6.674   6.385   9.324  0.2349 -2.6197 -0.0776
  104OSM    H8G10635   6.533   6.464   9.415  1.1474 -0.3343  0.6653
  104OSM    C9F10636   6.468   6.340   9.252 -0.4725  0.2049 -0.1463
  104OSM    H9F10637   6.384   6.275   9.280 -0.1045 -0.3612 -0.3481
  104OSM   C10F10638   6.464   6.383   9.122  0.5851 -0.0528 -0.8948
  104OSM   H10F10639   6.391   6.351   9.046 -0.4832  1.0548 -0.3710
  104OSM   C11F10640   6.565   6.471   9.064  0.2622 -0.0182 -0.1998
  104OSM   H11F10641   6.652   6.479   9.133 -1.0537 -3.6791  2.1400
  104OSM   H11G10642   6.522   6.569   9.032 -0.0827  0.1036  0.6064
  104OSM   C12F10643   6.617   6.396   8.948 -0.0033 -0.3358  0.5943
  104OSM   H12F10644   6.529   6.389   8.881  0.3139 -0.3821  0.1785
  104OSM   H12G10645   6.652   6.292   8.960  0.0786 -0.5830 -1.3821
  104OSM   C13F10646   6.737   6.465   8.872  0.1186  0.2253  0.1226
  104OSM   H13F10647   6.839   6.457   8.917  0.6211  3.4085 -0.1616
  104OSM   H13G10648   6.714   6.574   8.868  0.3445  0.2355 -1.7338
  104OSM   C14F10649   6.734   6.430   8.723  0.2435 -0.0918  0.1311
  104OSM   H14F10650   6.796   6.516   8.688 -0.0582  0.7004  1.4830
  104OSM   H14G10651   6.630   6.433   8.685  0.0873  1.6040  0.6146
  104OSM   C15F10652   6.796   6.296   8.691 -0.3539  0.8606 -0.2657
  104OSM   H15F10653   6.721   6.220   8.719  0.4960 -0.1170 -0.5997
  104OSM   H15G10654   6.892   6.278   8.743  0.2834 -1.2407 -2.0401
  104OSM   C16F10655   6.828   6.276   8.542  1.0021  0.3791  0.0590
  104OSM   H16F10656   6.870   6.174   8.530  2.0633  0.7125  0.7642
  104OSM   H16G10657   6.917   6.340   8.523  1.4745 -0.0216  0.8445
  104OSM   C17F10658   6.723   6.333   8.443 -0.3404  0.1686 -0.8261
  104OSM   H17F10659   6.732   6.443   8.445  2.2610  0.0686 -2.3285
  104OSM   H17G10660   6.622   6.306   8.480  0.4145  0.8883  1.9919
  104OSM   C18F10661   6.743   6.275   8.305 -0.0936 -0.3321  0.4558
  104OSM   H18F10662   6.723   6.167   8.323 -0.6423 -0.5579 -1.2988
  104OSM   H18G10663   6.847   6.285   8.267  0.6498 -0.3500  2.3857
  104OSM   H18H10664   6.673   6.314   8.227 -1.4086 -0.3796  1.5762
  105OSM      N10665   0.144   4.008  10.666  0.6561 -0.0046 -0.0411
  105OSM    C1510666   0.005   3.957  10.697  0.8927 -0.7733  0.1709
  105OSM   H15A10667  -0.053   3.942  10.607  0.6090 -2.2069  0.5791
  105OSM   H15B10668  -0.054   4.027  10.755 -0.3035 -1.5482 -0.0895
  105OSM   H15C10669   0.024   3.868  10.755  0.9450  0.6931  2.5427
  105OSM    C1410670   0.140   4.151  10.611 -0.0640 -0.3708 -0.0571
  105OSM   H14A10671   0.240   4.186  10.588 -0.1308 -2.2773 -3.9689
  105OSM   H14B10672   0.081   4.209  10.681 -0.3255 -0.4092 -0.2459
  105OSM   H14C10673   0.090   4.154  10.515 -1.2290  0.3508  0.5503
  105OSM    C1310674   0.222   4.017  10.793  0.4045 -0.4417 -0.0140
  105OSM   H13A10675   0.244   3.924  10.845 -0.9850 -0.3231  0.8424
  105OSM   H13B10676   0.178   4.083  10.866  0.7247 -1.0852  0.7859
  105OSM   H13C10677   0.317   4.062  10.769  0.3291 -0.6665 -0.7445
  105OSM    C1210678   0.209   3.914  10.571 -0.5985 -0.1113 -0.2393
  105OSM   H12A10679   0.133   3.876  10.505  0.7502 -1.8157 -0.8844
  105OSM   H12B10680   0.238   3.826  10.625 -1.7312 -0.6289 -0.4546
  105OSM    C1110681   0.331   3.972  10.483 -0.0776  0.2466  0.3168
  105OSM   H11A10682   0.281   4.054  10.427  0.0692 -0.5516 -1.0399
  105OSM   H11B10683   0.370   3.900  10.408  3.5243  2.9101 -0.6819
  105OSM      P10684   0.534   3.903  10.614 -0.3034 -0.0196 -0.8249
  105OSM    O1310685   0.645   3.942  10.702 -0.3620  0.3537  0.0597
  105OSM    O1410686   0.447   3.794  10.659 -0.9691  0.1605 -0.2151
  105OSM    O1110687   0.601   3.860  10.473 -0.1688 -0.3021  0.4208
  105OSM    O1210688   0.437   4.022  10.568  0.9134 -0.3872  0.3384
  105OSM    C1S10689   0.657   3.969  10.399  0.4845 -0.5332 -0.0509
  105OSM    H1S10690   0.730   4.018  10.467  2.1507  0.3398 -2.3359
  105OSM    H1T10691   0.575   4.043  10.381  0.5524  0.7261  3.9476
  105OSM     NF10692   0.819   4.008  10.215 -0.6939  0.2355  0.2444
  105OSM    HNF10693   0.794   4.055  10.130 -2.4657  2.3612  1.8142
  105OSM    C2S10694   0.722   3.914  10.270  0.0995  0.6011  0.2979
  105OSM    H2S10695   0.783   3.824  10.297  1.3325  1.4912  0.6095
  105OSM    C3S10696   0.612   3.866  10.179 -0.0585 -0.7208  0.4754
  105OSM    H3S10697   0.549   3.953  10.152  0.1053 -1.3325 -2.1463
  105OSM     O310698   0.527   3.761  10.226  0.2429  0.4807 -0.5585
  105OSM    HO310699   0.539   3.755  10.321 -2.2770  1.5166 -0.1031
  105OSM    C4S10700   0.671   3.820  10.051  0.4467 -0.7473  0.9690
  105OSM    H4S10701   0.710   3.718  10.049 -0.6807 -1.2227  1.8635
  105OSM    C5S10702   0.672   3.882   9.931 -0.1696  0.0669  0.3243
  105OSM    H5S10703   0.627   3.982   9.923  0.3302  0.4483  1.9231
  105OSM    C6S10704   0.730   3.826   9.804  0.9416 -0.0040  0.0158
  105OSM    H6S10705   0.755   3.720   9.827 -2.1164 -0.6728  0.7737
  105OSM    H6T10706   0.815   3.891   9.775  0.1761  3.2009  4.0371
  105OSM    C7S10707   0.626   3.833   9.689 -0.4139 -0.4314 -0.1710
  105OSM    H7S10708   0.598   3.940   9.675 -2.0350 -0.8491 -0.3267
  105OSM    H7T10709   0.535   3.771   9.702 -0.1371 -1.4065 -2.3940
  105OSM    C8S10710   0.692   3.783   9.560  0.1982  0.6420 -0.0543
  105OSM    H8S10711   0.739   3.687   9.591 -0.2367  0.6566  0.6898
  105OSM    H8T10712   0.781   3.847   9.547  0.9122 -0.1406  0.8540
  105OSM    C9S10713   0.606   3.768   9.434 -0.4452  0.5984 -0.2603
  105OSM    H9S10714   0.589   3.869   9.390  1.6063  0.1860 -2.1660
  105OSM    H9T10715   0.505   3.731   9.462  1.3496 -2.7289  2.4608
  105OSM   C10S10716   0.667   3.670   9.333 -0.4270 -0.0684  0.1933
  105OSM   H10S10717   0.681   3.573   9.386 -0.2179 -0.7830 -1.1143
  105OSM   H10T10718   0.773   3.687   9.305 -0.1303 -2.6769 -0.5059
  105OSM   C11S10719   0.569   3.655   9.216  0.1621 -0.0238  0.1947
  105OSM   H11S10720   0.466   3.644   9.255 -0.1223  0.0455 -0.5089
  105OSM   H11T10721   0.611   3.564   9.167  1.3229  1.0740 -0.9322
  105OSM   C12S10722   0.563   3.774   9.120  0.8960 -0.0049  0.1508
  105OSM   H12S10723   0.672   3.791   9.102  0.4621  0.9459 -1.9084
  105OSM   H12T10724   0.507   3.857   9.169  0.6691  0.3620 -0.7197
  105OSM   C13S10725   0.504   3.738   8.984 -0.1518 -0.2711 -0.3448
  105OSM   H13S10726   0.567   3.684   8.910 -1.0939 -0.0139 -1.3787
  105OSM   H13T10727   0.475   3.835   8.937 -2.6545 -0.7056  0.1538
  105OSM   C14S10728   0.377   3.655   8.978 -0.5636 -0.0120 -0.0741
  105OSM   H14S10729   0.312   3.684   9.063 -0.8130 -3.1578  0.9283
  105OSM   H14T10730   0.414   3.555   9.010  1.0667 -0.2975 -2.5541
  105OSM   C15S10731   0.310   3.665   8.842 -0.1485  0.1832 -0.2153
  105OSM   H15S10732   0.379   3.654   8.755  1.8141  1.7132  1.0478
  105OSM   H15T10733   0.283   3.773   8.838 -4.5663 -0.7683 -0.3930
  105OSM   C16S10734   0.186   3.576   8.809  0.4516  0.3027  0.1921
  105OSM   H16S10735   0.095   3.615   8.859  0.2082  0.7778 -0.5981
  105OSM   H16T10736   0.201   3.473   8.848  1.4721  0.9494  1.5805
  105OSM   C17S10737   0.158   3.578   8.653  0.2239 -0.3156  0.2057
  105OSM   H17S10738   0.060   3.530   8.631  0.1448 -0.3503  0.6244
  105OSM   H17T10739   0.238   3.519   8.604  1.5312  1.8903 -0.4745
  105OSM   C18S10740   0.160   3.722   8.603  0.6153  0.3181  0.0708
  105OSM   H18S10741   0.130   3.737   8.497 -2.0617  2.4521  1.0162
  105OSM   H18T10742   0.265   3.754   8.621  0.3366  0.0127  2.4840
  105OSM   H18U10743   0.110   3.795   8.670  0.3667  0.0589  0.1647
  105OSM    C1F10744   0.932   4.044  10.276  0.1822  0.3197  0.2404
  105OSM     OF10745   0.955   4.018  10.392  0.0646  0.5877  0.3990
  105OSM    C2F10746   1.022   4.129  10.190 -0.2578 -0.4034 -0.7856
  105OSM    H2F10747   1.111   4.126  10.256 -1.3024 -2.5354  0.6605
  105OSM    H2G10748   0.983   4.232  10.205  1.7236  0.5497 -1.7706
  105OSM    C3F10749   1.037   4.076  10.051  0.3517  0.1967 -0.3319
  105OSM    H3F10750   0.942   4.075   9.992 -0.8029  1.0635  1.4086
  105OSM    H3G10751   1.072   3.971  10.053  0.0950  0.1232  0.5426
  105OSM    C4F10752   1.146   4.155   9.973 -0.4610  0.4798  0.1895
  105OSM    H4F10753   1.243   4.114  10.006 -0.4312  2.2332  2.5115
  105OSM    H4G10754   1.142   4.261  10.006  1.0314  0.4531  0.5150
  105OSM    C5F10755   1.137   4.137   9.823  0.3098  0.4754  0.2233
  105OSM    H5F10756   1.127   4.030   9.797 -1.6540  0.9906 -1.4502
  105OSM    H5G10757   1.222   4.192   9.779 -0.7991  1.4743 -0.7394
  105OSM    C6F10758   1.000   4.194   9.757 -0.6182  0.3591 -0.1938
  105OSM    H6F10759   0.981   4.299   9.787 -1.2030  0.1248  0.2774
  105OSM    H6G10760   0.922   4.126   9.797 -0.6547 -0.2396 -1.2385
  105OSM    C7F10761   0.988   4.190   9.601  0.2870 -0.2032  0.1915
  105OSM    H7F10762   0.950   4.087   9.585 -0.0415 -0.1487  0.6195
  105OSM    H7G10763   1.092   4.199   9.562  0.7250  4.0403  1.8079
  105OSM    C8F10764   0.893   4.298   9.545  0.0656  0.3684  0.5551
  105OSM    H8F10765   0.796   4.278   9.594 -0.8375 -1.5771 -1.8111
  105OSM    H8G10766   0.866   4.284   9.439 -0.4160 -0.7543  0.8152
  105OSM    C9F10767   0.944   4.435   9.563 -0.2924 -1.0827 -0.0006
  105OSM    H9F10768   0.950   4.470   9.667 -1.1267  1.9361 -0.8665
  105OSM   C10F10769   0.970   4.523   9.462 -0.3146  0.1349  0.4227
  105OSM   H10F10770   1.006   4.621   9.494  1.2294  0.3687 -1.8445
  105OSM   C11F10771   0.973   4.491   9.311 -0.1587 -0.1890  0.4138
  105OSM   H11F10772   0.933   4.390   9.287 -0.4137  0.1861 -0.7936
  105OSM   H11G10773   1.074   4.502   9.268 -1.1986 -0.2674 -2.2734
  105OSM   C12F10774   0.875   4.594   9.236 -0.0294  0.3117 -0.2190
  105OSM   H12F10775   0.883   4.697   9.279  0.6442  0.2254 -0.1401
  105OSM   H12G10776   0.774   4.553   9.255  1.6902 -3.8855  0.8782
  105OSM   C13F10777   0.904   4.604   9.087 -0.8825  0.6426 -0.0058
  105OSM   H13F10778   0.941   4.503   9.060 -0.6500 -0.2240  3.1295
  105OSM   H13G10779   0.970   4.687   9.054 -1.4939  1.1409 -0.0030
  105OSM   C14F10780   0.766   4.629   9.013 -0.6892  0.4087 -0.3954
  105OSM   H14F10781   0.742   4.738   9.020 -3.6608 -0.0788 -1.7207
  105OSM   H14G10782   0.678   4.573   9.049 -0.8099  1.2893  0.7390
  105OSM   C15F10783   0.786   4.584   8.867  0.3702 -0.5359 -0.6257
  105OSM   H15F10784   0.789   4.473   8.874 -0.5117 -0.4749  2.7458
  105OSM   H15G10785   0.886   4.616   8.832  1.2919 -1.7674  0.7153
  105OSM   C16F10786   0.686   4.641   8.775 -0.3954  0.2184  0.4365
  105OSM   H16F10787   0.696   4.750   8.759  1.1535 -0.0013 -0.2819
  105OSM   H16G10788   0.580   4.618   8.796 -1.7961  3.8948 -1.6810
  105OSM   C17F10789   0.723   4.588   8.634 -0.1292  0.2527 -0.9033
  105OSM   H17F10790   0.703   4.479   8.634  0.4428  0.0402  2.5453
  105OSM   H17G10791   0.831   4.601   8.613  0.7123 -1.7933  1.5953
  105OSM   C18F10792   0.634   4.643   8.529 -0.0623  0.4887  0.2275
  105OSM   H18F10793   0.648   4.752   8.513  0.7077  0.3759  0.0912
  105OSM   H18G10794   0.527   4.629   8.552 -0.0377 -2.5508 -0.9536
  105OSM   H18H10795   0.647   4.597   8.429 -0.3726  0.1076  0.3613
  106OSM      N10796   2.599   0.992  10.919 -0.3610  0.0945 -0.6916
  106OSM    C1510797   2.736   0.985  10.986 -0.7667 -0.1698  0.3568
  106OSM   H15A10798   2.792   1.073  10.959 -0.8835 -0.5721 -1.3537
  106OSM   H15B10799   2.779   0.896  10.942  1.8661  0.7290  0.9684
  106OSM   H15C10800   2.726   0.970  11.092  1.9521 -1.4802  0.5124
  106OSM    C1410801   2.526   0.866  10.965  0.2653  1.1869  0.1865
  106OSM   H14A10802   2.575   0.775  10.937 -0.9476  0.0510  1.5731
  106OSM   H14B10803   2.434   0.857  10.909  1.3068 -1.3079 -1.2753
  106OSM   H14C10804   2.507   0.865  11.071  1.2591  3.5827  0.4619
  106OSM    C1310805   2.528   1.114  10.967 -0.5224 -0.0942  1.0506
  106OSM   H13A10806   2.422   1.117  10.945 -0.2058  3.4268 -0.8238
  106OSM   H13B10807   2.579   1.205  10.939  1.4295 -1.4479  0.0084
  106OSM   H13C10808   2.529   1.111  11.075 -2.2515 -1.2283  1.0863
  106OSM    C1210809   2.604   0.991  10.772 -0.3215 -0.7294  0.4470
  106OSM   H12A10810   2.667   0.910  10.739  1.2434  0.9999 -1.0485
  106OSM   H12B10811   2.655   1.078  10.734 -1.4786 -0.2874 -0.1508
  106OSM    C1110812   2.469   0.988  10.691 -0.1379  0.1619  0.9214
  106OSM   H11A10813   2.407   0.914  10.746  0.2481 -0.6407  0.2957
  106OSM   H11B10814   2.482   0.943  10.590  0.3769  0.5624  0.8053
  106OSM      P10815   2.471   1.207  10.555 -0.4557 -0.3969  0.1581
  106OSM    O1310816   2.387   1.332  10.553  0.6112  0.1975  0.6162
  106OSM    O1410817   2.622   1.226  10.560 -0.2554  0.0307  0.3012
  106OSM    O1110818   2.427   1.128  10.420 -0.1102  0.0598 -0.4831
  106OSM    O1210819   2.411   1.119  10.676  0.3719 -0.1855  0.1976
  106OSM    C1S10820   2.473   1.142  10.291 -0.0525 -0.7983  0.3806
  106OSM    H1S10821   2.559   1.073  10.277  0.5399  0.0406 -0.2387
  106OSM    H1T10822   2.515   1.245  10.282 -0.3934 -0.3499  3.0164
  106OSM     NF10823   2.412   1.160  10.063  0.3189  0.0852  0.4506
  106OSM    HNF10824   2.412   1.260  10.057 -0.8265  0.1702  1.5152
  106OSM    C2S10825   2.356   1.116  10.187 -0.3846 -0.0223  0.1956
  106OSM    H2S10826   2.333   1.008  10.190 -1.1482  0.1328  0.3036
  106OSM    C3S10827   2.226   1.196  10.222 -0.0779  0.1565 -0.1262
  106OSM    H3S10828   2.251   1.304  10.230  3.7827 -0.5772 -0.1612
  106OSM     O310829   2.168   1.155  10.353 -0.2628  0.6290 -0.1473
  106OSM    HO310830   2.241   1.100  10.383 -0.8379  0.2668  0.6408
  106OSM    C4S10831   2.122   1.186  10.114  0.4522 -0.0834  0.3017
  106OSM    H4S10832   2.085   1.088  10.082  0.0401  0.3832 -0.7140
  106OSM    C5S10833   2.105   1.296  10.025  0.3103 -0.0328  1.4010
  106OSM    H5S10834   2.166   1.387  10.037  0.4841 -0.2772  2.4578
  106OSM    C6S10835   2.022   1.277   9.903 -0.1590  0.3891  0.0355
  106OSM    H6S10836   1.924   1.328   9.909 -1.9068 -2.6663 -0.3393
  106OSM    H6T10837   1.997   1.169   9.892  1.4989 -0.1896  1.4230
  106OSM    C7S10838   2.105   1.310   9.777  0.0313  0.7206 -0.1141
  106OSM    H7S10839   2.190   1.241   9.759  0.3322  1.2788 -0.9296
  106OSM    H7T10840   2.161   1.406   9.792 -0.1411  0.4089  3.3913
  106OSM    C8S10841   2.016   1.316   9.654 -0.1473  0.6036 -0.6687
  106OSM    H8S10842   1.928   1.382   9.665 -0.2963  0.3548 -0.3384
  106OSM    H8T10843   1.957   1.222   9.642  2.8954 -1.3076 -1.9409
  106OSM    C9S10844   2.099   1.348   9.527 -0.3322 -0.0375 -0.0556
  106OSM    H9S10845   2.162   1.266   9.486 -0.3679 -0.3956  0.6086
  106OSM    H9T10846   2.169   1.427   9.559  0.4214 -1.6150  2.4210
  106OSM   C10S10847   2.015   1.408   9.414 -0.2572 -0.1856  0.1239
  106OSM   H10S10848   1.945   1.488   9.444 -2.4787 -1.0890 -2.2202
  106OSM   H10T10849   1.938   1.349   9.359  0.6844  1.0949 -2.7892
  106OSM   C11S10850   2.102   1.464   9.304 -0.8853 -0.5349  0.3612
  106OSM   H11S10851   2.154   1.554   9.345  0.5602 -0.8697 -0.6560
  106OSM   H11T10852   2.041   1.503   9.219 -0.1618  1.3660  0.6579
  106OSM   C12S10853   2.201   1.361   9.249 -0.6051 -0.2892  0.1616
  106OSM   H12S10854   2.151   1.263   9.233  0.0299 -0.2529 -2.4935
  106OSM   H12T10855   2.281   1.355   9.326 -0.3363  0.4783 -0.0541
  106OSM   C13S10856   2.264   1.403   9.115  0.3068 -0.4965  0.0180
  106OSM   H13S10857   2.314   1.502   9.123  0.9653 -0.3197 -4.2845
  106OSM   H13T10858   2.190   1.416   9.033  0.0833  2.0061  0.5229
  106OSM   C14S10859   2.375   1.312   9.071 -0.3213 -0.3166 -0.4161
  106OSM   H14S10860   2.345   1.204   9.069  2.8394 -1.3509  1.3795
  106OSM   H14T10861   2.446   1.326   9.155 -2.0539  0.9900  0.8967
  106OSM   C15S10862   2.436   1.353   8.936 -0.1372  0.9363  0.0305
  106OSM   H15S10863   2.433   1.463   8.919 -1.9727  0.7722 -0.9390
  106OSM   H15T10864   2.362   1.319   8.861 -0.0828  2.2302 -0.6437
  106OSM   C16S10865   2.578   1.278   8.919  0.0200  0.2716 -0.1095
  106OSM   H16S10866   2.582   1.171   8.949 -0.1407  0.9780  2.7213
  106OSM   H16T10867   2.639   1.328   8.997  2.7706 -0.3630 -1.7307
  106OSM   C17S10868   2.648   1.305   8.786  0.2324  0.8141 -1.2229
  106OSM   H17S10869   2.598   1.389   8.732 -0.2032  1.0824 -0.4180
  106OSM   H17T10870   2.647   1.219   8.716 -1.9106 -0.8536  0.6900
  106OSM   C18S10871   2.788   1.336   8.823  0.1446  0.0916 -0.4105
  106OSM   H18S10872   2.846   1.340   8.728 -1.4244 -0.9497 -1.4593
  106OSM   H18T10873   2.826   1.247   8.877 -0.2820 -0.5094 -1.0881
  106OSM   H18U10874   2.802   1.431   8.880  1.3785 -0.0090 -0.5157
  106OSM    C1F10875   2.500   1.081   9.999 -0.2746 -0.2245 -0.2567
  106OSM     OF10876   2.544   0.983  10.063 -0.2131  0.0662 -0.7942
  106OSM    C2F10877   2.525   1.107   9.852  0.3143 -0.2121  0.0964
  106OSM    H2F10878   2.622   1.160   9.842  0.0642 -0.1416 -2.5558
  106OSM    H2G10879   2.450   1.182   9.819 -5.3140 -5.2107 -0.1765
  106OSM    C3F10880   2.523   0.980   9.762  0.1070  1.0012 -0.5093
  106OSM    H3F10881   2.417   0.945   9.764  0.3950  0.1293  1.0265
  106OSM    H3G10882   2.577   0.897   9.812  1.5583  0.0139 -3.4910
  106OSM    C4F10883   2.575   0.999   9.625  0.6515  0.2445  0.1619
  106OSM    H4F10884   2.586   0.896   9.583 -3.1899 -0.6652  0.9334
  106OSM    H4G10885   2.674   1.048   9.628  0.2503  1.1164 -0.3996
  106OSM    C5F10886   2.475   1.072   9.537  0.2315  0.1084 -0.6390
  106OSM    H5F10887   2.450   1.171   9.581 -1.4195 -1.3744  2.0420
  106OSM    H5G10888   2.383   1.011   9.542 -0.0829  0.6589  0.8208
  106OSM    C6F10889   2.516   1.082   9.387  0.3490 -0.0443  0.0789
  106OSM    H6F10890   2.624   1.109   9.385  0.0775  1.0610 -0.6629
  106OSM    H6G10891   2.469   1.175   9.347  0.5332  0.1731  0.3625
  106OSM    C7F10892   2.490   0.952   9.308 -0.3525  0.1390 -0.4151
  106OSM    H7F10893   2.381   0.932   9.305 -0.4827  0.5267  0.9040
  106OSM    H7G10894   2.538   0.866   9.357 -2.3921 -0.8849 -0.0961
  106OSM    C8F10895   2.557   0.973   9.176 -0.5348 -0.0314  0.4730
  106OSM    H8F10896   2.667   0.965   9.183 -0.3018 -1.4090 -2.8917
  106OSM    H8G10897   2.547   1.079   9.142  3.2482  0.0517 -0.8049
  106OSM    C9F10898   2.514   0.881   9.067 -0.3910 -0.0650 -0.1354
  106OSM    H9F10899   2.439   0.925   9.000 -1.3207  0.7128  1.3611
  106OSM   C10F10900   2.556   0.754   9.029  0.2567  0.4740 -0.0075
  106OSM   H10F10901   2.522   0.715   8.931 -2.6522 -0.5027  1.2698
  106OSM   C11F10902   2.649   0.673   9.099  0.3239 -0.1494 -0.3718
  106OSM   H11F10903   2.594   0.599   9.161  1.7710  0.9928  2.4528
  106OSM   H11G10904   2.702   0.735   9.175  2.7283 -1.3496 -0.9728
  106OSM   C12F10905   2.749   0.608   9.014 -0.4709 -0.2257  0.7220
  106OSM   H12F10906   2.712   0.553   8.925  0.3136 -0.6454  0.6406
  106OSM   H12G10907   2.795   0.535   9.085  0.6229 -0.3112 -0.0547
  106OSM   C13F10908   2.863   0.699   8.977 -0.1968 -0.2588  0.5702
  106OSM   H13F10909   2.906   0.735   9.074  1.0534  0.1800 -0.1254
  106OSM   H13G10910   2.812   0.778   8.919  0.7974 -0.2394 -0.3150
  106OSM   C14F10911   2.970   0.632   8.888  0.4598  0.5036  0.7791
  106OSM   H14F10912   2.928   0.610   8.788 -1.2144  1.0348  1.3303
  106OSM   H14G10913   2.978   0.535   8.942 -1.3943  1.2058  2.4488
  106OSM   C15F10914   3.101   0.712   8.855 -0.2719 -0.6731  0.0116
  106OSM   H15F10915   3.137   0.753   8.953 -0.3140  0.2952 -0.3657
  106OSM   H15G10916   3.086   0.794   8.782 -0.8155 -0.4152  0.4057
  106OSM   C16F10917   3.213   0.627   8.794 -0.5771 -0.3876 -0.9412
  106OSM   H16F10918   3.299   0.691   8.765  0.5069 -1.7294 -0.7741
  106OSM   H16G10919   3.174   0.582   8.700 -1.6990 -1.7658  0.1362
  106OSM   C17F10920   3.267   0.522   8.889  0.4173  0.4593 -0.0904
  106OSM   H17F10921   3.225   0.422   8.867 -0.1343  0.0217  2.6086
  106OSM   H17G10922   3.248   0.543   8.997 -1.5996  1.7996 -0.6501
  106OSM   C18F10923   3.420   0.513   8.886 -0.5411 -0.0949  1.1676
  106OSM   H18F10924   3.464   0.613   8.905  1.2404 -0.2608 -1.5283
  106OSM   H18G10925   3.445   0.494   8.779 -4.5471  1.3447 -0.2273
  106OSM   H18H10926   3.464   0.436   8.953  1.2881 -1.0341 -0.9824
  107OSM      N10927   2.738   5.538  10.602  0.0276 -0.4587  0.9015
  107OSM    C1510928   2.757   5.660  10.687 -0.2244 -0.6453 -0.1786
  107OSM   H15A10929   2.758   5.630  10.791  1.2631  2.4440  0.8040
  107OSM   H15B10930   2.687   5.741  10.672  0.9399  0.3558 -0.3199
  107OSM   H15C10931   2.853   5.709  10.679 -0.7748  0.4591 -0.2249
  107OSM    C1410932   2.794   5.580  10.465  0.0308 -0.3294  0.5758
  107OSM   H14A10933   2.755   5.679  10.445  0.6104  0.1702  1.7703
  107OSM   H14B10934   2.763   5.515  10.385 -2.5422 -1.4258  2.3274
  107OSM   H14C10935   2.901   5.594  10.468  0.2616 -2.0354  1.8217
  107OSM    C1310936   2.823   5.427  10.655  0.1669 -0.5621 -0.1707
  107OSM   H13A10937   2.831   5.352  10.577 -1.8131  0.8870 -1.8849
  107OSM   H13B10938   2.781   5.384  10.744 -1.6300 -1.4132 -1.3471
  107OSM   H13C10939   2.927   5.446  10.677  0.5046 -1.4702 -0.8855
  107OSM    C1210940   2.597   5.491  10.602 -0.4198 -0.5570  0.0572
  107OSM   H12A10941   2.564   5.474  10.703 -2.9375  0.6123 -0.4959
  107OSM   H12B10942   2.583   5.395  10.554 -1.5660 -0.3328 -0.0688
  107OSM    C1110943   2.489   5.598  10.554 -0.6526 -0.4419 -0.0374
  107OSM   H11A10944   2.391   5.556  10.587 -0.9420 -0.6905 -1.1466
  107OSM   H11B10945   2.480   5.583  10.444  2.1561 -0.7634 -0.2795
  107OSM      P10946   2.419   5.790  10.710  0.4147 -0.0424 -0.2883
  107OSM    O1310947   2.392   5.682  10.811  0.3641 -0.4429 -0.3451
  107OSM    O1410948   2.483   5.912  10.756 -0.1133 -0.2214 -0.6806
  107OSM    O1110949   2.286   5.832  10.631 -0.0632  0.0051 -0.0656
  107OSM    O1210950   2.514   5.733  10.591  0.1186 -0.4959 -0.2794
  107OSM    C1S10951   2.275   5.940  10.543  0.4498 -0.2598  0.4807
  107OSM    H1S10952   2.328   6.029  10.582 -0.4979  0.0145  1.1564
  107OSM    H1T10953   2.168   5.965  10.534  0.3042 -1.2149 -0.7993
  107OSM     NF10954   2.329   6.009  10.306  0.3858  0.4125  0.3979
  107OSM    HNF10955   2.248   6.040  10.257 -0.3875  0.1938  1.4765
  107OSM    C2S10956   2.305   5.889  10.397  0.0760 -0.2951  0.2354
  107OSM    H2S10957   2.400   5.830  10.395 -0.2326 -0.8002  0.1803
  107OSM    C3S10958   2.200   5.780  10.352  0.9515 -0.0956  0.0256
  107OSM    H3S10959   2.113   5.849  10.347  0.6855 -0.1382  2.6698
  107OSM     O310960   2.164   5.682  10.449  0.2242  0.4070  0.2555
  107OSM    HO310961   2.198   5.718  10.531 -0.1689 -2.2467  1.6889
  107OSM    C4S10962   2.226   5.717  10.222  0.1492 -0.7041 -0.8290
  107OSM    H4S10963   2.197   5.783  10.138 -0.5208 -1.4484 -1.1983
  107OSM    C5S10964   2.296   5.604  10.194 -0.7034  0.4732 -0.0753
  107OSM    H5S10965   2.333   5.537  10.273  0.2878 -0.1083 -0.9952
  107OSM    C6S10966   2.326   5.551  10.054 -0.5588  0.0289 -0.6142
  107OSM    H6S10967   2.302   5.443  10.047 -2.3929  0.2707  1.2050
  107OSM    H6T10968   2.435   5.554  10.032 -0.8411  2.6448 -1.9612
  107OSM    C7S10969   2.266   5.626   9.939  0.5827  0.5735  0.2603
  107OSM    H7S10970   2.286   5.735   9.932 -2.0683  1.0422 -1.2947
  107OSM    H7T10971   2.156   5.615   9.946  0.4854  1.6374  0.4356
  107OSM    C8S10972   2.287   5.573   9.801 -0.9366  1.4196  0.6990
  107OSM    H8S10973   2.260   5.466   9.788  0.5567  1.0918  0.0356
  107OSM    H8T10974   2.397   5.571   9.785 -0.9931 -1.4494  0.1417
  107OSM    C9S10975   2.208   5.649   9.690 -0.7284 -0.2586 -0.7524
  107OSM    H9S10976   2.227   5.759   9.691 -1.2114 -0.1755  0.0284
  107OSM    H9T10977   2.098   5.637   9.692 -0.7907  0.2923 -0.5013
  107OSM   C10S10978   2.247   5.591   9.550 -0.1828 -0.3833 -0.1575
  107OSM   H10S10979   2.199   5.491   9.547  0.5511 -0.7725  0.6612
  107OSM   H10T10980   2.358   5.592   9.552  0.0518  3.5901 -2.8392
  107OSM   C11S10981   2.198   5.684   9.446 -0.2069  0.4380 -0.1702
  107OSM   H11S10982   2.235   5.783   9.481  0.7453 -0.0322  0.1879
  107OSM   H11T10983   2.089   5.699   9.456 -0.3964  0.0212 -1.4128
  107OSM   C12S10984   2.244   5.643   9.305  0.4134  1.0770  0.0202
  107OSM   H12S10985   2.228   5.534   9.298 -1.9243  1.3987 -0.6566
  107OSM   H12T10986   2.353   5.667   9.306  1.4494 -2.7248  3.2405
  107OSM   C13S10987   2.164   5.708   9.189 -0.5648  0.2740 -0.1117
  107OSM   H13S10988   2.161   5.819   9.190 -0.6693  0.3246  3.3739
  107OSM   H13T10989   2.059   5.674   9.202  0.2766 -2.3238  0.3114
  107OSM   C14S10990   2.209   5.652   9.056  0.0890  0.0485  0.4496
  107OSM   H14S10991   2.205   5.541   9.065 -0.4421 -0.0030 -0.3003
  107OSM   H14T10992   2.315   5.681   9.042  0.6741 -1.8070  0.7262
  107OSM   C15S10993   2.123   5.707   8.940 -0.6736 -0.3734 -0.2181
  107OSM   H15S10994   2.132   5.817   8.952 -0.3131 -0.4811  0.5504
  107OSM   H15T10995   2.020   5.666   8.946 -1.3186  1.2744  0.2529
  107OSM   C16S10996   2.165   5.676   8.794  0.1574  0.9780 -0.3990
  107OSM   H16S10997   2.154   5.565   8.790  1.6910  0.7837  0.2213
  107OSM   H16T10998   2.273   5.700   8.783 -0.2364  2.9419 -0.3638
  107OSM   C17S10999   2.077   5.734   8.692  0.6933  0.0957  0.1831
  107OSM   H17S11000   1.975   5.690   8.691  1.1124 -0.8981 -0.4357
  107OSM   H17T11001   2.116   5.716   8.589 -0.6385 -0.4981 -0.2451
  107OSM   C18S11002   2.059   5.887   8.713  0.3962 -0.1120 -0.1269
  107OSM   H18S11003   2.156   5.940   8.725  0.8335 -0.2107 -2.7268
  107OSM   H18T11004   1.995   5.906   8.802 -0.5161  1.1013 -0.9991
  107OSM   H18U11005   2.016   5.934   8.622  0.6903  0.2971 -0.0602
  107OSM    C1F11006   2.438   6.086  10.338 -0.7876  0.6561  1.1013
  107OSM     OF11007   2.537   6.037  10.402  0.1827  0.1148  0.4906
  107OSM    C2F11008   2.432   6.230  10.292  0.3450  0.3416 -0.6020
  107OSM    H2F11009   2.336   6.273  10.329  0.5121 -0.9746  1.5646
  107OSM    H2G11010   2.426   6.234  10.181 -0.4356 -2.4891 -0.7390
  107OSM    C3F11011   2.549   6.302  10.353 -0.3413  1.1831  0.3893
  107OSM    H3F11012   2.647   6.249  10.350 -0.2584  1.3463  0.1105
  107OSM    H3G11013   2.525   6.321  10.460 -1.2233  0.8835  0.2502
  107OSM    C4F11014   2.588   6.431  10.284 -0.0475 -0.3478 -0.1034
  107OSM    H4F11015   2.656   6.490  10.349  1.2419  0.3651 -2.0246
  107OSM    H4G11016   2.493   6.485  10.262  0.2720 -0.0694 -0.8174
  107OSM    C5F11017   2.677   6.412  10.156 -0.2016 -0.3669 -0.1572
  107OSM    H5F11018   2.635   6.344  10.079  0.4818  0.5307 -1.3727
  107OSM    H5G11019   2.765   6.355  10.191  0.6360  0.1613 -1.3266
  107OSM    C6F11020   2.723   6.535  10.087 -0.0262  0.3832 -0.3809
  107OSM    H6F11021   2.817   6.572  10.134 -0.5071  0.1139  0.8267
  107OSM    H6G11022   2.654   6.619  10.108  0.1948  0.4080  0.2636
  107OSM    C7F11023   2.750   6.521   9.939  0.1201  0.7058  0.0528
  107OSM    H7F11024   2.667   6.483   9.876 -1.4293  2.1698  1.1367
  107OSM    H7G11025   2.827   6.442   9.927 -1.4860 -0.9203 -0.0710
  107OSM    C8F11026   2.807   6.656   9.877 -0.4806 -0.6290  0.5135
  107OSM    H8F11027   2.810   6.632   9.769 -0.7151  0.0388  0.3591
  107OSM    H8G11028   2.912   6.669   9.913 -0.3794 -1.5210  0.5718
  107OSM    C9F11029   2.738   6.788   9.902  0.0026  0.9717 -0.3047
  107OSM    H9F11030   2.746   6.819  10.007  0.2841  1.0011 -0.3322
  107OSM   C10F11031   2.675   6.868   9.812 -0.2867  0.0295 -0.3531
  107OSM   H10F11032   2.643   6.968   9.842  0.9624  0.5705 -0.7417
  107OSM   C11F11033   2.668   6.851   9.665  0.3177  0.9093 -0.1391
  107OSM   H11F11034   2.585   6.780   9.647 -0.1927  1.2552  0.7776
  107OSM   H11G11035   2.759   6.798   9.629 -0.7494  0.3755 -2.1317
  107OSM   C12F11036   2.654   6.988   9.591  0.8705  0.6165 -0.3008
  107OSM   H12F11037   2.741   7.052   9.616 -0.8234  1.5173  4.1669
  107OSM   H12G11038   2.567   7.042   9.633 -0.0445 -1.5937  0.7800
  107OSM   C13F11039   2.642   6.969   9.444 -0.0933 -0.2958 -0.4796
  107OSM   H13F11040   2.675   6.870   9.406 -0.3622 -0.4549 -0.3019
  107OSM   H13G11041   2.701   7.049   9.394 -2.7569  0.9990 -1.7018
  107OSM   C14F11042   2.512   7.012   9.389 -0.0333 -0.1619 -0.6135
  107OSM   H14F11043   2.481   7.108   9.435 -1.6826 -0.7844 -0.3380
  107OSM   H14G11044   2.428   6.943   9.413 -0.3056  0.4005  0.0930
  107OSM   C15F11045   2.500   7.008   9.236  0.0601 -0.5930  0.0981
  107OSM   H15F11046   2.399   7.047   9.211 -0.4889 -0.2814  2.5472
  107OSM   H15G11047   2.503   6.905   9.196  0.4247 -1.2222  1.6630
  107OSM   C16F11048   2.590   7.106   9.167 -0.1125  0.2160 -0.0857
  107OSM   H16F11049   2.698   7.113   9.195  0.1205  2.7576 -1.2878
  107OSM   H16G11050   2.561   7.207   9.203 -0.5730 -0.1752  0.6822
  107OSM   C17F11051   2.578   7.105   9.014  0.0476 -0.6815 -0.3928
  107OSM   H17F11052   2.590   7.000   8.981  1.0949 -0.3155 -1.2379
  107OSM   H17G11053   2.672   7.150   8.974 -0.5658 -0.0750 -1.1650
  107OSM   C18F11054   2.454   7.164   8.943  0.2209 -0.0383 -0.0952
  107OSM   H18F11055   2.450   7.270   8.976  0.3852 -0.1328  0.2333
  107OSM   H18G11056   2.356   7.118   8.966 -0.9439  1.0281 -2.4883
  107OSM   H18H11057   2.464   7.155   8.833 -1.4833  1.9316 -0.4773
  108OSM      N11058   5.689   3.735  10.857 -0.2638 -0.3577  0.4827
  108OSM    C1511059   5.590   3.640  10.905 -0.1285  0.1275  0.6558
  108OSM   H15A11060   5.571   3.559  10.836  2.1573  1.7049 -2.0118
  108OSM   H15B11061   5.494   3.690  10.915  0.1190  0.9121 -0.6033
  108OSM   H15C11062   5.619   3.584  10.992 -0.8515 -2.9325 -0.9163
  108OSM    C1411063   5.720   3.828  10.968 -0.1063  0.0420  0.1328
  108OSM   H14A11064   5.782   3.780  11.042 -1.2315 -1.9825 -0.1655
  108OSM   H14B11065   5.630   3.858  11.019  0.1764 -2.2378  2.1310
  108OSM   H14C11066   5.771   3.917  10.935  2.8606 -1.2650  0.8569
  108OSM    C1311067   5.807   3.658  10.816  0.7769 -0.0754 -0.0904
  108OSM   H13A11068   5.863   3.618  10.900  2.4821  3.8640  0.8618
  108OSM   H13B11069   5.884   3.721  10.774 -0.3970  1.7170  0.3475
  108OSM   H13C11070   5.784   3.577  10.748  0.1070  2.0120 -2.4700
  108OSM    C1211071   5.626   3.802  10.734  0.2542  0.1534 -0.2294
  108OSM   H12A11072   5.543   3.859  10.773  0.6688 -0.5733  1.8898
  108OSM   H12B11073   5.598   3.723  10.667  1.1141 -0.7989  0.4988
  108OSM    C1111074   5.717   3.903  10.659  0.4908  0.3157  0.2375
  108OSM   H11A11075   5.667   3.935  10.566  0.6705  0.2072  0.1017
  108OSM   H11B11076   5.802   3.839  10.626 -0.3255 -1.4614  1.4145
  108OSM      P11077   5.649   4.128  10.772  0.2340  0.2187  0.2587
  108OSM    O1311078   5.526   4.061  10.805  0.3409 -0.0148  0.5610
  108OSM    O1411079   5.703   4.222  10.876  0.1156  0.1584  0.0399
  108OSM    O1111080   5.634   4.207  10.633  0.1829 -0.7375 -0.1408
  108OSM    O1211081   5.762   4.016  10.742 -0.2774  0.0756 -0.0975
  108OSM    C1S11082   5.746   4.263  10.562  0.0445 -0.7546  0.0128
  108OSM    H1S11083   5.839   4.202  10.566 -0.7265 -2.0517 -1.0732
  108OSM    H1T11084   5.770   4.359  10.612 -0.3077 -0.2170 -0.8282
  108OSM     NF11085   5.817   4.359  10.345  0.2788 -0.4117 -0.3324
  108OSM    HNF11086   5.808   4.455  10.320 -0.6682 -0.5743 -0.6449
  108OSM    C2S11087   5.706   4.295  10.417 -0.6092 -0.8139 -0.0420
  108OSM    H2S11088   5.693   4.197  10.367  1.4367 -1.6878  1.0148
  108OSM    C3S11089   5.581   4.385  10.403  0.2402  0.5958 -0.0487
  108OSM    H3S11090   5.586   4.483  10.455 -1.2179 -0.0796  1.4801
  108OSM     O311091   5.469   4.325  10.475 -0.5095 -0.1998 -0.2503
  108OSM    HO311092   5.496   4.246  10.522 -1.3435  0.4861  1.4511
  108OSM    C4S11093   5.538   4.406  10.261 -0.4544  0.5422 -0.2691
  108OSM    H4S11094   5.528   4.514  10.244  0.2017  0.4215 -1.5827
  108OSM    C5S11095   5.490   4.317  10.168 -0.6617 -0.1488 -0.3579
  108OSM    H5S11096   5.487   4.212  10.199 -1.0905 -0.2033 -0.5820
  108OSM    C6S11097   5.464   4.349  10.025 -0.3260 -0.1197  0.1187
  108OSM    H6S11098   5.425   4.453  10.011 -1.2734 -0.4949 -0.1145
  108OSM    H6T11099   5.390   4.273   9.992 -0.9921  0.0119  1.2164
  108OSM    C7S11100   5.590   4.333   9.933 -0.1444 -0.1980  0.6364
  108OSM    H7S11101   5.640   4.234   9.938 -1.5926 -1.1719 -2.0395
  108OSM    H7T11102   5.666   4.407   9.965  0.8354 -0.3627 -1.2165
  108OSM    C8S11103   5.562   4.365   9.787 -0.1256 -0.2705  0.4700
  108OSM    H8S11104   5.514   4.465   9.778 -0.9554 -0.5903  1.1432
  108OSM    H8T11105   5.493   4.285   9.750  1.4435 -1.0333 -0.9505
  108OSM    C9S11106   5.689   4.359   9.698  0.5261 -0.5042 -0.4112
  108OSM    H9S11107   5.738   4.261   9.717  1.3025  0.3657  2.5327
  108OSM    H9T11108   5.765   4.432   9.733  1.6983 -1.3286 -1.1558
  108OSM   C10S11109   5.665   4.385   9.543  1.0191  0.0685 -0.1087
  108OSM   H10S11110   5.628   4.489   9.529  1.8304  0.1845 -1.6289
  108OSM   H10T11111   5.583   4.322   9.501 -0.6630  0.8037  1.9196
  108OSM   C11S11112   5.792   4.372   9.458  0.4076 -0.3631  0.1557
  108OSM   H11S11113   5.829   4.267   9.460 -0.4736 -0.7054  2.8589
  108OSM   H11T11114   5.866   4.451   9.484 -2.4180  3.5256 -2.5305
  108OSM   C12S11115   5.750   4.393   9.305  0.1609 -0.6471 -0.3790
  108OSM   H12S11116   5.707   4.495   9.303  1.5209 -0.0013  0.8720
  108OSM   H12T11117   5.668   4.324   9.279 -0.3927 -0.1893  0.1298
  108OSM   C13S11118   5.872   4.380   9.206  0.0267 -0.2119 -1.1098
  108OSM   H13S11119   5.919   4.281   9.223  0.7225  0.1374 -0.9889
  108OSM   H13T11120   5.947   4.457   9.231 -0.6152 -0.7205  3.2320
  108OSM   C14S11121   5.826   4.383   9.065 -0.0678  0.0957  0.3349
  108OSM   H14S11122   5.910   4.374   8.992 -0.7231 -1.1173 -0.2889
  108OSM   H14T11123   5.773   4.478   9.040  0.0691 -0.2259 -1.2853
  108OSM   C15S11124   5.740   4.271   9.020 -0.3252  0.4185  0.6731
  108OSM   H15S11125   5.645   4.291   9.074  1.4804  0.2075  4.1947
  108OSM   H15T11126   5.773   4.167   9.041  2.9175  1.3682  0.7536
  108OSM   C16S11127   5.697   4.287   8.870  1.1944 -0.3138  0.1655
  108OSM   H16S11128   5.782   4.246   8.810 -0.2946 -1.5601 -1.1848
  108OSM   H16T11129   5.680   4.393   8.841  1.5593 -0.3335 -0.1350
  108OSM   C17S11130   5.569   4.209   8.844 -0.2578 -0.4279 -0.6988
  108OSM   H17S11131   5.485   4.262   8.894 -1.0258 -2.1171 -0.0829
  108OSM   H17T11132   5.589   4.114   8.898  0.6295  1.2969  2.1901
  108OSM   C18S11133   5.527   4.181   8.699 -0.1794 -0.0977  0.0473
  108OSM   H18S11134   5.528   4.270   8.632 -1.5680  0.1712  0.3665
  108OSM   H18T11135   5.429   4.129   8.692  1.3301 -2.9526 -2.3033
  108OSM   H18U11136   5.604   4.114   8.655 -0.7696  0.4020 -1.8273
  108OSM    C1F11137   5.928   4.289  10.320 -0.6590 -0.0557 -0.3043
  108OSM     OF11138   5.937   4.178  10.360  0.2917 -0.6250  0.3586
  108OSM    C2F11139   6.042   4.362  10.251  0.2546  0.2639 -0.3097
  108OSM    H2F11140   6.108   4.395  10.333  2.4612  0.3908 -2.0274
  108OSM    H2G11141   6.005   4.445  10.186 -0.7261  3.0152  3.4287
  108OSM    C3F11142   6.149   4.272  10.173  0.4439  0.4487 -0.2512
  108OSM    H3F11143   6.160   4.175  10.226 -2.2376 -0.7079 -1.5526
  108OSM    H3G11144   6.251   4.314  10.174  0.4234  0.8884 -3.9603
  108OSM    C4F11145   6.113   4.222  10.038  0.1319  0.4539  0.2806
  108OSM    H4F11146   6.023   4.158  10.053  0.5460  0.0592  1.1988
  108OSM    H4G11147   6.199   4.164  10.000  0.7862  0.2139  2.0189
  108OSM    C5F11148   6.080   4.328   9.928 -0.0559  0.7752  0.2473
  108OSM    H5F11149   6.172   4.390   9.929  0.1325  0.5258 -0.4855
  108OSM    H5G11150   5.989   4.388   9.953 -0.5510  0.3381 -0.4544
  108OSM    C6F11151   6.067   4.267   9.785  0.4847  0.1035  0.1979
  108OSM    H6F11152   5.964   4.225   9.782  0.3669 -0.0401  3.2935
  108OSM    H6G11153   6.146   4.190   9.777  2.1536  1.6161  1.4458
  108OSM    C7F11154   6.082   4.376   9.678  0.5259 -0.3748 -0.5789
  108OSM    H7F11155   6.159   4.448   9.710  1.2275 -1.8913  1.3462
  108OSM    H7G11156   5.983   4.424   9.661 -0.4127 -1.6026  1.1144
  108OSM    C8F11157   6.134   4.317   9.542 -0.0221  0.1601 -0.3522
  108OSM    H8F11158   6.116   4.394   9.464  1.8595  1.3578  0.3244
  108OSM    H8G11159   6.057   4.242   9.514 -1.4365  1.5788 -0.4054
  108OSM    C9F11160   6.273   4.254   9.528 -0.0632 -0.1800  0.4320
  108OSM    H9F11161   6.302   4.180   9.604  1.5295 -1.2092 -1.0878
  108OSM   C10F11162   6.365   4.274   9.430 -1.0334 -0.9582  0.6339
  108OSM   H10F11163   6.456   4.212   9.431  0.1718  0.7286  2.5249
  108OSM   C11F11164   6.378   4.375   9.310  0.2419 -0.0889 -0.5267
  108OSM   H11F11165   6.466   4.443   9.316 -0.3668  0.8329 -1.7253
  108OSM   H11G11166   6.292   4.445   9.304  0.5612  0.4418  0.8094
  108OSM   C12F11167   6.378   4.291   9.176  0.0329 -1.2605 -0.8328
  108OSM   H12F11168   6.300   4.212   9.188 -0.2799 -0.7310  0.8674
  108OSM   H12G11169   6.480   4.250   9.164  1.4180  1.8315 -0.6110
  108OSM   C13F11170   6.346   4.377   9.053  0.3066 -0.5538 -0.4668
  108OSM   H13F11171   6.411   4.467   9.043 -0.8798  0.3288 -0.5028
  108OSM   H13G11172   6.246   4.426   9.053  0.6608  0.2121  0.1186
  108OSM   C14F11173   6.370   4.293   8.923  0.5303  0.6123  0.5585
  108OSM   H14F11174   6.329   4.191   8.936  1.8193 -0.0627 -0.4245
  108OSM   H14G11175   6.479   4.273   8.915  0.4729 -0.2481  1.7261
  108OSM   C15F11176   6.309   4.355   8.796  0.3168 -0.3485 -0.0107
  108OSM   H15F11177   6.327   4.464   8.791  2.0557 -0.6514 -4.2716
  108OSM   H15G11178   6.198   4.345   8.799 -0.0173  1.9486 -1.6381
  108OSM   C16F11179   6.354   4.276   8.677  0.3475 -0.0921  0.9642
  108OSM   H16F11180   6.355   4.165   8.686  1.0923 -0.4091 -2.1061
  108OSM   H16G11181   6.456   4.311   8.650 -0.0817  0.4003 -0.0520
  108OSM   C17F11182   6.283   4.303   8.540  0.1495  0.0624  0.5203
  108OSM   H17F11183   6.274   4.413   8.534  1.7263  0.3707  2.6810
  108OSM   H17G11184   6.181   4.258   8.535  0.6436 -0.9371 -1.6103
  108OSM   C18F11185   6.357   4.244   8.417  1.1686  0.7960  0.1401
  108OSM   H18F11186   6.461   4.284   8.417  0.8285  1.7667 -1.3152
  108OSM   H18G11187   6.303   4.284   8.328 -0.1520 -2.4092 -0.6103
  108OSM   H18H11188   6.359   4.133   8.417 -1.2052  0.7165 -0.0800
  109OSM      N11189   6.572   5.516  10.958 -0.0073  0.5501 -0.5759
  109OSM    C1511190   6.703   5.444  10.939 -0.5636 -0.1659 -0.1358
  109OSM   H15A11191   6.779   5.499  10.991 -0.0487  1.2097 -2.2373
  109OSM   H15B11192   6.734   5.449  10.836 -0.2842 -0.3169 -0.0598
  109OSM   H15C11193   6.692   5.343  10.975  2.7790 -0.1347  1.3253
  109OSM    C1411194   6.463   5.442  10.887 -0.4707  0.0878  0.7408
  109OSM   H14A11195   6.470   5.334  10.890 -0.5693  0.0499 -0.1883
  109OSM   H14B11196   6.459   5.479  10.786  2.5424  0.5027  0.6777
  109OSM   H14C11197   6.366   5.465  10.929 -0.7444  2.2560 -0.9129
  109OSM    C1311198   6.540   5.515  11.107 -0.7374 -0.1384  0.2416
  109OSM   H13A11199   6.523   5.415  11.142 -1.3271  0.7625  2.7515
  109OSM   H13B11200   6.448   5.571  11.122  0.3662  1.5659  1.0068
  109OSM   H13C11201   6.624   5.562  11.155 -0.3229 -0.2733 -0.3428
  109OSM    C1211202   6.585   5.658  10.924 -0.3133  0.0114 -0.1766
  109OSM   H12A11203   6.660   5.702  10.989 -0.2376  0.3226 -0.4731
  109OSM   H12B11204   6.491   5.703  10.954  0.1663  1.7171 -1.1261
  109OSM    C1111205   6.604   5.696  10.782 -0.1001  0.0459  0.1570
  109OSM   H11A11206   6.701   5.658  10.744 -0.0133 -0.4508  0.8542
  109OSM   H11B11207   6.612   5.807  10.780 -2.4479  0.3102  1.5951
  109OSM      P11208   6.355   5.729  10.708 -0.2889  0.1712 -0.0350
  109OSM    O1311209   6.248   5.663  10.636  0.4292  0.1345 -0.3552
  109OSM    O1411210   6.317   5.762  10.849  0.4817  0.6925 -0.4264
  109OSM    O1111211   6.382   5.867  10.644 -0.0957 -0.7469  0.2852
  109OSM    O1211212   6.493   5.651  10.699 -0.8719 -1.0200 -0.4145
  109OSM    C1S11213   6.437   5.876  10.514  0.3617 -0.2194  0.0801
  109OSM    H1S11214   6.476   5.782  10.471 -0.1404 -1.5045  2.2600
  109OSM    H1T11215   6.527   5.939  10.528  0.2472 -0.2941  1.2697
  109OSM     NF11216   6.409   5.945  10.284 -0.3489 -0.2083 -0.4122
  109OSM    HNF11217   6.464   6.026  10.272  0.3466 -0.7282 -0.8181
  109OSM    C2S11218   6.333   5.944  10.414 -1.0238  0.5461  0.1511
  109OSM    H2S11219   6.240   5.883  10.409 -1.0165  0.6271 -2.6548
  109OSM    C3S11220   6.303   6.089  10.463 -0.4202 -0.2096 -0.1320
  109OSM    H3S11221   6.396   6.145  10.486 -0.3809  0.9767 -2.8924
  109OSM     O311222   6.241   6.107  10.594 -0.1960  0.4284  0.6299
  109OSM    HO311223   6.245   6.018  10.630 -2.0476  0.1330  0.2158
  109OSM    C4S11224   6.228   6.159  10.362  0.3380  0.2162  0.4228
  109OSM    H4S11225   6.135   6.109  10.331  0.9193 -1.0948  0.7579
  109OSM    C5S11226   6.266   6.269  10.293  0.0863 -0.5703 -0.1978
  109OSM    H5S11227   6.366   6.313  10.303 -0.4484  1.2185 -2.0626
  109OSM    C6S11228   6.188   6.324  10.182 -0.1627 -0.4124 -0.0973
  109OSM    H6S11229   6.229   6.425  10.161  0.4966 -0.9062 -1.2619
  109OSM    H6T11230   6.083   6.344  10.214  0.1150 -2.8318  2.8178
  109OSM    C7S11231   6.179   6.249  10.055 -0.0262 -1.0781 -0.0988
  109OSM    H7S11232   6.134   6.321   9.984  2.5323  0.8056  0.0220
  109OSM    H7T11233   6.124   6.155  10.074 -0.4371 -0.6438  0.9468
  109OSM    C8S11234   6.312   6.204   9.990  0.0844  0.1801  0.0199
  109OSM    H8S11235   6.359   6.124  10.051  0.8151 -0.0593 -0.8438
  109OSM    H8T11236   6.376   6.294   9.989  2.3372 -1.2684 -2.8232
  109OSM    C9S11237   6.300   6.159   9.844  0.7126  0.2561 -0.4868
  109OSM    H9S11238   6.205   6.101   9.847  2.0651 -2.0277  0.7928
  109OSM    H9T11239   6.367   6.079   9.805 -0.9014 -2.6310  2.1823
  109OSM   C10S11240   6.289   6.263   9.740 -0.1712  0.2628  0.5868
  109OSM   H10S11241   6.387   6.315   9.734  1.0069 -1.7096  1.5662
  109OSM   H10T11242   6.212   6.339   9.765  0.2092  1.9465 -2.7729
  109OSM   C11S11243   6.242   6.217   9.598  0.2077  0.3319 -0.3929
  109OSM   H11S11244   6.297   6.127   9.562 -1.2164 -0.6854 -0.0978
  109OSM   H11T11245   6.266   6.295   9.522  1.7831  0.3240  0.0582
  109OSM   C12S11246   6.085   6.170   9.602 -0.1038 -0.8655  0.4347
  109OSM   H12S11247   6.019   6.258   9.614  0.8985  0.1291 -1.0615
  109OSM   H12T11248   6.069   6.106   9.692 -1.0651 -2.5081 -0.8505
  109OSM   C13S11249   6.029   6.107   9.471 -0.1229 -0.6503  0.3539
  109OSM   H13S11250   5.926   6.076   9.498 -1.0025  1.1047 -0.7839
  109OSM   H13T11251   6.096   6.021   9.451 -0.1765 -1.5874  3.6527
  109OSM   C14S11252   6.034   6.202   9.355 -0.4789  0.6615 -0.6291
  109OSM   H14S11253   6.134   6.245   9.332  0.4657 -0.1848  1.5942
  109OSM   H14T11254   5.969   6.287   9.384 -0.1803 -0.0155  2.3348
  109OSM   C15S11255   5.979   6.142   9.230 -0.0607 -0.2571  0.5073
  109OSM   H15S11256   5.884   6.086   9.245 -0.2662  0.2218  1.0886
  109OSM   H15T11257   6.052   6.071   9.188 -0.3826  0.9435 -2.2841
  109OSM   C16S11258   5.949   6.250   9.125 -0.4950  0.4176  0.0478
  109OSM   H16S11259   5.873   6.321   9.164  1.0064  1.0558  1.9702
  109OSM   H16T11260   5.899   6.209   9.035 -0.0965 -1.0335  0.4462
  109OSM   C17S11261   6.073   6.334   9.092 -0.2728 -0.2310  0.1177
  109OSM   H17S11262   6.164   6.272   9.085  0.5207  0.7382  1.4605
  109OSM   H17T11263   6.101   6.405   9.172  0.2572  0.4110 -0.6217
  109OSM   C18S11264   6.049   6.415   8.970  0.0470 -1.3631 -0.5703
  109OSM   H18S11265   5.946   6.458   8.972  0.0829 -1.0524 -2.6490
  109OSM   H18T11266   6.051   6.350   8.880 -1.6400 -2.1400 -0.0931
  109OSM   H18U11267   6.123   6.496   8.954 -0.1093 -1.4420 -1.7776
  109OSM    C1F11268   6.432   5.839  10.210 -0.0403 -0.2348  0.2592
  109OSM     OF11269   6.377   5.732  10.230 -0.2982 -0.0829 -0.0126
  109OSM    C2F11270   6.528   5.859  10.087  0.1070 -0.0649 -0.6590
  109OSM    H2F11271   6.596   5.947  10.100 -0.9941  0.8564 -0.9404
  109OSM    H2G11272   6.474   5.888   9.995  2.9000 -0.6937 -2.6166
  109OSM    C3F11273   6.616   5.736  10.070 -0.8484 -0.4748  0.0721
  109OSM    H3F11274   6.550   5.647  10.072 -0.0732 -1.0540  0.5984
  109OSM    H3G11275   6.672   5.721  10.165 -2.0293 -1.7249  0.5964
  109OSM    C4F11276   6.707   5.744   9.945 -0.2179  0.0705 -1.2145
  109OSM    H4F11277   6.791   5.673   9.963 -0.6978 -0.7704 -2.1406
  109OSM    H4G11278   6.750   5.845   9.927  2.5919 -1.2009 -2.1270
  109OSM    C5F11279   6.628   5.695   9.830  0.2028  0.6719  0.2087
  109OSM    H5F11280   6.551   5.773   9.810 -1.2781 -0.7166  0.2810
  109OSM    H5G11281   6.579   5.597   9.847 -0.1461  0.0674 -3.4761
  109OSM    C6F11282   6.720   5.686   9.705 -0.1830 -0.5188 -0.1851
  109OSM    H6F11283   6.823   5.702   9.743 -0.1742  0.3986 -0.5850
  109OSM    H6G11284   6.694   5.770   9.638  1.2100 -0.2155 -0.3641
  109OSM    C7F11285   6.698   5.551   9.623 -0.5598  0.7146 -0.5972
  109OSM    H7F11286   6.590   5.536   9.603 -0.9937 -1.0733  2.5541
  109OSM    H7G11287   6.724   5.467   9.690 -1.5169  1.1009  0.2678
  109OSM    C8F11288   6.787   5.523   9.494  0.7658 -0.2431 -0.3707
  109OSM    H8F11289   6.739   5.434   9.449  0.1743 -0.3692  0.5076
  109OSM    H8G11290   6.886   5.497   9.538 -0.2200 -1.1593  1.3583
  109OSM    C9F11291   6.815   5.640   9.403 -0.1892 -0.0345 -0.1204
  109OSM    H9F11292   6.887   5.709   9.451  0.2550 -1.3748  1.2394
  109OSM   C10F11293   6.764   5.655   9.277 -0.3163  0.1440 -0.1684
  109OSM   H10F11294   6.765   5.760   9.245 -0.3833 -0.6282 -2.8853
  109OSM   C11F11295   6.670   5.569   9.195  0.5916 -0.3315  0.6695
  109OSM   H11F11296   6.570   5.578   9.243  1.2521 -2.9286  2.7575
  109OSM   H11G11297   6.699   5.462   9.200  1.8468 -0.0224  0.1903
  109OSM   C12F11298   6.659   5.627   9.051 -0.2281 -0.4206  0.1262
  109OSM   H12F11299   6.758   5.617   9.003  0.8881  3.9268  1.0879
  109OSM   H12G11300   6.646   5.737   9.046  1.8214 -0.1809 -0.8417
  109OSM   C13F11301   6.555   5.555   8.964  0.5812  0.1305  1.0172
  109OSM   H13F11302   6.456   5.585   9.003  1.1861  0.3462  2.4818
  109OSM   H13G11303   6.584   5.447   8.962 -0.4524 -0.1576 -1.7302
  109OSM   C14F11304   6.572   5.599   8.817  0.1169  0.1183  0.5176
  109OSM   H14F11305   6.678   5.576   8.794  0.2562  1.0127  0.2496
  109OSM   H14G11306   6.562   5.708   8.802  2.9683  0.4714  0.7794
  109OSM   C15F11307   6.482   5.525   8.708 -0.2673 -0.2369 -0.1131
  109OSM   H15F11308   6.375   5.538   8.737 -0.3060  3.2704 -1.3577
  109OSM   H15G11309   6.515   5.419   8.709  1.2869  0.2212  0.1343
  109OSM   C16F11310   6.516   5.590   8.570 -1.0260 -0.1838  0.1601
  109OSM   H16F11311   6.616   5.557   8.536 -1.1691  1.3127 -1.9310
  109OSM   H16G11312   6.523   5.700   8.583  2.0024 -0.2694 -0.1727
  109OSM   C17F11313   6.425   5.559   8.449  0.2840  0.3220  0.0398
  109OSM   H17F11314   6.324   5.592   8.481  0.3191  1.1860 -0.7025
  109OSM   H17G11315   6.426   5.450   8.428  1.4413  0.4163 -0.4922
  109OSM   C18F11316   6.461   5.642   8.327  0.1413 -0.0562 -0.0778
  109OSM   H18F11317   6.388   5.628   8.245  0.2833  0.1194 -0.2332
  109OSM   H18G11318   6.561   5.601   8.301 -0.4973 -0.6200 -1.7662
  109OSM   H18H11319   6.479   5.749   8.352 -1.3746  0.2042 -0.0090
  110OSM      N11320   0.896   0.247  10.853 -0.2309 -0.5715 -0.1030
  110OSM    C1511321   0.798   0.333  10.929 -0.0365 -0.0659 -0.3060
  110OSM   H15A11322   0.850   0.423  10.959  1.1798 -0.9340  0.2556
  110OSM   H15B11323   0.749   0.290  11.015 -1.2840  0.9745 -0.4543
  110OSM   H15C11324   0.720   0.359  10.859  1.0381 -0.6328 -1.7719
  110OSM    C1411325   0.944   0.316  10.730 -0.5763 -0.1772  0.3421
  110OSM   H14A11326   1.021   0.389  10.751 -0.0599  0.3674 -2.8273
  110OSM   H14B11327   0.869   0.366  10.670  0.1959 -0.2492 -0.7313
  110OSM   H14C11328   0.990   0.247  10.660 -1.4492  0.1394 -0.5784
  110OSM    C1311329   1.011   0.212  10.943  0.3670  0.2759 -0.4309
  110OSM   H13A11330   1.061   0.304  10.968 -0.7042  1.0376 -1.0671
  110OSM   H13B11331   1.088   0.155  10.893  1.2076 -0.3232  1.4380
  110OSM   H13C11332   0.980   0.152  11.028  0.5069 -1.0860 -1.3123
  110OSM    C1211333   0.829   0.118  10.807 -0.4206 -0.1099 -0.5182
  110OSM   H12A11334   0.895   0.061  10.744 -0.0810  0.3965 -0.6205
  110OSM   H12B11335   0.738   0.134  10.750 -2.7911 -0.1474  2.9728
  110OSM    C1111336   0.789   0.012  10.918  0.4151  0.7505  0.0492
  110OSM   H11A11337   0.871  -0.004  10.991  2.2930  0.7634 -1.9445
  110OSM   H11B11338   0.772  -0.087  10.869  1.8895 -0.4636  1.8499
  110OSM      P11339   0.527   0.034  10.930  0.2714 -0.3534  0.2192
  110OSM    O1311340   0.450  -0.081  10.976  0.3548  0.4760  0.0670
  110OSM    O1411341   0.455   0.160  10.955  0.6695 -0.8312 -0.0919
  110OSM    O1111342   0.541   0.028  10.770  0.6395  0.2843  0.0806
  110OSM    O1211343   0.670   0.041  10.987  0.0220 -0.3738 -0.4301
  110OSM    C1S11344   0.433   0.044  10.679 -0.1419 -0.1727 -0.4299
  110OSM    H1S11345   0.391   0.146  10.689  0.2056 -0.0490 -0.2121
  110OSM    H1T11346   0.345  -0.019  10.704 -0.4279  0.5891  0.5751
  110OSM     NF11347   0.387   0.080  10.437  0.4445 -0.5814 -0.1412
  110OSM    HNF11348   0.344   0.008  10.383 -0.9133 -0.4200  0.6604
  110OSM    C2S11349   0.486   0.038  10.535 -0.2981  0.0944 -0.4176
  110OSM    H2S11350   0.570   0.110  10.529 -0.5252  0.3733 -0.2461
  110OSM    C3S11351   0.530  -0.115  10.524  0.4427 -0.5298 -0.1840
  110OSM    H3S11352   0.443  -0.185  10.531  0.9089 -1.1992 -0.8361
  110OSM     O311353   0.616  -0.165  10.629  0.2891 -0.0056 -0.0514
  110OSM    HO311354   0.604  -0.110  10.707  2.5156  0.7169 -0.1370
  110OSM    C4S11355   0.586  -0.139  10.389 -0.6763  0.7583  0.0937
  110OSM    H4S11356   0.512  -0.159  10.310 -0.2536 -0.1425 -0.0760
  110OSM    C5S11357   0.720  -0.147  10.347  0.1212 -0.5117  0.2798
  110OSM    H5S11358   0.798  -0.126  10.421  0.5393  3.7341 -1.0949
  110OSM    C6S11359   0.764  -0.162  10.203 -0.1820  0.5008  0.3795
  110OSM    H6S11360   0.844  -0.238  10.196  0.3504  1.1680 -1.1837
  110OSM    H6T11361   0.822  -0.074  10.169  1.0103 -1.1825 -2.2878
  110OSM    C7S11362   0.656  -0.190  10.091 -0.4296 -0.6797 -0.6043
  110OSM    H7S11363   0.584  -0.106  10.102  0.7860  0.1904  1.1619
  110OSM    H7T11364   0.602  -0.286  10.110  0.5553 -0.8864  1.4028
  110OSM    C8S11365   0.710  -0.180   9.954  0.1145  0.1164  0.2277
  110OSM    H8S11366   0.792  -0.254   9.939 -1.3818 -2.3074  3.0517
  110OSM    H8T11367   0.755  -0.083   9.925  0.2158  0.6441  2.0455
  110OSM    C9S11368   0.618  -0.220   9.843 -0.6020 -0.2017 -0.6043
  110OSM    H9S11369   0.521  -0.166   9.839  0.4499  1.7591 -1.0735
  110OSM    H9T11370   0.594  -0.328   9.851  2.3688 -1.0310 -1.4810
  110OSM   C10S11371   0.674  -0.190   9.702  1.2456 -0.3184 -0.0767
  110OSM   H10S11372   0.751  -0.261   9.664  0.3722 -2.4359  1.9151
  110OSM   H10T11373   0.719  -0.088   9.707  1.4779 -0.3520 -1.1063
  110OSM   C11S11374   0.554  -0.178   9.606 -0.6928  0.5520 -0.4416
  110OSM   H11S11375   0.497  -0.086   9.632 -1.6113  0.1750 -1.0659
  110OSM   H11T11376   0.490  -0.268   9.609  2.9198 -2.2150  0.5886
  110OSM   C12S11377   0.607  -0.156   9.466 -0.1148  1.3654  0.4056
  110OSM   H12S11378   0.674  -0.239   9.436 -2.2921 -0.9147  1.4341
  110OSM   H12T11379   0.670  -0.066   9.450  0.6115  0.3761 -3.0952
  110OSM   C13S11380   0.494  -0.130   9.364 -0.7740  0.2229 -0.1106
  110OSM   H13S11381   0.440  -0.038   9.394 -0.4517  0.5997 -0.6622
  110OSM   H13T11382   0.417  -0.209   9.353 -1.3906  0.9501 -1.2195
  110OSM   C14S11383   0.549  -0.096   9.227  0.0063  0.0271 -0.9314
  110OSM   H14S11384   0.607  -0.181   9.184  0.5446 -0.0063 -0.1572
  110OSM   H14T11385   0.619  -0.011   9.241 -0.6955  1.1452 -3.5189
  110OSM   C15S11386   0.443  -0.026   9.140  0.7124  0.7133  0.6402
  110OSM   H15S11387   0.390   0.068   9.166 -3.3123 -0.3436 -2.6688
  110OSM   H15T11388   0.361  -0.100   9.129  1.1653  0.0452  1.5658
  110OSM   C16S11389   0.492  -0.019   8.993 -0.7598 -0.2870  0.0644
  110OSM   H16S11390   0.510  -0.117   8.943  2.7457  1.8822 -3.5132
  110OSM   H16T11391   0.594   0.025   8.997 -0.1460 -1.7574  1.5140
  110OSM   C17S11392   0.410   0.066   8.900  1.0093 -0.6975 -0.3846
  110OSM   H17S11393   0.473   0.094   8.812  1.3404  0.8972  0.3324
  110OSM   H17T11394   0.392   0.160   8.955  0.0635 -1.4039  0.5497
  110OSM   C18S11395   0.273   0.006   8.864  0.2621  0.3873 -0.0757
  110OSM   H18S11396   0.198   0.041   8.939 -0.2954  0.1782 -0.5253
  110OSM   H18T11397   0.274  -0.105   8.867 -1.3849  0.3551  0.3205
  110OSM   H18U11398   0.242   0.042   8.764 -1.0967  0.9253  0.5080
  110OSM    C1F11399   0.343   0.210  10.432 -1.0946  0.3046  0.4158
  110OSM     OF11400   0.396   0.298  10.500 -0.3037  0.2077  0.1479
  110OSM    C2F11401   0.222   0.246  10.355  0.0531 -0.4248  0.4703
  110OSM    H2F11402   0.164   0.331  10.396 -1.1849 -0.6321 -0.7921
  110OSM    H2G11403   0.162   0.153  10.341  0.9848 -0.8518 -0.8423
  110OSM    C3F11404   0.242   0.268  10.201 -0.4154 -0.3443  0.0378
  110OSM    H3F11405   0.271   0.170  10.156 -0.2384 -0.2459 -0.0609
  110OSM    H3G11406   0.325   0.341  10.192 -1.5218  0.9849  0.4006
  110OSM    C4F11407   0.124   0.343  10.127  0.3655  0.0117 -0.2982
  110OSM    H4F11408   0.152   0.450  10.118  2.2230 -0.5714 -2.4296
  110OSM    H4G11409   0.038   0.325  10.194 -0.6142  0.5623 -1.3796
  110OSM    C5F11410   0.089   0.280   9.990  0.5221 -0.0667 -0.7303
  110OSM    H5F11411   0.086   0.171  10.011 -2.3626  0.0673 -0.1258
  110OSM    H5G11412   0.172   0.300   9.919 -1.3550 -1.1422 -3.3960
  110OSM    C6F11413  -0.044   0.317   9.930  0.4418 -0.2974 -0.2953
  110OSM    H6F11414  -0.053   0.428   9.928 -1.2431 -0.3391 -4.5258
  110OSM    H6G11415  -0.130   0.294   9.996 -1.1402  3.3663 -0.8080
  110OSM    C7F11416  -0.071   0.252   9.793  0.1800 -0.2757 -0.1806
  110OSM    H7F11417  -0.020   0.153   9.799  0.3643 -0.2033 -0.5457
  110OSM    H7G11418  -0.030   0.315   9.711  1.1052 -1.0796 -0.3585
  110OSM    C8F11419  -0.225   0.223   9.765 -0.4699  0.4811  0.4535
  110OSM    H8F11420  -0.252   0.168   9.858  3.3692 -6.1573 -1.7472
  110OSM    H8G11421  -0.245   0.151   9.683  1.5156 -2.0957  2.0782
  110OSM    C9F11422  -0.306   0.355   9.757 -0.1667 -0.7487  0.7952
  110OSM    H9F11423  -0.309   0.409   9.853  1.2434 -2.4685  1.8802
  110OSM   C10F11424  -0.363   0.413   9.648 -0.0137  0.0025  0.1637
  110OSM   H10F11425  -0.414   0.510   9.652  0.4487  0.2227  1.0383
  110OSM   C11F11426  -0.361   0.343   9.512 -0.1647 -0.5902  0.2845
  110OSM   H11F11427  -0.444   0.270   9.514 -0.0019 -0.8019 -0.2862
  110OSM   H11G11428  -0.265   0.290   9.493  0.3795  0.6810 -0.6641
  110OSM   C12F11429  -0.368   0.461   9.414 -0.0141  0.6051 -0.8369
  110OSM   H12F11430  -0.283   0.530   9.434 -0.8045  1.2782  0.2954
  110OSM   H12G11431  -0.456   0.526   9.431  0.9985  1.5209  1.2921
  110OSM   C13F11432  -0.372   0.414   9.271 -0.7519 -0.3839  0.6541
  110OSM   H13F11433  -0.465   0.355   9.256 -0.2692 -0.7371 -1.2523
  110OSM   H13G11434  -0.276   0.364   9.246 -1.2159 -0.9783  0.0299
  110OSM   C14F11435  -0.378   0.532   9.165  0.1935  1.0732  0.1173
  110OSM   H14F11436  -0.295   0.604   9.179  0.0467  1.6959 -1.9142
  110OSM   H14G11437  -0.471   0.590   9.188 -0.9431 -0.2167 -1.0899
  110OSM   C15F11438  -0.392   0.470   9.026 -0.6259 -0.0511  0.2224
  110OSM   H15F11439  -0.443   0.371   9.032  0.6933 -0.9978 -2.7343
  110OSM   H15G11440  -0.286   0.454   8.999 -0.3985  0.9811  0.4676
  110OSM   C16F11441  -0.457   0.556   8.915 -0.2437 -0.6225 -0.3706
  110OSM   H16F11442  -0.413   0.522   8.819 -0.0034 -2.0563  0.2232
  110OSM   H16G11443  -0.440   0.663   8.936  0.0955 -0.9839  1.3498
  110OSM   C17F11444  -0.611   0.546   8.905  0.0073 -0.6906 -0.3012
  110OSM   H17F11445  -0.659   0.612   8.981 -0.9869 -0.0546 -1.4440
  110OSM   H17G11446  -0.660   0.451   8.936 -0.0051 -0.4000  0.6042
  110OSM   C18F11447  -0.659   0.589   8.766  0.9340 -0.2202 -0.0013
  110OSM   H18F11448  -0.615   0.516   8.694  0.6269 -2.7216  2.1829
  110OSM   H18G11449  -0.632   0.695   8.750 -0.9225  0.2560 -0.2116
  110OSM   H18H11450  -0.769   0.583   8.755  0.7998 -0.3829  1.2669
  111OSM      N11451   2.287   0.051  11.166  0.0151 -0.3391  1.2926
  111OSM    C1511452   2.186  -0.038  11.226 -0.2642 -0.8550  0.8343
  111OSM   H15A11453   2.196  -0.032  11.334 -1.8382  1.7676  0.9200
  111OSM   H15B11454   2.208  -0.138  11.192  2.0859 -0.1877  0.2076
  111OSM   H15C11455   2.083  -0.013  11.205 -0.0796 -0.4374  0.4150
  111OSM    C1411456   2.261   0.194  11.199  0.0760 -0.0327 -0.5614
  111OSM   H14A11457   2.165   0.241  11.182 -1.2357 -0.6478  3.8763
  111OSM   H14B11458   2.335   0.251  11.144 -1.0046 -0.0920 -2.1478
  111OSM   H14C11459   2.275   0.213  11.304 -0.4361 -1.4048 -0.2205
  111OSM    C1311460   2.421   0.032  11.221  0.6144  0.6197 -0.1004
  111OSM   H13A11461   2.425   0.057  11.326  0.0596 -0.0867  0.0975
  111OSM   H13B11462   2.494   0.095  11.172  1.0760  2.4361  2.7151
  111OSM   H13C11463   2.461  -0.064  11.193 -0.8595  0.8999 -3.8190
  111OSM    C1211464   2.283   0.024  11.015  0.7248 -0.4152 -0.3744
  111OSM   H12A11465   2.178   0.010  10.994  0.5285  1.5859 -0.9296
  111OSM   H12B11466   2.329  -0.072  10.995  0.7226 -0.0035 -2.5837
  111OSM    C1111467   2.352   0.128  10.927  0.2183  0.3966  0.5986
  111OSM   H11A11468   2.291   0.221  10.928  1.0905  0.9810  0.4265
  111OSM   H11B11469   2.342   0.088  10.824 -0.3316  0.2956  0.6902
  111OSM      P11470   2.553   0.302  10.941  0.1071 -0.0725 -0.1068
  111OSM    O1311471   2.526   0.371  11.070 -0.2847 -0.3266 -0.4567
  111OSM    O1411472   2.697   0.295  10.901  0.5460  0.6249 -0.1575
  111OSM    O1111473   2.461   0.371  10.834  0.2998  0.3122 -0.3935
  111OSM    O1211474   2.494   0.153  10.959 -0.4725 -0.3875 -0.1077
  111OSM    C1S11475   2.489   0.345  10.701  0.7189  0.1915 -0.4942
  111OSM    H1S11476   2.494   0.235  10.684  0.1762 -0.2077  1.5428
  111OSM    H1T11477   2.590   0.380  10.670  1.3100  0.7785  1.8453
  111OSM     NF11478   2.439   0.399  10.465  1.0783 -0.1491  0.2152
  111OSM    HNF11479   2.496   0.473  10.430  0.1676  0.8318  0.7232
  111OSM    C2S11480   2.391   0.422  10.600 -0.1682  0.1489 -0.0468
  111OSM    H2S11481   2.285   0.389  10.607 -0.4892  0.0171 -3.5460
  111OSM    C3S11482   2.393   0.577  10.637  0.7082  0.0173 -0.5461
  111OSM    H3S11483   2.489   0.628  10.611  1.0677 -1.0545 -1.4188
  111OSM     O311484   2.386   0.606  10.777  0.2473 -0.3388 -0.3855
  111OSM    HO311485   2.419   0.524  10.815  0.3754 -0.0661  0.0906
  111OSM    C4S11486   2.273   0.647  10.567 -0.7031  0.4172 -0.8867
  111OSM    H4S11487   2.171   0.614  10.590 -1.6166  1.9093 -2.5029
  111OSM    C5S11488   2.291   0.738  10.474 -0.2937 -0.1304  0.5384
  111OSM    H5S11489   2.390   0.763  10.434 -1.0553  0.4376 -1.1164
  111OSM    C6S11490   2.183   0.791  10.383 -0.5845  0.4558  0.1325
  111OSM    H6S11491   2.175   0.901  10.399 -0.4816  1.1296 -3.4835
  111OSM    H6T11492   2.083   0.752  10.409  0.4808 -1.7543  1.1719
  111OSM    C7S11493   2.210   0.751  10.236  0.7354 -0.1453  0.8257
  111OSM    H7S11494   2.220   0.640  10.233 -1.9828 -0.4721  0.9183
  111OSM    H7T11495   2.302   0.801  10.199  0.5151 -2.1469 -2.8700
  111OSM    C8S11496   2.091   0.788  10.147 -0.3787  0.0846  0.1970
  111OSM    H8S11497   2.076   0.897  10.163 -1.1836 -0.1887  1.4623
  111OSM    H8T11498   2.000   0.729  10.170 -2.3645  1.6422 -3.0144
  111OSM    C9S11499   2.132   0.760   9.999  0.4624 -0.6071 -0.5588
  111OSM    H9S11500   2.137   0.651   9.978  0.6485 -1.1594  2.0434
  111OSM    H9T11501   2.233   0.807   9.994  0.9099 -1.6546 -2.2850
  111OSM   C10S11502   2.035   0.818   9.900  0.5046 -0.8819 -0.1368
  111OSM   H10S11503   2.028   0.927   9.921 -0.6321 -1.1771  1.1938
  111OSM   H10T11504   1.933   0.776   9.917 -0.2911  1.0797  0.3431
  111OSM   C11S11505   2.070   0.788   9.756  0.4094  0.1784  1.0181
  111OSM   H11S11506   2.067   0.680   9.730  2.1846  0.3176  0.0713
  111OSM   H11T11507   2.171   0.827   9.732 -0.4773  1.7292 -0.4174
  111OSM   C12S11508   1.971   0.852   9.651  0.2919  0.3810 -0.3238
  111OSM   H12S11509   1.971   0.962   9.668  0.1075  0.3100  0.1528
  111OSM   H12T11510   1.865   0.832   9.676 -0.2492  2.6421 -0.5557
  111OSM   C13S11511   1.990   0.832   9.501  0.2420  0.4921  0.0679
  111OSM   H13S11512   1.984   0.721   9.493  2.3264  0.4793 -3.6765
  111OSM   H13T11513   2.090   0.876   9.480  0.3701 -0.3513 -1.1580
  111OSM   C14S11514   1.886   0.894   9.405  0.3860 -0.1461  0.3741
  111OSM   H14S11515   1.798   0.922   9.466  1.0193  2.6871  0.1249
  111OSM   H14T11516   1.857   0.826   9.322 -0.4869 -0.3447  0.8271
  111OSM   C15S11517   1.945   1.022   9.346 -0.4722  0.1350  0.3025
  111OSM   H15S11518   2.043   0.989   9.305 -0.9866 -1.2873  0.1712
  111OSM   H15T11519   1.961   1.099   9.426  0.4273 -0.4336  0.6829
  111OSM   C16S11520   1.845   1.080   9.242 -0.1617  0.4146  0.3220
  111OSM   H16S11521   1.827   1.014   9.155  1.2684  1.3152 -0.7048
  111OSM   H16T11522   1.887   1.179   9.212  0.8416 -0.3574 -0.9693
  111OSM   C17S11523   1.707   1.109   9.306 -0.9219 -0.4863  0.4947
  111OSM   H17S11524   1.712   1.184   9.387 -0.6503  0.3492 -0.2844
  111OSM   H17T11525   1.658   1.014   9.337  1.0492 -1.5820  0.4756
  111OSM   C18S11526   1.612   1.175   9.210  0.9975 -0.6599 -0.2373
  111OSM   H18S11527   1.655   1.272   9.176  2.0528 -0.1353  2.3568
  111OSM   H18T11528   1.517   1.200   9.261 -0.9961  1.5547 -4.5064
  111OSM   H18U11529   1.588   1.100   9.131  1.7943 -0.7451 -0.4171
  111OSM    C1F11530   2.410   0.284  10.409 -0.2099 -0.4961  1.1466
  111OSM     OF11531   2.361   0.192  10.463  0.5031 -0.6893  0.0485
  111OSM    C2F11532   2.451   0.271  10.270 -0.2375 -0.1795  0.0363
  111OSM    H2F11533   2.492   0.168  10.264  0.9997  0.3148 -0.3291
  111OSM    H2G11534   2.517   0.357  10.244  1.0366 -1.0590  0.2523
  111OSM    C3F11535   2.327   0.276  10.175 -0.6215 -0.0134 -0.3005
  111OSM    H3F11536   2.278   0.376  10.176 -0.8684 -0.0198  3.5088
  111OSM    H3G11537   2.248   0.205  10.207 -2.7494  2.1791 -0.3877
  111OSM    C4F11538   2.366   0.237  10.033  0.1990 -0.7934  0.1346
  111OSM    H4F11539   2.433   0.148  10.030  1.8619  0.3548  1.2839
  111OSM    H4G11540   2.424   0.324   9.993  0.6660 -0.9778  0.4057
  111OSM    C5F11541   2.247   0.213   9.942  0.5588 -0.3818 -0.5434
  111OSM    H5F11542   2.176   0.300   9.943  2.8327  1.6841  3.1601
  111OSM    H5G11543   2.194   0.126   9.985 -2.7949  1.7169  0.0302
  111OSM    C6F11544   2.280   0.184   9.791 -0.1154  0.3168 -0.4942
  111OSM    H6F11545   2.290   0.073   9.797  0.3937  0.3792 -0.0213
  111OSM    H6G11546   2.380   0.229   9.772  0.0479  0.2515  0.1729
  111OSM    C7F11547   2.176   0.227   9.690  0.1464 -0.1574 -0.3025
  111OSM    H7F11548   2.232   0.233   9.594  1.8208 -4.6750  0.1533
  111OSM    H7G11549   2.140   0.328   9.720  1.7166  0.1232  0.7140
  111OSM    C8F11550   2.052   0.143   9.675 -0.5274 -0.2390  0.0711
  111OSM    H8F11551   1.986   0.205   9.611  0.9326  0.3808 -0.8735
  111OSM    H8G11552   1.997   0.144   9.772 -0.9433 -1.9278 -0.1097
  111OSM    C9F11553   2.077   0.003   9.629  0.3943  0.1914 -0.3375
  111OSM    H9F11554   2.075  -0.071   9.710  2.7774  0.3576 -0.0661
  111OSM   C10F11555   2.105  -0.031   9.501 -0.8727 -0.0761  0.4929
  111OSM   H10F11556   2.134  -0.135   9.482  0.1064  0.1663  0.5725
  111OSM   C11F11557   2.131   0.054   9.378  0.0480 -0.4124  0.0099
  111OSM   H11F11558   2.230   0.020   9.344 -1.0001 -3.3826 -0.3628
  111OSM   H11G11559   2.131   0.164   9.395  0.8439 -0.0367 -2.1319
  111OSM   C12F11560   2.026   0.028   9.262  0.5759  0.0577 -0.6796
  111OSM   H12F11561   1.927   0.017   9.312  2.3914  0.4421  3.4673
  111OSM   H12G11562   2.054  -0.068   9.215  0.9183 -0.0699 -0.2274
  111OSM   C13F11563   2.037   0.148   9.166  0.7730 -0.3838  0.0020
  111OSM   H13F11564   2.137   0.164   9.122 -0.0348  0.5786 -1.6039
  111OSM   H13G11565   2.013   0.246   9.213 -0.2265  0.0169 -1.2598
  111OSM   C14F11566   1.942   0.143   9.042 -0.4245 -0.3226 -0.8136
  111OSM   H14F11567   1.835   0.139   9.073  0.2251 -0.8884  1.5485
  111OSM   H14G11568   1.963   0.042   8.998  1.0420  0.4007 -1.8631
  111OSM   C15F11569   1.971   0.256   8.939 -0.2976  0.1731 -0.2318
  111OSM   H15F11570   2.078   0.260   8.910  0.2880  1.4927  1.8398
  111OSM   H15G11571   1.948   0.356   8.983 -0.4335 -0.0908  0.2995
  111OSM   C16F11572   1.888   0.232   8.814 -0.4350 -0.3329 -0.4588
  111OSM   H16F11573   1.783   0.265   8.824 -0.5984 -0.2520 -2.2133
  111OSM   H16G11574   1.868   0.123   8.804 -1.1002 -0.5328  2.2550
  111OSM   C17F11575   1.952   0.270   8.681 -0.2708 -0.0025 -0.1192
  111OSM   H17F11576   1.875   0.266   8.601 -0.5493 -0.3624  0.1649
  111OSM   H17G11577   2.049   0.218   8.664  0.3042  0.9957  0.0672
  111OSM   C18F11578   1.996   0.422   8.672 -0.4785  0.4845  0.3936
  111OSM   H18F11579   2.066   0.450   8.590 -1.7271 -0.4717 -1.0574
  111OSM   H18G11580   2.061   0.436   8.761  1.7929 -1.7115 -0.7848
  111OSM   H18H11581   1.910   0.490   8.691  0.9454  1.8181  2.4551
  112OSM      N11582   3.405   4.780  10.659 -0.3874  0.0800 -0.5984
  112OSM    C1511583   3.517   4.702  10.710  0.6499  1.0557 -0.2985
  112OSM   H15A11584   3.509   4.597  10.685 -3.0415  1.7125 -2.7003
  112OSM   H15B11585   3.525   4.712  10.818  0.4606 -3.1060  0.2387
  112OSM   H15C11586   3.614   4.733  10.677  0.0388  0.9437 -2.2929
  112OSM    C1411587   3.280   4.710  10.697  0.0895  0.2541  0.4205
  112OSM   H14A11588   3.287   4.666  10.795  1.2302 -1.0080 -0.2051
  112OSM   H14B11589   3.258   4.626  10.634 -1.1341  1.6352 -1.0527
  112OSM   H14C11590   3.193   4.775  10.697 -0.3825 -0.3505 -1.0831
  112OSM    C1311591   3.420   4.914  10.727 -0.1288  0.1337 -0.6376
  112OSM   H13A11592   3.522   4.950  10.737 -0.8082  1.8442  0.8752
  112OSM   H13B11593   3.379   4.907  10.827 -3.6665 -0.4884 -1.9819
  112OSM   H13C11594   3.364   4.994  10.681  1.7000  1.1207 -1.2415
  112OSM    C1211595   3.413   4.809  10.512  0.0683 -0.1011 -0.4019
  112OSM   H12A11596   3.504   4.858  10.481  0.3200 -1.5734 -2.1278
  112OSM   H12B11597   3.343   4.882  10.473  1.9864  1.3450 -1.3051
  112OSM    C1111598   3.424   4.682  10.418  0.3248 -0.4442 -0.1895
  112OSM   H11A11599   3.426   4.734  10.320 -0.7546  0.0435  0.0281
  112OSM   H11B11600   3.335   4.617  10.409 -0.6380  0.9056 -0.8238
  112OSM      P11601   3.685   4.663  10.406 -0.4642  0.1353  0.0836
  112OSM    O1311602   3.753   4.714  10.528  0.0092 -0.2610 -0.2509
  112OSM    O1411603   3.759   4.568  10.324 -0.0501 -0.8521  0.3752
  112OSM    O1111604   3.651   4.793  10.324 -0.5532  0.1634  0.1804
  112OSM    O1211605   3.544   4.605  10.442  0.2317  0.3108  0.2738
  112OSM    C1S11606   3.756   4.891  10.304  0.2741 -0.0993  0.5684
  112OSM    H1S11607   3.852   4.836  10.292 -1.1132 -2.6801  0.5068
  112OSM    H1T11608   3.767   4.942  10.402  2.5223 -1.4670  1.1131
  112OSM     NF11609   3.824   5.084  10.169 -0.5920  0.4007  0.1537
  112OSM    HNF11610   3.814   5.175  10.208  1.0281 -1.1013  4.6471
  112OSM    C2S11611   3.714   4.994  10.196  0.2549 -0.1414  0.3150
  112OSM    H2S11612   3.711   4.922  10.112  0.4118  0.5044 -0.2534
  112OSM    C3S11613   3.574   5.065  10.217 -0.1859  0.5528  0.2135
  112OSM    H3S11614   3.599   5.149  10.286 -0.6916  1.5625 -0.8068
  112OSM     O311615   3.472   4.990  10.279  0.0711  0.0828 -0.0108
  112OSM    HO311616   3.517   4.909  10.302 -1.4731 -1.4774 -2.0579
  112OSM    C4S11617   3.527   5.125  10.090 -0.1167  1.0466  0.9140
  112OSM    H4S11618   3.589   5.107  10.001 -1.3792  1.5618 -0.1212
  112OSM    C5S11619   3.425   5.219  10.075 -0.3072 -0.1215  0.1846
  112OSM    H5S11620   3.378   5.263  10.164  0.0057  1.9749 -0.6322
  112OSM    C6S11621   3.398   5.287   9.939  0.0862 -0.0401  0.1275
  112OSM    H6S11622   3.289   5.299   9.922  0.2578  0.9924 -0.3153
  112OSM    H6T11623   3.421   5.217   9.856 -2.7390  0.6645 -1.3800
  112OSM    C7S11624   3.488   5.407   9.935 -0.0474 -0.3853 -0.5126
  112OSM    H7S11625   3.593   5.371   9.934 -0.4805 -1.6700 -0.5161
  112OSM    H7T11626   3.468   5.471  10.024  1.6088  0.7560 -0.9087
  112OSM    C8S11627   3.470   5.512   9.822  0.2931 -0.5300  0.2245
  112OSM    H8S11628   3.520   5.609   9.841 -2.0251  0.5176  1.4233
  112OSM    H8T11629   3.363   5.539   9.818  0.6705  1.0591  0.3001
  112OSM    C9S11630   3.500   5.450   9.688  0.2635  0.0170  0.3792
  112OSM    H9S11631   3.434   5.365   9.659  2.5130 -1.2457 -1.4715
  112OSM    H9T11632   3.605   5.414   9.687 -0.6003 -3.0637 -2.8656
  112OSM   C10S11633   3.495   5.550   9.573 -0.0190 -0.5107 -0.0713
  112OSM   H10S11634   3.557   5.636   9.607  2.1539 -2.3267  0.8300
  112OSM   H10T11635   3.391   5.587   9.568 -0.6465 -1.9669  1.3062
  112OSM   C11S11636   3.551   5.505   9.437  0.0800 -0.3293 -0.6258
  112OSM   H11S11637   3.476   5.430   9.403 -0.2204 -0.0963 -0.4800
  112OSM   H11T11638   3.648   5.453   9.457  0.1115 -0.4439 -1.0781
  112OSM   C12S11639   3.561   5.627   9.347  0.9246  0.0855 -0.5193
  112OSM   H12S11640   3.640   5.697   9.380  0.2080  1.0456 -0.8018
  112OSM   H12T11641   3.465   5.682   9.359  1.5293  0.6692  2.3585
  112OSM   C13S11642   3.577   5.592   9.202 -0.2051  0.2647  0.8207
  112OSM   H13S11643   3.492   5.526   9.174  0.5208 -1.1183  1.7784
  112OSM   H13T11644   3.669   5.531   9.191  0.8648  2.2075 -2.2262
  112OSM   C14S11645   3.577   5.720   9.114  0.4803  0.7391  0.6223
  112OSM   H14S11646   3.654   5.793   9.148  2.3351 -1.1813  0.7073
  112OSM   H14T11647   3.473   5.758   9.130  0.3981  1.6063 -1.5748
  112OSM   C15S11648   3.600   5.689   8.967  0.0888 -0.1154 -0.0198
  112OSM   H15S11649   3.598   5.787   8.916 -2.3896  1.0795  2.1354
  112OSM   H15T11650   3.519   5.630   8.919 -0.8672  1.0687  0.0847
  112OSM   C16S11651   3.727   5.611   8.935 -0.4243  0.0990  0.4769
  112OSM   H16S11652   3.711   5.505   8.965 -1.3021  0.9035  3.1691
  112OSM   H16T11653   3.819   5.653   8.981  1.0710 -0.0788 -2.1496
  112OSM   C17S11654   3.754   5.594   8.782  0.5487 -0.7658 -0.0765
  112OSM   H17S11655   3.771   5.697   8.743 -0.4574  0.2756  2.0730
  112OSM   H17T11656   3.655   5.565   8.741  0.5482 -0.5320 -0.2438
  112OSM   C18S11657   3.850   5.488   8.740  0.6937 -0.0034 -0.3680
  112OSM   H18S11658   3.946   5.514   8.788  0.0664 -1.0879  1.5603
  112OSM   H18T11659   3.858   5.484   8.629  0.9810  1.1193 -0.3984
  112OSM   H18U11660   3.809   5.393   8.780 -1.8169  1.0776 -0.1531
  112OSM    C1F11661   3.946   5.043  10.133  0.0492 -0.1887  0.5327
  112OSM     OF11662   3.963   4.927  10.089 -0.2659 -0.2625  0.5296
  112OSM    C2F11663   4.057   5.146  10.144  0.2170 -0.0796 -0.5212
  112OSM    H2F11664   4.108   5.112  10.237 -0.1034 -0.0275 -0.3253
  112OSM    H2G11665   4.023   5.249  10.168  0.1144  0.3448 -2.2921
  112OSM    C3F11666   4.147   5.141  10.027 -0.0327 -0.2704 -0.1401
  112OSM    H3F11667   4.178   5.035  10.014  0.5470 -0.1694  0.3603
  112OSM    H3G11668   4.237   5.200  10.055  1.2755 -1.8173 -0.9064
  112OSM    C4F11669   4.089   5.220   9.902  0.1167  0.0859  0.1877
  112OSM    H4F11670   4.053   5.320   9.933 -1.8300 -0.9488  1.5144
  112OSM    H4G11671   4.002   5.158   9.870  0.3830 -0.6376  0.8278
  112OSM    C5F11672   4.194   5.219   9.787 -0.1946  0.9092 -0.0807
  112OSM    H5F11673   4.290   5.267   9.816 -0.1144  3.0149 -3.2733
  112OSM    H5G11674   4.154   5.282   9.703 -1.4988 -2.7782 -2.4702
  112OSM    C6F11675   4.211   5.079   9.730  0.4312  0.0257  0.0466
  112OSM    H6F11676   4.112   5.031   9.716  0.3639  0.1640  0.0486
  112OSM    H6G11677   4.258   5.016   9.808 -2.3733  0.2548  2.0870
  112OSM    C7F11678   4.295   5.077   9.603 -0.6261  0.3901  0.3513
  112OSM    H7F11679   4.303   4.970   9.575  0.7472  0.2769  1.1066
  112OSM    H7G11680   4.398   5.108   9.627 -0.5368  0.3470  0.0376
  112OSM    C8F11681   4.235   5.156   9.484 -0.0468  0.0474  0.0997
  112OSM    H8F11682   4.236   5.260   9.523 -0.7952 -0.4237  1.4504
  112OSM    H8G11683   4.133   5.114   9.474  0.1761 -0.3130 -0.6712
  112OSM    C9F11684   4.313   5.131   9.355  0.5566 -0.2373 -0.3670
  112OSM    H9F11685   4.416   5.170   9.349  0.6093 -0.4669 -1.1293
  112OSM   C10F11686   4.263   5.066   9.246  0.1467  0.5559  0.1327
  112OSM   H10F11687   4.323   5.060   9.155 -1.1210  2.4266 -0.8901
  112OSM   C11F11688   4.128   5.008   9.227 -0.2341  0.6871  0.7559
  112OSM   H11F11689   4.060   4.994   9.314 -0.8321 -3.1454 -0.1606
  112OSM   H11G11690   4.139   4.902   9.197 -2.0096  0.8038 -0.4350
  112OSM   C12F11691   4.040   5.079   9.124 -0.2713  0.3907 -0.1485
  112OSM   H12F11692   4.011   5.182   9.153 -0.0394  0.0894  1.2089
  112OSM   H12G11693   3.943   5.026   9.119 -0.8530  1.5255 -2.8438
  112OSM   C13F11694   4.085   5.060   8.979  0.1222 -0.4935  0.3393
  112OSM   H13F11695   4.139   4.965   8.960  1.5052  0.5315 -1.1659
  112OSM   H13G11696   4.150   5.149   8.964 -0.0321 -0.1472  1.6350
  112OSM   C14F11697   3.968   5.073   8.877  0.7944 -0.3377 -0.9639
  112OSM   H14F11698   3.929   5.177   8.881  2.9730  0.4822  1.4782
  112OSM   H14G11699   3.878   5.014   8.907  0.0579 -0.0472 -2.5146
  112OSM   C15F11700   3.999   5.015   8.733 -0.2436  0.0736 -0.0349
  112OSM   H15F11701   4.003   4.906   8.756  0.6960  0.1066 -0.0350
  112OSM   H15G11702   4.102   5.045   8.705  0.6347 -1.5024  1.3626
  112OSM   C16F11703   3.878   5.026   8.634  0.0936 -0.1326  0.0629
  112OSM   H16F11704   3.879   5.129   8.593  2.7853 -0.2092 -0.2580
  112OSM   H16G11705   3.784   5.011   8.690  1.7826 -1.9604  2.6600
  112OSM   C17F11706   3.903   4.925   8.510 -0.0373 -0.4479 -0.0413
  112OSM   H17F11707   3.813   4.943   8.448  0.7839  0.3786 -1.0156
  112OSM   H17G11708   3.886   4.821   8.547 -1.7223 -0.4296 -0.6846
  112OSM   C18F11709   4.027   4.954   8.426  0.2600 -0.3613 -0.0016
  112OSM   H18F11710   4.115   4.933   8.490  0.0395  1.0324  0.7995
  112OSM   H18G11711   4.037   5.061   8.397  1.7013 -1.1582 -2.8991
  112OSM   H18H11712   4.023   4.885   8.339  0.5636 -0.5510  0.1349
  113OSM      N11713   6.344   2.908  10.662 -1.3602 -0.7089  0.4667
  113OSM    C1511714   6.289   2.794  10.580 -0.5830 -0.3234 -0.1756
  113OSM   H15A11715   6.352   2.707  10.589 -0.1399 -0.0163 -0.2189
  113OSM   H15B11716   6.286   2.838  10.481  0.3886  1.9170  0.7004
  113OSM   H15C11717   6.191   2.773  10.620 -0.4288  0.8094  0.8698
  113OSM    C1411718   6.331   2.870  10.801  0.7486 -0.2188 -0.3407
  113OSM   H14A11719   6.387   2.782  10.828  0.1262  0.1466  2.4640
  113OSM   H14B11720   6.230   2.837  10.821  0.2778  1.6409  0.6498
  113OSM   H14C11721   6.351   2.955  10.864  0.9656 -1.2597  1.0441
  113OSM    C1311722   6.493   2.917  10.633  0.2853 -0.1189 -0.0482
  113OSM   H13A11723   6.539   2.985  10.703 -1.5343  0.4675  0.6203
  113OSM   H13B11724   6.510   2.958  10.534 -1.7398  2.3395  0.5118
  113OSM   H13C11725   6.543   2.821  10.628  0.9838  0.2718 -1.0907
  113OSM    C1211726   6.268   3.042  10.627 -0.1389  0.0249 -0.1628
  113OSM   H12A11727   6.308   3.113  10.699  0.5659  1.7330 -2.1502
  113OSM   H12B11728   6.164   3.016  10.639  0.4625 -3.3886 -1.1421
  113OSM    C1111729   6.287   3.103  10.490  0.6394  0.0237 -0.0141
  113OSM   H11A11730   6.227   3.197  10.482  1.5034  0.4474 -1.8176
  113OSM   H11B11731   6.249   3.037  10.410 -0.6534  3.0563 -2.0952
  113OSM      P11732   6.484   3.259  10.544 -0.3968 -0.0314  0.2335
  113OSM    O1311733   6.420   3.285  10.678  0.0725 -0.0008 -0.2258
  113OSM    O1411734   6.632   3.232  10.546 -0.1318 -0.3651  0.1383
  113OSM    O1111735   6.454   3.384  10.447 -0.5236  0.3055  0.0982
  113OSM    O1211736   6.422   3.134  10.470  0.3362 -0.9043 -0.4143
  113OSM    C1S11737   6.456   3.363  10.308  0.2372 -0.5841  0.4113
  113OSM    H1S11738   6.397   3.274  10.274 -1.6737  0.2803  1.3119
  113OSM    H1T11739   6.558   3.350  10.267  0.3227  0.0499  0.4226
  113OSM     NF11740   6.388   3.445  10.094 -0.0105 -1.3698  0.5720
  113OSM    HNF11741   6.455   3.488  10.034 -1.2219  0.1587  0.2361
  113OSM    C2S11742   6.385   3.475  10.232 -0.1597  0.3763  0.0584
  113OSM    H2S11743   6.280   3.469  10.268  0.3941 -3.2316  1.4859
  113OSM    C3S11744   6.448   3.611  10.269  0.4033 -0.2022  0.2955
  113OSM    H3S11745   6.559   3.607  10.264  0.5159  0.7672  1.6826
  113OSM     O311746   6.431   3.630  10.409 -0.3019 -0.2405 -0.4638
  113OSM    HO311747   6.406   3.542  10.437 -0.9598 -0.3049 -1.2224
  113OSM    C4S11748   6.403   3.730  10.186  0.1447 -0.3818 -0.7342
  113OSM    H4S11749   6.476   3.773  10.115 -1.5851  0.5638 -2.0310
  113OSM    C5S11750   6.277   3.780  10.183  0.8614  0.0697 -0.2601
  113OSM    H5S11751   6.202   3.716  10.232  0.2387  1.9423  1.3480
  113OSM    C6S11752   6.219   3.872  10.073 -0.3257  0.0793  0.1787
  113OSM    H6S11753   6.303   3.919  10.019 -0.4266  0.2996  0.2130
  113OSM    H6T11754   6.177   3.963  10.121 -0.3523 -0.1817  0.6594
  113OSM    C7S11755   6.134   3.812   9.961  0.0235 -0.1451 -0.6061
  113OSM    H7S11756   6.043   3.760   9.999 -0.6108 -0.3942 -2.3529
  113OSM    H7T11757   6.191   3.728   9.915 -1.4222 -0.2199 -2.4186
  113OSM    C8S11758   6.115   3.907   9.836  0.2380  0.4062  0.0794
  113OSM    H8S11759   6.213   3.956   9.822  0.4606 -0.4703 -1.7524
  113OSM    H8T11760   6.036   3.981   9.862  0.5334  0.7109  0.1075
  113OSM    C9S11761   6.079   3.840   9.702 -0.4831 -0.2072 -0.5153
  113OSM    H9S11762   5.989   3.776   9.709  2.8238 -5.3202  1.6641
  113OSM    H9T11763   6.161   3.766   9.684 -0.8863 -1.4292  2.1989
  113OSM   C10S11764   6.056   3.938   9.588 -0.1101  0.0307 -0.2956
  113OSM   H10S11765   6.141   4.009   9.578  0.9665 -1.4380 -2.7075
  113OSM   H10T11766   5.964   3.993   9.618  1.3329  0.9954  2.8014
  113OSM   C11S11767   6.041   3.862   9.453 -0.0786 -0.3038 -0.8916
  113OSM   H11S11768   5.940   3.817   9.454  0.5242 -1.7092  0.3306
  113OSM   H11T11769   6.111   3.777   9.441 -0.8964 -0.9374 -1.2281
  113OSM   C12S11770   6.055   3.966   9.345 -0.4382  0.3650  0.4266
  113OSM   H12S11771   6.164   3.984   9.340  0.1451 -1.4869  3.7453
  113OSM   H12T11772   5.995   4.055   9.372  0.8246  1.1753  0.6087
  113OSM   C13S11773   6.019   3.905   9.210 -0.0323  0.0738  0.6281
  113OSM   H13S11774   5.910   3.884   9.206 -0.3325  1.5599 -3.1905
  113OSM   H13T11775   6.076   3.809   9.209  0.3997  0.3186 -0.7625
  113OSM   C14S11776   6.054   3.991   9.082  0.5711 -0.0308 -0.8503
  113OSM   H14S11777   6.165   3.994   9.074  0.6036 -1.8719 -1.6988
  113OSM   H14T11778   6.015   4.093   9.099  0.4523  0.5245 -3.9081
  113OSM   C15S11779   5.988   3.925   8.959  0.4458  0.3495 -0.2533
  113OSM   H15S11780   5.879   3.930   8.977  0.6263  0.0341  1.0009
  113OSM   H15T11781   6.024   3.820   8.953 -1.1063 -0.2463  0.3642
  113OSM   C16S11782   6.024   4.002   8.827 -0.2437  0.1071 -0.6701
  113OSM   H16S11783   6.128   4.038   8.840 -0.5664  0.2140  2.3650
  113OSM   H16T11784   5.959   4.090   8.804 -1.6160 -1.0188 -1.2562
  113OSM   C17S11785   6.014   3.915   8.701 -0.3401 -0.8157 -0.3084
  113OSM   H17S11786   6.049   3.812   8.724 -0.1260 -0.8110 -0.6145
  113OSM   H17T11787   6.079   3.954   8.620  0.9359 -2.5725 -0.1788
  113OSM   C18S11788   5.873   3.916   8.652 -0.5106  0.3155  0.3086
  113OSM   H18S11789   5.858   3.829   8.585  0.8996  0.7748 -0.6608
  113OSM   H18T11790   5.845   4.009   8.597  1.8055  0.6338 -0.4467
  113OSM   H18U11791   5.804   3.902   8.737 -0.4916  1.7674  0.5877
  113OSM    C1F11792   6.320   3.348  10.037 -0.1095  0.7944 -0.0507
  113OSM     OF11793   6.240   3.276  10.103  0.2372 -0.1330  0.0628
  113OSM    C2F11794   6.337   3.326   9.886  0.2629 -0.2296  0.4276
  113OSM    H2F11795   6.442   3.292   9.873  0.1363 -0.0183 -1.4657
  113OSM    H2G11796   6.322   3.425   9.838  0.5390  1.2254  3.1161
  113OSM    C3F11797   6.235   3.216   9.841  0.2205 -0.4036 -0.0906
  113OSM    H3F11798   6.140   3.244   9.891  0.9889  0.2433  1.0383
  113OSM    H3G11799   6.261   3.114   9.878 -0.8794 -1.1202 -1.2133
  113OSM    C4F11800   6.221   3.215   9.691  0.3759  0.1146 -0.2034
  113OSM    H4F11801   6.318   3.193   9.641 -0.1867 -0.7763 -0.9226
  113OSM    H4G11802   6.192   3.318   9.659  0.4795  0.3572  0.4767
  113OSM    C5F11803   6.121   3.118   9.638  0.3985 -0.1626 -0.2637
  113OSM    H5F11804   6.017   3.119   9.678  0.2086 -1.1828 -0.7096
  113OSM    H5G11805   6.140   3.018   9.683 -0.3491 -1.0162 -1.7846
  113OSM    C6F11806   6.130   3.093   9.483 -0.6909 -0.1586  0.7191
  113OSM    H6F11807   6.114   2.985   9.460 -1.8794  0.3066 -0.7937
  113OSM    H6G11808   6.232   3.111   9.445  0.3417 -0.4501  3.1328
  113OSM    C7F11809   6.022   3.174   9.407  0.0251 -0.3443  0.3262
  113OSM    H7F11810   6.057   3.280   9.417 -1.5852  0.2352  0.0100
  113OSM    H7G11811   5.921   3.166   9.450 -1.9065 -0.5250 -3.7620
  113OSM    C8F11812   6.029   3.124   9.263 -0.2523  0.0941  0.7037
  113OSM    H8F11813   6.015   3.013   9.267  2.1138 -0.2279  3.8266
  113OSM    H8G11814   6.133   3.136   9.227  0.3603 -2.3596  1.4608
  113OSM    C9F11815   5.916   3.186   9.186  0.8370  0.2847  0.1914
  113OSM    H9F11816   5.812   3.164   9.214 -0.1041  1.3473 -2.2142
  113OSM   C10F11817   5.934   3.269   9.081 -0.5861  0.0811  0.2462
  113OSM   H10F11818   5.849   3.312   9.026  1.2620  1.5514 -1.6307
  113OSM   C11F11819   6.069   3.319   9.022  0.2377 -0.6339 -0.4440
  113OSM   H11F11820   6.163   3.268   9.049  0.9874  0.6427 -0.5592
  113OSM   H11G11821   6.080   3.426   9.051  2.1321 -0.4003 -1.8441
  113OSM   C12F11822   6.058   3.319   8.860  0.5961 -0.1208 -0.3760
  113OSM   H12F11823   5.998   3.408   8.830  1.2201  0.4448  0.0393
  113OSM   H12G11824   5.995   3.230   8.835  0.6461  0.1741 -1.6279
  113OSM   C13F11825   6.192   3.304   8.793 -0.0302 -0.3711 -0.4508
  113OSM   H13F11826   6.225   3.204   8.826  0.1257 -0.3200 -0.4522
  113OSM   H13G11827   6.263   3.380   8.832 -1.2768  0.6984 -0.1767
  113OSM   C14F11828   6.178   3.329   8.637  0.1093  0.0845  0.2747
  113OSM   H14F11829   6.194   3.438   8.626  2.4219 -0.2834 -0.5439
  113OSM   H14G11830   6.077   3.294   8.608  0.7977 -0.4897 -1.5746
  113OSM   C15F11831   6.290   3.263   8.549  0.7643  0.5517  0.2966
  113OSM   H15F11832   6.293   3.163   8.597 -0.6483  0.7160  0.7727
  113OSM   H15G11833   6.390   3.310   8.560  1.6034 -0.1436 -3.1394
  113OSM   C16F11834   6.254   3.244   8.405  0.3348 -0.2176  0.0860
  113OSM   H16F11835   6.152   3.205   8.385 -0.0214  0.4532  0.5675
  113OSM   H16G11836   6.327   3.179   8.352 -2.5549 -1.8792 -2.1266
  113OSM   C17F11837   6.273   3.379   8.335 -0.6612 -0.1977 -0.5235
  113OSM   H17F11838   6.363   3.426   8.381 -0.4756 -0.9410 -0.1161
  113OSM   H17G11839   6.184   3.438   8.365  1.7109  3.4463 -0.0355
  113OSM   C18F11840   6.284   3.375   8.184  0.4462  0.2796  0.1604
  113OSM   H18F11841   6.320   3.475   8.152 -0.3705  0.3002 -0.7005
  113OSM   H18G11842   6.183   3.365   8.140  0.8076  0.1613 -0.6652
  113OSM   H18H11843   6.345   3.299   8.130  1.7821  0.6415  1.1092
  114OSM      N11844   0.197   5.954  10.715  0.6743  0.2639 -0.0996
  114OSM    C1511845   0.222   5.903  10.849 -0.5812 -0.7629 -0.2194
  114OSM   H15A11846   0.328   5.896  10.867 -0.7904  0.5775  1.7188
  114OSM   H15B11847   0.190   5.801  10.864  1.9265 -1.5215  0.2909
  114OSM   H15C11848   0.168   5.962  10.922  0.5257  1.6269 -1.2207
  114OSM    C1411849   0.062   5.901  10.678 -0.0779 -0.1172 -0.2974
  114OSM   H14A11850  -0.028   5.943  10.721 -1.4969 -0.4655 -2.7475
  114OSM   H14B11851   0.059   5.794  10.693 -3.5027 -0.3107 -1.3472
  114OSM   H14C11852   0.038   5.924  10.575 -1.1862 -1.3243 -0.3404
  114OSM    C1311853   0.196   6.101  10.701  0.0299 -0.4793 -0.1162
  114OSM   H13A11854   0.191   6.133  10.598 -0.4024  0.8143  0.2980
  114OSM   H13B11855   0.290   6.141  10.737  1.3132 -2.1130 -1.4354
  114OSM   H13C11856   0.115   6.151  10.750  1.1071  0.5828  0.6423
  114OSM    C1211857   0.290   5.898  10.608 -1.0872  0.7942 -0.3974
  114OSM   H12A11858   0.387   5.937  10.634 -0.6627 -1.2212  1.2560
  114OSM   H12B11859   0.273   5.932  10.507 -0.2281  1.5880 -0.2926
  114OSM    C1111860   0.314   5.743  10.609  0.5532 -0.3086  0.1167
  114OSM   H11A11861   0.374   5.728  10.701 -1.3128  1.0538  1.6197
  114OSM   H11B11862   0.379   5.717  10.522 -1.2512  0.2854 -1.4957
  114OSM      P11863   0.189   5.524  10.689 -0.1775 -0.2463 -0.3606
  114OSM    O1311864   0.233   5.548  10.828  0.3483  0.0273 -0.2092
  114OSM    O1411865   0.047   5.469  10.673  0.0297 -0.0576  0.6006
  114OSM    O1111866   0.286   5.419  10.613 -0.5461  0.2590  0.1358
  114OSM    O1211867   0.188   5.665  10.608 -0.4562  0.5381 -0.2348
  114OSM    C1S11868   0.257   5.396  10.471 -0.4662 -0.5457 -0.3574
  114OSM    H1S11869   0.151   5.410  10.441 -0.8744 -0.3754  1.0862
  114OSM    H1T11870   0.275   5.288  10.455  1.1984 -0.0882 -2.1397
  114OSM     NF11871   0.313   5.409  10.242 -0.4653 -0.2581  0.8437
  114OSM    HNF11872   0.372   5.344  10.194 -0.0649  0.1983  0.7155
  114OSM    C2S11873   0.350   5.463  10.371  0.0718 -0.6997  0.2623
  114OSM    H2S11874   0.332   5.572  10.359 -0.0494 -0.6944  0.4745
  114OSM    C3S11875   0.500   5.441  10.417 -0.4531  0.2505 -0.1335
  114OSM    H3S11876   0.515   5.331  10.418  0.5043  0.3750  0.3629
  114OSM     O311877   0.534   5.477  10.555 -0.4014 -0.1511  0.8564
  114OSM    HO311878   0.448   5.500  10.589 -0.2736 -1.2313  2.0108
  114OSM    C4S11879   0.586   5.501  10.309 -0.2150 -0.2779  0.1431
  114OSM    H4S11880   0.566   5.607  10.283 -0.2159  0.0484  1.3843
  114OSM    C5S11881   0.692   5.439  10.250 -0.3059 -0.1086 -0.0538
  114OSM    H5S11882   0.722   5.336  10.273  3.0978 -0.0891 -3.3920
  114OSM    C6S11883   0.787   5.521  10.161  0.3692  0.7369 -0.3808
  114OSM    H6S11884   0.891   5.517  10.202  0.1712  0.0932  0.0693
  114OSM    H6T11885   0.763   5.630  10.168 -0.3678  0.6446 -1.3021
  114OSM    C7S11886   0.788   5.476  10.017 -0.7152  1.0701 -0.2046
  114OSM    H7S11887   0.689   5.495   9.969 -1.3143  0.1571  0.6227
  114OSM    H7T11888   0.800   5.365  10.020  2.5818  1.3505  2.2083
  114OSM    C8S11889   0.900   5.533   9.944 -0.6537 -0.2758  0.1815
  114OSM    H8S11890   0.997   5.493   9.982  0.5438  2.1254 -0.1306
  114OSM    H8T11891   0.910   5.643   9.955 -1.2209 -0.2600  0.5654
  114OSM    C9S11892   0.902   5.516   9.787 -0.1860 -0.1077 -0.7439
  114OSM    H9S11893   0.917   5.415   9.743 -0.3878  0.4888 -2.2378
  114OSM    H9T11894   0.994   5.572   9.759 -1.0163  0.7400 -1.8843
  114OSM   C10S11895   0.800   5.595   9.705  0.5769  0.5167 -0.5634
  114OSM   H10S11896   0.790   5.694   9.754 -0.7384 -0.2217  0.7159
  114OSM   H10T11897   0.703   5.542   9.709  1.0779 -0.3689  0.7999
  114OSM   C11S11898   0.837   5.595   9.562  0.2664 -0.2409  0.7746
  114OSM   H11S11899   0.857   5.493   9.523 -1.2209  0.3349 -1.7215
  114OSM   H11T11900   0.932   5.652   9.548  0.0606 -0.0040  0.2950
  114OSM   C12S11901   0.733   5.667   9.469 -0.5640  0.4297  0.4725
  114OSM   H12S11902   0.715   5.775   9.489  1.0751  0.7512  0.3452
  114OSM   H12T11903   0.634   5.618   9.478 -0.8879  1.3553  2.2768
  114OSM   C13S11904   0.786   5.657   9.323 -0.1530 -0.2911 -0.0545
  114OSM   H13S11905   0.806   5.550   9.302  2.8924  0.0491  0.6168
  114OSM   H13T11906   0.890   5.693   9.308 -1.1452  1.7721 -3.0438
  114OSM   C14S11907   0.685   5.719   9.227 -0.0336  0.8950  0.3947
  114OSM   H14S11908   0.681   5.825   9.258 -0.8559  1.0586 -0.2317
  114OSM   H14T11909   0.583   5.682   9.252 -0.0491  0.9416  0.3999
  114OSM   C15S11910   0.711   5.693   9.076  0.1481  0.0334 -0.3886
  114OSM   H15S11911   0.773   5.604   9.052  0.9068  0.6913 -0.8776
  114OSM   H15T11912   0.772   5.780   9.047  1.4488 -0.4547  0.7743
  114OSM   C16S11913   0.585   5.688   8.993  0.2089 -0.1397  0.0931
  114OSM   H16S11914   0.503   5.752   9.033  0.0125  1.0323 -2.0697
  114OSM   H16T11915   0.548   5.583   8.993  1.3671 -0.5614 -0.6024
  114OSM   C17S11916   0.602   5.746   8.857 -0.2211 -0.0936  0.4747
  114OSM   H17S11917   0.675   5.678   8.809  0.5975 -0.8436  2.6631
  114OSM   H17T11918   0.654   5.843   8.873 -1.0579  0.7508 -1.4793
  114OSM   C18S11919   0.469   5.780   8.789 -0.1408  0.2266 -0.2451
  114OSM   H18S11920   0.406   5.689   8.785 -1.5215  1.0690  0.9253
  114OSM   H18T11921   0.492   5.803   8.683 -0.4374 -1.7252 -0.7613
  114OSM   H18U11922   0.406   5.859   8.838 -0.3662  0.0772 -0.2941
  114OSM    C1F11923   0.195   5.431  10.192  0.5113 -0.9348 -0.2680
  114OSM     OF11924   0.118   5.517  10.234  0.1926 -0.2249 -0.0811
  114OSM    C2F11925   0.161   5.353  10.070 -0.3974 -0.0893 -0.6850
  114OSM    H2F11926   0.217   5.257  10.067 -1.4421 -0.7095 -0.4925
  114OSM    H2G11927   0.190   5.416   9.982  3.0245 -0.4247  0.0578
  114OSM    C3F11928   0.014   5.319  10.065  0.1097  0.8353 -0.4853
  114OSM    H3F11929  -0.056   5.402  10.091 -0.6969 -0.3267  1.2835
  114OSM    H3G11930  -0.003   5.239  10.140 -1.1812  2.3972  0.9891
  114OSM    C4F11931  -0.015   5.260   9.926 -0.7069  0.7701  0.5828
  114OSM    H4F11932   0.002   5.340   9.850 -1.5333 -1.1967 -1.8242
  114OSM    H4G11933  -0.124   5.238   9.923 -0.7441  1.0486 -1.2833
  114OSM    C5F11934   0.075   5.135   9.889  0.3649  0.0612 -0.3818
  114OSM    H5F11935   0.099   5.081   9.983  0.2222  1.2527  0.3601
  114OSM    H5G11936   0.176   5.163   9.855  1.9194 -5.1825 -0.9286
  114OSM    C6F11937   0.016   5.040   9.779 -0.5624  0.2676  0.1586
  114OSM    H6F11938  -0.072   4.985   9.816  0.1874 -0.4224  0.9809
  114OSM    H6G11939   0.092   4.965   9.749  1.8403  2.1274  1.1885
  114OSM    C7F11940  -0.027   5.114   9.651  0.1742 -0.2435 -0.8635
  114OSM    H7F11941   0.062   5.163   9.607  0.2564 -0.2743 -0.7293
  114OSM    H7G11942  -0.102   5.189   9.685  0.2408  0.0220 -1.3024
  114OSM    C8F11943  -0.113   5.025   9.555  0.5133 -0.4191  0.0536
  114OSM    H8F11944  -0.180   4.975   9.628 -1.0422  1.6879  0.1417
  114OSM    H8G11945  -0.055   4.942   9.509 -0.1475 -1.1613  0.5401
  114OSM    C9F11946  -0.189   5.112   9.454 -0.4770  0.1452  0.0207
  114OSM    H9F11947  -0.289   5.148   9.482 -0.0346  0.4659  1.2626
  114OSM   C10F11948  -0.136   5.159   9.340 -0.2422 -0.0131  0.3229
  114OSM   H10F11949  -0.202   5.219   9.276  0.2688  0.6376  0.4036
  114OSM   C11F11950  -0.002   5.123   9.277  0.3246  0.7497 -0.2661
  114OSM   H11F11951   0.033   5.027   9.321 -1.9778 -0.9975 -2.0374
  114OSM   H11G11952   0.078   5.195   9.306  1.5249 -0.0532 -1.5090
  114OSM   C12F11953  -0.021   5.108   9.123 -0.0970  0.2334  0.7033
  114OSM   H12F11954  -0.019   5.209   9.078 -0.4451 -0.2608 -0.4767
  114OSM   H12G11955  -0.111   5.052   9.091  0.4688  1.0278 -2.6880
  114OSM   C13F11956   0.108   5.034   9.069  0.2311  0.0506 -0.4253
  114OSM   H13F11957   0.148   4.955   9.136 -1.2323 -0.9357 -0.6610
  114OSM   H13G11958   0.189   5.109   9.054 -0.0929  0.2880 -1.0241
  114OSM   C14F11959   0.080   4.957   8.938 -0.9729  0.1063 -0.3146
  114OSM   H14F11960   0.039   5.035   8.871  1.8943  0.8529 -1.3605
  114OSM   H14G11961  -0.005   4.890   8.960 -0.5872  0.5345  3.0328
  114OSM   C15F11962   0.210   4.894   8.881  0.2936  0.6480 -0.3168
  114OSM   H15F11963   0.254   4.809   8.939 -1.4807 -0.7664 -0.9508
  114OSM   H15G11964   0.285   4.975   8.896  0.2874  0.5249  0.4443
  114OSM   C16F11965   0.203   4.855   8.730 -0.6298 -0.1450 -0.5483
  114OSM   H16F11966   0.117   4.915   8.691 -1.7162  0.0910  1.9472
  114OSM   H16G11967   0.161   4.752   8.732 -1.4868  0.1905 -0.4103
  114OSM   C17F11968   0.337   4.868   8.662  0.9749 -0.7903  0.2679
  114OSM   H17F11969   0.410   4.807   8.719  0.5698 -0.9048  0.6786
  114OSM   H17G11970   0.365   4.974   8.681  0.0796 -0.6846  1.0930
  114OSM   C18F11971   0.335   4.832   8.517  0.7817  0.4325  0.0679
  114OSM   H18F11972   0.279   4.737   8.508 -0.5479  1.2922 -1.3226
  114OSM   H18G11973   0.440   4.836   8.480  0.3098  1.9244 -1.2526
  114OSM   H18H11974   0.271   4.904   8.461 -0.7207 -0.7523  0.2171
  115OSM      N11975   6.169   4.902  10.617  0.1917  0.3014  0.6610
  115OSM    C1511976   6.228   4.850  10.747  0.1614  0.0332 -0.1614
  115OSM   H15A11977   6.144   4.850  10.816 -0.2816  1.5028 -0.6679
  115OSM   H15B11978   6.305   4.918  10.779  0.9273 -0.7953 -0.2042
  115OSM   H15C11979   6.256   4.745  10.747 -0.2978 -0.2130  3.7427
  115OSM    C1411980   6.137   5.045  10.639 -0.0674  0.4962 -0.4255
  115OSM   H14A11981   6.060   5.083  10.573  0.8736  1.9826 -0.7358
  115OSM   H14B11982   6.222   5.108  10.618  2.3847 -1.1800  3.3069
  115OSM   H14C11983   6.107   5.073  10.739 -1.9076  2.2066 -1.3756
  115OSM    C1311984   6.269   4.887  10.509  0.2123  0.2590 -0.2974
  115OSM   H13A11985   6.366   4.928  10.531  1.4420 -2.2892 -0.6617
  115OSM   H13B11986   6.220   4.931  10.423 -0.0381  0.8556  0.1486
  115OSM   H13C11987   6.281   4.781  10.489 -0.9231  0.1980 -0.7820
  115OSM    C1211988   6.049   4.825  10.580  0.6971  0.2448  0.2846
  115OSM   H12A11989   5.983   4.846  10.663  1.1208 -0.1566  0.7338
  115OSM   H12B11990   6.065   4.720  10.598  0.5108  0.1661 -0.0022
  115OSM    C1111991   5.989   4.843  10.440 -0.6243  0.3687 -0.8220
  115OSM   H11A11992   5.934   4.749  10.420  1.2149 -0.8759 -0.2549
  115OSM   H11B11993   6.062   4.856  10.357 -0.4758 -0.4270 -0.8187
  115OSM      P11994   5.761   4.942  10.515 -0.3445 -0.0254 -0.3418
  115OSM    O1311995   5.789   4.883  10.654 -0.0071  0.6366 -0.5773
  115OSM    O1411996   5.702   5.077  10.517 -0.1368 -0.2446 -1.1712
  115OSM    O1111997   5.667   4.841  10.430  0.0229  0.7189  0.1378
  115OSM    O1211998   5.902   4.952  10.441 -0.2132  0.0409  0.2169
  115OSM    C1S11999   5.603   4.880  10.306 -0.0602 -0.4648  0.4589
  115OSM    H1S12000   5.564   4.984  10.317  0.6847 -0.3136  2.0310
  115OSM    H1T12001   5.518   4.812  10.286  0.6661 -1.1236 -0.4360
  115OSM     NF12002   5.633   4.939  10.064 -0.7212 -0.5729 -0.0848
  115OSM    HNF12003   5.576   4.879  10.009 -0.0027 -1.4884  0.1487
  115OSM    C2S12004   5.696   4.869  10.177 -0.8056  0.7891 -0.5518
  115OSM    H2S12005   5.787   4.923  10.211  1.0004 -2.4957  0.3177
  115OSM    C3S12006   5.719   4.717  10.142  0.3400  0.2316  0.2193
  115OSM    H3S12007   5.615   4.679  10.137  0.7003 -1.1195  2.0005
  115OSM     O312008   5.780   4.638  10.239  0.1736  0.1917  0.3193
  115OSM    HO312009   5.762   4.691  10.316 -0.7820  2.3488 -1.2936
  115OSM    C4S12010   5.789   4.707  10.009  1.0288 -0.0411  1.1040
  115OSM    H4S12011   5.719   4.697   9.924  2.3235  1.6330 -0.2209
  115OSM    C5S12012   5.923   4.699   9.989 -0.1267 -0.8963  0.3006
  115OSM    H5S12013   5.992   4.707  10.074  0.6319  2.2059 -0.4604
  115OSM    C6S12014   5.996   4.702   9.855 -0.3994  0.2122 -0.4583
  115OSM    H6S12015   6.039   4.600   9.847  1.8207  1.0590  0.0487
  115OSM    H6T12016   6.077   4.778   9.853  0.6826 -0.9122 -1.6869
  115OSM    C7S12017   5.905   4.736   9.731 -0.2126  0.0587  0.3596
  115OSM    H7S12018   5.850   4.829   9.756  0.4773 -0.0961  2.6896
  115OSM    H7T12019   5.821   4.664   9.716 -1.2837  1.6551 -2.0010
  115OSM    C8S12020   5.992   4.759   9.603  0.1791 -0.7479  0.3189
  115OSM    H8S12021   6.046   4.664   9.579 -0.1725 -1.0024  0.5315
  115OSM    H8T12022   6.065   4.841   9.619  0.3541 -1.1465  1.6804
  115OSM    C9S12023   5.905   4.786   9.475 -0.0466  0.4486  0.7660
  115OSM    H9S12024   5.852   4.883   9.488 -2.3811 -0.7204  0.5555
  115OSM    H9T12025   5.833   4.701   9.470  0.6637 -0.1171 -0.0815
  115OSM   C10S12026   5.982   4.787   9.346 -0.2164  0.4512 -0.1014
  115OSM   H10S12027   6.038   4.693   9.332  2.0511  1.9999 -2.2144
  115OSM   H10T12028   6.064   4.862   9.342  1.7810 -1.6783 -2.2866
  115OSM   C11S12029   5.902   4.801   9.211 -0.2398 -0.2172 -0.2448
  115OSM   H11S12030   5.851   4.900   9.213 -2.6798 -1.4062 -0.3152
  115OSM   H11T12031   5.818   4.729   9.224  0.6489 -1.3380 -0.5449
  115OSM   C12S12032   5.992   4.778   9.094 -0.7323  0.6807  0.1067
  115OSM   H12S12033   6.064   4.701   9.128 -0.8015  0.6489  0.1811
  115OSM   H12T12034   6.068   4.856   9.073  1.7533 -1.5304  0.3037
  115OSM   C13S12035   5.927   4.740   8.959  0.3491  0.0772  0.1708
  115OSM   H13S12036   5.868   4.832   8.943 -1.0153 -0.3592  2.3280
  115OSM   H13T12037   5.853   4.658   8.973 -0.6980  0.5114 -2.1710
  115OSM   C14S12038   6.027   4.709   8.847  0.9188 -0.2475 -0.4383
  115OSM   H14S12039   6.095   4.632   8.889  1.5165  0.4689 -0.0882
  115OSM   H14T12040   6.087   4.801   8.833 -0.9898  1.2518  0.7273
  115OSM   C15S12041   5.962   4.670   8.711  0.3544 -0.6671  0.0481
  115OSM   H15S12042   5.897   4.581   8.725 -1.3119  0.3675 -0.7653
  115OSM   H15T12043   6.034   4.636   8.633 -2.3595  0.1818 -3.0783
  115OSM   C16S12044   5.869   4.783   8.660  0.2764  0.6378  0.2781
  115OSM   H16S12045   5.791   4.805   8.736 -0.9819  0.9781 -1.0750
  115OSM   H16T12046   5.814   4.751   8.569  0.6847 -2.2234  0.9337
  115OSM   C17S12047   5.946   4.910   8.616  0.4865 -0.1869  0.1927
  115OSM   H17S12048   6.022   4.890   8.537 -0.2462  2.4300 -1.2979
  115OSM   H17T12049   6.007   4.951   8.700  0.9466 -1.1502  0.3398
  115OSM   C18S12050   5.842   5.024   8.572 -1.0077  0.6601  0.6711
  115OSM   H18S12051   5.779   4.992   8.487 -0.6246  0.4062  0.4781
  115OSM   H18T12052   5.900   5.109   8.530 -0.8449 -0.2250 -0.9741
  115OSM   H18U12053   5.776   5.056   8.656 -0.1025  3.6890  0.3329
  115OSM    C1F12054   5.616   5.067  10.062 -0.3196 -0.2361 -0.0200
  115OSM     OF12055   5.701   5.134  10.114 -0.2921 -0.3272  0.5264
  115OSM    C2F12056   5.496   5.128   9.988 -0.5606  0.4998  0.3818
  115OSM    H2F12057   5.417   5.050   9.988 -0.9369  0.8468 -1.0876
  115OSM    H2G12058   5.531   5.160   9.887 -2.5979  1.5862 -0.0340
  115OSM    C3F12059   5.433   5.251  10.056 -0.2772  0.1539  0.3467
  115OSM    H3F12060   5.496   5.342  10.054 -1.7788  1.2185 -1.3187
  115OSM    H3G12061   5.416   5.219  10.161 -0.2875 -1.8567 -0.2259
  115OSM    C4F12062   5.296   5.279   9.986  0.2082 -0.3132  0.2402
  115OSM    H4F12063   5.245   5.345  10.060  1.9625  0.9654  0.3694
  115OSM    H4G12064   5.241   5.183   9.974 -0.1195 -0.0957 -0.0268
  115OSM    C5F12065   5.309   5.353   9.855 -0.4930  0.4051  0.0479
  115OSM    H5F12066   5.410   5.399   9.851 -1.0778  1.6979 -0.1842
  115OSM    H5G12067   5.234   5.430   9.827 -2.0382 -1.1362 -0.2902
  115OSM    C6F12068   5.299   5.262   9.737  0.5510 -1.2220 -0.0300
  115OSM    H6F12069   5.191   5.241   9.721  0.4308 -0.0976 -0.8463
  115OSM    H6G12070   5.351   5.165   9.756 -1.7433 -2.0121  3.0071
  115OSM    C7F12071   5.360   5.327   9.613  0.1720 -0.3177  0.4767
  115OSM    H7F12072   5.379   5.252   9.534  1.1928  0.9725 -0.5522
  115OSM    H7G12073   5.463   5.363   9.637 -0.0387  1.2171 -0.7887
  115OSM    C8F12074   5.275   5.438   9.551  0.4792  0.0738 -0.4834
  115OSM    H8F12075   5.340   5.502   9.488  1.6649 -1.3117 -0.7177
  115OSM    H8G12076   5.234   5.499   9.634 -1.0620  0.1536 -1.2622
  115OSM    C9F12077   5.158   5.383   9.477  0.9419 -0.3079  0.3792
  115OSM    H9F12078   5.120   5.288   9.519 -1.6537  0.7886  0.7232
  115OSM   C10F12079   5.109   5.448   9.376  0.4631  0.0040  0.4271
  115OSM   H10F12080   5.034   5.387   9.322  0.8527 -0.8391  0.8167
  115OSM   C11F12081   5.154   5.577   9.314 -0.7478 -0.7237 -0.4510
  115OSM   H11F12082   5.232   5.630   9.373 -1.7436 -0.7383  0.9424
  115OSM   H11G12083   5.069   5.648   9.303 -0.4361 -0.0279  1.2306
  115OSM   C12F12084   5.217   5.559   9.181  0.2165  0.2724 -0.0505
  115OSM   H12F12085   5.132   5.518   9.122 -1.2228  1.0025  1.4501
  115OSM   H12G12086   5.300   5.487   9.189 -0.1511 -0.1665 -0.1544
  115OSM   C13F12087   5.256   5.680   9.097  0.1240  0.0084 -0.1876
  115OSM   H13F12088   5.325   5.748   9.152 -0.8262  1.3137 -0.5495
  115OSM   H13G12089   5.162   5.738   9.083 -0.8689 -1.1978  1.2314
  115OSM   C14F12090   5.306   5.641   8.953  0.7596  0.0468  0.5370
  115OSM   H14F12091   5.310   5.729   8.885  0.5605 -1.0379 -0.9112
  115OSM   H14G12092   5.249   5.557   8.909 -0.3857  0.3664  1.3659
  115OSM   C15F12093   5.446   5.585   8.969  0.4953 -0.5435  0.3162
  115OSM   H15F12094   5.459   5.506   9.046 -2.0256 -0.3728  1.0172
  115OSM   H15G12095   5.511   5.659   9.021 -0.3386  0.1767  0.3620
  115OSM   C16F12096   5.512   5.556   8.835 -0.3626  0.5840  0.1605
  115OSM   H16F12097   5.509   5.648   8.773 -0.5596  0.6796  0.3094
  115OSM   H16G12098   5.463   5.474   8.778 -1.0573  0.3228  1.0952
  115OSM   C17F12099   5.661   5.524   8.857  0.6298 -0.0850 -0.4107
  115OSM   H17F12100   5.662   5.441   8.930 -0.6649 -1.3930 -1.8285
  115OSM   H17G12101   5.710   5.607   8.913  2.2930 -1.4140  0.1686
  115OSM   C18F12102   5.748   5.478   8.746 -0.4806  0.2849  0.1448
  115OSM   H18F12103   5.707   5.391   8.690 -2.3781  1.5789 -0.6172
  115OSM   H18G12104   5.855   5.468   8.774 -0.0183  2.4309 -0.6738
  115OSM   H18H12105   5.745   5.564   8.675 -0.3179 -1.7287 -2.4927
  116OSM      N12106   1.829   6.267  10.877  0.4677 -0.3764  0.3103
  116OSM    C1512107   1.762   6.362  10.777 -0.6203  0.2638 -0.1169
  116OSM   H15A12108   1.792   6.333  10.678  0.7732 -3.9775  1.3415
  116OSM   H15B12109   1.788   6.465  10.796  1.8424 -0.7818  3.2419
  116OSM   H15C12110   1.655   6.360  10.790 -0.8350  2.2057 -1.1464
  116OSM    C1412111   1.793   6.307  11.015 -0.0973  0.5961  0.2911
  116OSM   H14A12112   1.685   6.304  11.017 -0.1385  0.8422 -0.8537
  116OSM   H14B12113   1.820   6.410  11.035 -1.3268  1.2958 -1.3974
  116OSM   H14C12114   1.840   6.244  11.089  0.6173 -0.3908 -0.9732
  116OSM    C1312115   1.767   6.128  10.861 -0.1188  0.4322 -0.7255
  116OSM   H13A12116   1.781   6.090  10.761 -1.5267 -1.0224 -0.4172
  116OSM   H13B12117   1.660   6.133  10.871 -0.3434 -2.7555 -0.2313
  116OSM   H13C12118   1.812   6.051  10.923 -2.2651 -1.4955 -1.4291
  116OSM    C1212119   1.982   6.269  10.847 -0.2985 -0.8864  0.2327
  116OSM   H12A12120   1.990   6.244  10.742  1.7563  0.1480  0.0872
  116OSM   H12B12121   2.025   6.188  10.903  0.1971 -1.3171 -0.7496
  116OSM    C1112122   2.070   6.395  10.874  0.4634  0.1796 -0.7243
  116OSM   H11A12123   2.173   6.385  10.833  0.4562 -0.9615 -0.4822
  116OSM   H11B12124   2.087   6.413  10.983  0.5020 -1.0915 -0.5071
  116OSM      P12125   1.984   6.650  10.868  0.2521 -0.0613  0.2667
  116OSM    O1312126   1.857   6.685  10.813  0.5113 -0.1835  0.4971
  116OSM    O1412127   2.000   6.650  11.014 -0.9722 -0.3879  0.1297
  116OSM    O1112128   2.092   6.745  10.804 -0.3980  0.0626  0.3520
  116OSM    O1212129   2.018   6.509  10.808  0.7257 -0.4480 -0.1772
  116OSM    C1S12130   2.138   6.751  10.674 -0.2463  0.4064  0.1294
  116OSM    H1S12131   2.144   6.647  10.636 -1.1979  0.4412 -0.1432
  116OSM    H1T12132   2.234   6.807  10.671  0.4475 -0.7707 -0.2438
  116OSM     NF12133   2.109   6.833  10.438 -0.1355  0.0895 -0.2611
  116OSM    HNF12134   2.191   6.889  10.428  0.9627 -1.4720 -0.3854
  116OSM    C2S12135   2.052   6.832  10.574 -0.0122 -0.2194  0.0166
  116OSM    H2S12136   1.951   6.785  10.575  0.9079 -2.2927  1.2493
  116OSM    C3S12137   2.036   6.981  10.635  0.0698  0.0529  0.6583
  116OSM    H3S12138   2.131   7.038  10.636  0.8946 -0.9499 -3.3615
  116OSM     O312139   1.995   6.982  10.773 -0.2603  0.3035 -0.0019
  116OSM    HO312140   2.018   6.893  10.803  0.6569  0.4868 -0.1163
  116OSM    C4S12141   1.938   7.056  10.543  0.2462 -0.2480 -0.6551
  116OSM    H4S12142   1.833   7.021  10.539 -0.5566  1.9017  0.0438
  116OSM    C5S12143   1.973   7.161  10.464 -0.1908 -0.2206  0.4877
  116OSM    H5S12144   2.072   7.206  10.449  0.4819 -1.7108  0.3605
  116OSM    C6S12145   1.873   7.217  10.368  0.1541 -0.0954  0.2273
  116OSM    H6S12146   1.865   7.327  10.376  1.4204 -0.0912  2.5798
  116OSM    H6T12147   1.775   7.170  10.392  0.0248  0.5351  0.9631
  116OSM    C7S12148   1.918   7.177  10.232  0.0126 -0.6298  0.0616
  116OSM    H7S12149   1.899   7.068  10.223  1.0156 -0.8577  0.5093
  116OSM    H7T12150   2.026   7.202  10.219  0.2873 -0.6171  1.9650
  116OSM    C8S12151   1.843   7.252  10.122  0.4501 -1.0859  0.7455
  116OSM    H8S12152   1.841   7.360  10.149  1.0872 -0.3103 -2.0008
  116OSM    H8T12153   1.738   7.216  10.124  0.6639 -1.8901 -0.7708
  116OSM    C9S12154   1.888   7.226   9.979 -0.7221  0.5196 -0.0891
  116OSM    H9S12155   1.903   7.116   9.975 -2.4036  0.3115 -1.7455
  116OSM    H9T12156   1.984   7.272   9.948 -0.3134 -1.6659 -2.3549
  116OSM   C10S12157   1.788   7.274   9.877 -0.4509 -0.5733 -0.6217
  116OSM   H10S12158   1.757   7.380   9.892  1.2133 -0.2746  1.0828
  116OSM   H10T12159   1.695   7.214   9.873 -0.5491 -0.5132  0.3655
  116OSM   C11S12160   1.857   7.272   9.745 -0.1731 -0.2986  0.6321
  116OSM   H11S12161   1.881   7.167   9.716 -0.3579 -0.1524 -0.0892
  116OSM   H11T12162   1.950   7.333   9.749 -0.7144  0.5540  0.4804
  116OSM   C12S12163   1.764   7.311   9.629 -0.3114  0.8126  0.2581
  116OSM   H12S12164   1.727   7.415   9.638 -0.4736  0.9248 -1.4247
  116OSM   H12T12165   1.669   7.257   9.651  0.8735 -1.8175 -0.7187
  116OSM   C13S12166   1.826   7.286   9.489 -0.0901  0.3479 -0.2170
  116OSM   H13S12167   1.831   7.177   9.467  0.9988  0.6343 -1.4982
  116OSM   H13T12168   1.934   7.313   9.500 -0.5527  2.2014 -0.0109
  116OSM   C14S12169   1.752   7.362   9.375  0.3213 -0.0774 -0.1972
  116OSM   H14S12170   1.827   7.420   9.317  1.3749 -1.3822 -0.2023
  116OSM   H14T12171   1.680   7.435   9.417 -1.6154 -0.2884 -2.8669
  116OSM   C15S12172   1.686   7.266   9.279 -0.2929 -0.0768 -0.1609
  116OSM   H15S12173   1.589   7.227   9.317 -1.8681  2.0288 -1.7839
  116OSM   H15T12174   1.756   7.181   9.267  0.2089  0.0348  1.5666
  116OSM   C16S12175   1.668   7.337   9.145  0.5093 -0.7358  0.1398
  116OSM   H16S12176   1.766   7.376   9.108 -1.0683  1.2607 -2.2260
  116OSM   H16T12177   1.588   7.413   9.145 -1.4274 -2.6347  2.0454
  116OSM   C17S12178   1.620   7.243   9.032 -0.3302  0.1940 -0.5647
  116OSM   H17S12179   1.520   7.203   9.057  0.8577 -1.4640  1.9434
  116OSM   H17T12180   1.684   7.152   9.028  0.2226  0.5138  0.4496
  116OSM   C18S12181   1.630   7.306   8.895 -1.3855  0.4292 -0.4748
  116OSM   H18S12182   1.552   7.264   8.829 -0.4457 -1.5924 -0.3838
  116OSM   H18T12183   1.736   7.306   8.860 -0.8181  2.7598  1.0225
  116OSM   H18U12184   1.605   7.412   8.914  1.6851  1.1393  0.2403
  116OSM    C1F12185   2.083   6.733  10.355 -0.7997 -0.5497 -0.7006
  116OSM     OF12186   2.008   6.645  10.385  0.4254 -0.1967 -0.1185
  116OSM    C2F12187   2.157   6.736  10.218  0.6181  0.3010 -0.0482
  116OSM    H2F12188   2.263   6.762  10.242  0.2384  2.1692 -0.2146
  116OSM    H2G12189   2.128   6.819  10.150  1.0165  0.6628  0.2165
  116OSM    C3F12190   2.143   6.602  10.147 -0.1265 -0.4456  0.1946
  116OSM    H3F12191   2.037   6.569  10.144 -0.0878 -0.9674  2.3736
  116OSM    H3G12192   2.196   6.530  10.214  0.0813 -0.7047 -0.2486
  116OSM    C4F12193   2.200   6.582  10.006  0.2811 -0.1525 -0.1454
  116OSM    H4F12194   2.144   6.645   9.934  0.8769 -1.1732 -1.5536
  116OSM    H4G12195   2.179   6.476   9.979 -0.0231 -0.1284 -0.0083
  116OSM    C5F12196   2.356   6.607   9.991 -0.7787 -0.2160 -0.0705
  116OSM    H5F12197   2.402   6.531  10.058 -0.8349 -0.2318 -0.0496
  116OSM    H5G12198   2.382   6.704  10.039 -0.8873  0.1174 -0.6762
  116OSM    C6F12199   2.394   6.602   9.851  0.3986 -0.2049  0.3564
  116OSM    H6F12200   2.498   6.631   9.823  0.7479 -1.9832 -0.3019
  116OSM    H6G12201   2.323   6.656   9.785  0.5229  1.4396  1.5042
  116OSM    C7F12202   2.387   6.449   9.792 -0.1563 -0.7493 -0.3511
  116OSM    H7F12203   2.282   6.417   9.805 -0.9570  2.0573  1.0279
  116OSM    H7G12204   2.450   6.379   9.851  0.0922 -2.0365 -2.0856
  116OSM    C8F12205   2.438   6.417   9.648 -0.1690 -0.3089 -0.7200
  116OSM    H8F12206   2.430   6.310   9.620  1.0276 -0.1141 -1.8797
  116OSM    H8G12207   2.546   6.441   9.651 -0.2340 -0.0370 -0.5131
  116OSM    C9F12208   2.368   6.509   9.549 -0.3126  0.0780 -0.4639
  116OSM    H9F12209   2.266   6.530   9.586 -0.4024 -0.4800 -0.3845
  116OSM   C10F12210   2.422   6.550   9.431 -0.0167 -0.7968 -0.0553
  116OSM   H10F12211   2.364   6.615   9.364 -0.0457  0.6913  1.3512
  116OSM   C11F12212   2.553   6.523   9.374 -0.1570  0.6886  0.6782
  116OSM   H11F12213   2.618   6.479   9.453 -0.0624  0.0829  0.2694
  116OSM   H11G12214   2.601   6.619   9.344  1.9463 -0.2467  0.8832
  116OSM   C12F12215   2.533   6.422   9.257 -0.1700 -0.6805 -0.1150
  116OSM   H12F12216   2.484   6.330   9.295  0.1784 -1.6566 -1.9113
  116OSM   H12G12217   2.634   6.387   9.226 -0.1134  0.0712 -0.8199
  116OSM   C13F12218   2.457   6.480   9.137 -0.3347  0.2005  0.0401
  116OSM   H13F12219   2.347   6.481   9.150 -0.3875 -1.0230 -0.2150
  116OSM   H13G12220   2.477   6.406   9.057 -1.2481  0.4593 -0.4421
  116OSM   C14F12221   2.500   6.619   9.092 -0.1904  0.3983  0.1243
  116OSM   H14F12222   2.609   6.614   9.108 -0.1202  1.1684 -0.1021
  116OSM   H14G12223   2.453   6.693   9.161  2.4310  2.2668  0.0497
  116OSM   C15F12224   2.466   6.659   8.948 -0.4466 -0.1351 -0.5194
  116OSM   H15F12225   2.502   6.585   8.874 -0.7569  0.8788 -1.7220
  116OSM   H15G12226   2.512   6.759   8.934  0.1256 -0.1535  1.0429
  116OSM   C16F12227   2.311   6.681   8.938  0.2156 -0.2654 -0.6384
  116OSM   H16F12228   2.276   6.750   9.018 -0.1011 -0.4854 -0.5850
  116OSM   H16G12229   2.267   6.581   8.958 -0.4727 -0.0512 -1.0411
  116OSM   C17F12230   2.270   6.732   8.797 -0.4559  0.2081 -0.8827
  116OSM   H17F12231   2.298   6.647   8.732 -0.6690 -0.9832  0.5191
  116OSM   H17G12232   2.326   6.824   8.769  0.8214  0.0689  1.0199
  116OSM   C18F12233   2.123   6.760   8.781 -0.5996  0.2205  0.0748
  116OSM   H18F12234   2.057   6.685   8.830 -0.7062  1.5482  2.1138
  116OSM   H18G12235   2.090   6.773   8.675 -0.3391 -0.4605 -0.0909
  116OSM   H18H12236   2.102   6.857   8.831  0.4132  0.3839  0.2048
  117OSM      N12237   0.670   3.033  10.596  0.0266 -0.2909 -0.1412
  117OSM    C1512238   0.581   3.036  10.720 -0.1020 -0.3153  0.9571
  117OSM   H15A12239   0.482   3.007  10.690  0.1198 -1.1082  0.9649
  117OSM   H15B12240   0.577   3.139  10.752 -0.6265  0.2823 -0.9278
  117OSM   H15C12241   0.617   2.976  10.803  0.4658  0.3513  1.2042
  117OSM    C1412242   0.630   3.143  10.504  0.1188 -0.3334  0.1388
  117OSM   H14A12243   0.662   3.240  10.539 -0.8169  0.7808 -1.9133
  117OSM   H14B12244   0.523   3.140  10.494 -0.0668  0.7513  1.4102
  117OSM   H14C12245   0.689   3.132  10.414 -0.2087 -1.1565  0.0195
  117OSM    C1312246   0.815   3.056  10.628  0.4476  0.3730 -0.0663
  117OSM   H13A12247   0.847   2.996  10.711 -1.4090  0.7853  1.0000
  117OSM   H13B12248   0.837   3.156  10.662  1.0646  0.0287  0.5628
  117OSM   H13C12249   0.876   3.037  10.540 -1.0959 -1.7672 -0.7661
  117OSM    C1212250   0.663   2.896  10.535 -0.3458  0.2433  0.3311
  117OSM   H12A12251   0.558   2.872  10.537 -0.4377  0.6490  0.4377
  117OSM   H12B12252   0.716   2.829  10.602  2.0957  0.3178 -1.4107
  117OSM    C1112253   0.734   2.871  10.390  1.0686  0.0391 -0.1716
  117OSM   H11A12254   0.691   2.946  10.321  0.1096 -0.4847 -0.1538
  117OSM   H11B12255   0.712   2.769  10.352 -0.8960  0.3206  0.1197
  117OSM      P12256   0.974   2.798  10.463  0.0831 -0.1910 -0.1117
  117OSM    O1312257   1.097   2.873  10.493  0.6344 -0.2301  0.3218
  117OSM    O1412258   0.909   2.725  10.572 -0.0537 -0.0503 -0.3265
  117OSM    O1112259   1.000   2.693  10.340  0.2115 -0.1584  0.4275
  117OSM    O1212260   0.875   2.895  10.395  0.2139  0.2096 -0.2364
  117OSM    C1S12261   1.030   2.739  10.201  0.1263  0.5731 -0.8359
  117OSM    H1S12262   1.128   2.792  10.190  0.9250 -0.6427  0.1057
  117OSM    H1T12263   0.958   2.820  10.177 -1.2759 -0.0846  0.9935
  117OSM     NF12264   1.044   2.694   9.954  0.2346 -0.1519  0.0570
  117OSM    HNF12265   0.966   2.731   9.903 -0.3637  1.3328  1.9060
  117OSM    C2S12266   1.007   2.638  10.087 -0.5120  0.3897  0.4962
  117OSM    H2S12267   1.074   2.553  10.111  0.2962  0.7679 -0.3403
  117OSM    C3S12268   0.857   2.589  10.096 -0.8435  0.1509 -0.2632
  117OSM    H3S12269   0.796   2.680  10.081  0.6302  0.8483 -2.5125
  117OSM     O312270   0.825   2.541  10.225  0.2857 -0.6248  0.0604
  117OSM    HO312271   0.893   2.591  10.272 -0.1819  1.6643 -1.5215
  117OSM    C4S12272   0.823   2.488   9.983  0.4509  0.0067 -1.0051
  117OSM    H4S12273   0.815   2.540   9.887 -2.8381  0.1905 -0.7440
  117OSM    C5S12274   0.810   2.356  10.001  0.2995  0.0904 -0.5276
  117OSM    H5S12275   0.827   2.316  10.101 -3.4860  0.1094  0.2750
  117OSM    C6S12276   0.778   2.254   9.884 -0.1005  0.5047  0.0792
  117OSM    H6S12277   0.685   2.193   9.887  0.2293  0.0189  0.5945
  117OSM    H6T12278   0.853   2.173   9.884 -2.1454 -1.4929 -0.8864
  117OSM    C7S12279   0.782   2.319   9.745  0.0712  0.4185  0.3668
  117OSM    H7S12280   0.889   2.344   9.731 -0.3077  0.5941 -2.9632
  117OSM    H7T12281   0.719   2.411   9.748 -0.4412  0.1991 -1.6794
  117OSM    C8S12282   0.733   2.226   9.630 -0.1899 -1.0663 -1.1501
  117OSM    H8S12283   0.624   2.209   9.644 -0.4448  0.1291 -1.6060
  117OSM    H8T12284   0.779   2.125   9.637 -0.4522 -1.1057  0.3487
  117OSM    C9S12285   0.749   2.281   9.487 -0.2909  0.6406 -0.6697
  117OSM    H9S12286   0.857   2.297   9.468  0.0179 -0.6313 -0.0595
  117OSM    H9T12287   0.695   2.378   9.478 -0.0568  0.8796  0.3845
  117OSM   C10S12288   0.698   2.188   9.377 -0.3327  0.9743  0.5868
  117OSM   H10S12289   0.588   2.179   9.391 -0.0839 -0.1916  2.0568
  117OSM   H10T12290   0.743   2.089   9.402 -1.8210 -0.1500 -0.9659
  117OSM   C11S12291   0.736   2.237   9.237 -0.6111  0.1308  0.4007
  117OSM   H11S12292   0.845   2.254   9.224 -0.4122 -1.0702  0.3158
  117OSM   H11T12293   0.699   2.341   9.226 -1.9817 -0.2649  0.9941
  117OSM   C12S12294   0.671   2.140   9.135 -0.2524 -0.4144  0.1993
  117OSM   H12S12295   0.560   2.141   9.144 -0.3555  0.8255 -0.8883
  117OSM   H12T12296   0.711   2.037   9.148  1.8319  0.1212 -1.5005
  117OSM   C13S12297   0.706   2.168   8.991  0.2140 -0.2355  0.2469
  117OSM   H13S12298   0.815   2.178   8.970  0.2424  1.0621  0.9012
  117OSM   H13T12299   0.677   2.268   8.952  0.4785  0.3670  1.5305
  117OSM   C14S12300   0.654   2.070   8.884 -0.2075 -0.1394 -0.3129
  117OSM   H14S12301   0.545   2.061   8.903 -0.1943 -0.8366 -0.5445
  117OSM   H14T12302   0.705   1.976   8.914 -0.1446  0.9433  3.3697
  117OSM   C15S12303   0.701   2.119   8.743 -0.7645 -0.0446  0.3938
  117OSM   H15S12304   0.812   2.123   8.740 -0.8029  2.8897  0.2544
  117OSM   H15T12305   0.672   2.223   8.719 -0.0375 -0.0144 -0.3959
  117OSM   C16S12306   0.650   2.016   8.641 -0.1268 -0.3311  0.3015
  117OSM   H16S12307   0.657   1.913   8.682 -2.0858 -0.5022  0.3130
  117OSM   H16T12308   0.710   2.018   8.548  0.2351  0.2218  0.5395
  117OSM   C17S12309   0.508   2.039   8.588 -0.2063 -0.4399  0.2698
  117OSM   H17S12310   0.490   2.139   8.544  0.9320 -0.2049  0.3093
  117OSM   H17T12311   0.443   2.024   8.677 -1.3757 -0.7394 -0.6015
  117OSM   C18S12312   0.448   1.946   8.481 -0.6046 -0.4158  0.1001
  117OSM   H18S12313   0.449   1.842   8.520  1.8918 -0.2795  0.5318
  117OSM   H18T12314   0.506   1.949   8.387 -0.1764 -1.2221  0.3323
  117OSM   H18U12315   0.343   1.974   8.456 -1.0846 -1.8434  0.4050
  117OSM    C1F12316   1.168   2.721   9.928  0.2080 -0.0653  0.3939
  117OSM     OF12317   1.258   2.695  10.006  0.4885  0.6634 -0.4669
  117OSM    C2F12318   1.185   2.791   9.795  0.0757 -0.7731  0.1177
  117OSM    H2F12319   1.151   2.896   9.806  0.2966 -0.3484 -2.5541
  117OSM    H2G12320   1.115   2.759   9.715 -0.8259  1.0590  0.1241
  117OSM    C3F12321   1.332   2.780   9.741  0.0472  0.4615 -0.0097
  117OSM    H3F12322   1.351   2.671   9.746  1.5296  0.7781  3.0874
  117OSM    H3G12323   1.402   2.829   9.812  1.9567  0.3736 -1.7207
  117OSM    C4F12324   1.363   2.836   9.607  0.1479 -0.3186  0.6480
  117OSM    H4F12325   1.327   2.757   9.537  0.0677 -0.7161  1.1324
  117OSM    H4G12326   1.471   2.833   9.580 -0.2226 -1.5094 -0.9159
  117OSM    C5F12327   1.271   2.957   9.547 -0.5515  0.5302  0.4008
  117OSM    H5F12328   1.284   3.037   9.623 -0.1250  0.7276  0.1261
  117OSM    H5G12329   1.166   2.923   9.553 -0.7190  1.2774  3.1512
  117OSM    C6F12330   1.312   2.995   9.402  0.4802 -0.2732  0.0611
  117OSM    H6F12331   1.421   3.011   9.388  0.1284  1.9542 -0.5106
  117OSM    H6G12332   1.277   3.099   9.388  2.4873  0.6403  1.4087
  117OSM    C7F12333   1.242   2.908   9.288  0.1041  0.5067  0.0954
  117OSM    H7F12334   1.135   2.926   9.309 -0.2043 -0.1181 -0.8707
  117OSM    H7G12335   1.258   2.800   9.307 -0.0001  0.2167 -1.3211
  117OSM    C8F12336   1.291   2.937   9.145 -0.0255 -0.0258  0.4816
  117OSM    H8F12337   1.402   2.937   9.143  0.0924  3.4975 -1.2293
  117OSM    H8G12338   1.256   3.040   9.121 -0.0592 -0.2524 -0.4790
  117OSM    C9F12339   1.240   2.845   9.038 -0.0002  0.0466 -0.4844
  117OSM    H9F12340   1.304   2.757   9.025 -0.4233 -0.1886 -1.0240
  117OSM   C10F12341   1.126   2.860   8.972 -0.5243  0.2162 -0.1435
  117OSM   H10F12342   1.094   2.783   8.899 -0.5374  0.0914 -0.0059
  117OSM   C11F12343   1.039   2.978   8.962 -0.5436 -0.8618 -0.0827
  117OSM   H11F12344   1.081   3.064   9.019 -0.1823 -0.8679 -0.3339
  117OSM   H11G12345   0.942   2.956   9.011 -0.6935  0.9732  0.5391
  117OSM   C12F12346   1.021   3.041   8.818 -0.3693  0.1274  0.9683
  117OSM   H12F12347   0.944   3.121   8.822 -1.0082 -0.5245  2.9776
  117OSM   H12G12348   0.966   2.969   8.753 -2.2492  0.7362  1.7934
  117OSM   C13F12349   1.157   3.085   8.760  1.0732  0.0735 -0.2619
  117OSM   H13F12350   1.224   2.997   8.752  0.4043 -0.4311 -0.4354
  117OSM   H13G12351   1.198   3.158   8.833  2.6524 -2.6579  1.7392
  117OSM   C14F12352   1.146   3.163   8.630  0.2130  0.4433  0.7487
  117OSM   H14F12353   1.058   3.231   8.631 -0.4613 -0.1600 -2.9908
  117OSM   H14G12354   1.129   3.103   8.538  2.6084 -0.4604  0.8277
  117OSM   C15F12355   1.268   3.259   8.612 -0.3080 -0.0754  0.3282
  117OSM   H15F12356   1.274   3.318   8.706 -3.5949  1.7945 -0.4745
  117OSM   H15G12357   1.234   3.321   8.527 -1.0122 -4.3845 -2.8465
  117OSM   C16F12358   1.397   3.190   8.572 -0.7190  0.1678  0.0052
  117OSM   H16F12359   1.371   3.122   8.489  0.6506  1.1063 -1.2693
  117OSM   H16G12360   1.445   3.138   8.657 -0.4449 -0.3475 -0.4595
  117OSM   C17F12361   1.489   3.294   8.508 -0.2487 -0.2110  0.2344
  117OSM   H17F12362   1.502   3.382   8.575  0.4066  0.7330 -1.0828
  117OSM   H17G12363   1.434   3.335   8.420 -0.4770  2.5508  1.5607
  117OSM   C18F12364   1.626   3.251   8.463 -0.0040  0.7270 -0.3022
  117OSM   H18F12365   1.664   3.181   8.541 -1.3883 -0.0160 -0.2515
  117OSM   H18G12366   1.696   3.333   8.438  1.1771  0.1956  1.0781
  117OSM   H18H12367   1.624   3.192   8.368  0.5219 -0.9383  0.6685
  118OSM      N12368   6.205   3.945  10.645  0.7212 -0.1687 -1.0049
  118OSM    C1512369   6.300   3.985  10.758  0.4601 -0.3109 -0.3501
  118OSM   H15A12370   6.317   3.905  10.829 -0.7526 -0.5022 -0.2525
  118OSM   H15B12371   6.258   4.068  10.812  1.6068 -0.5031  0.8713
  118OSM   H15C12372   6.391   4.023  10.714 -0.1462  1.7654  0.0744
  118OSM    C1412373   6.241   3.807  10.598 -0.6048  0.2929  0.0295
  118OSM   H14A12374   6.245   3.732  10.675  0.1942 -1.9556 -2.0775
  118OSM   H14B12375   6.340   3.811  10.555  0.8894 -0.6948  3.1192
  118OSM   H14C12376   6.175   3.768  10.523 -0.2826 -0.0028 -0.1046
  118OSM    C1312377   6.067   3.939  10.705 -0.1570  0.7112 -0.3663
  118OSM   H13A12378   6.074   3.857  10.775  0.9947 -0.1359 -1.4126
  118OSM   H13B12379   5.997   3.902  10.631 -0.3953  1.9699 -0.7888
  118OSM   H13C12380   6.027   4.030  10.747 -2.2598 -1.2445  2.2004
  118OSM    C1212381   6.210   4.041  10.526  0.0523  0.1924  0.3521
  118OSM   H12A12382   6.194   4.142  10.563 -1.3260  0.7043 -1.4928
  118OSM   H12B12383   6.121   4.014  10.472 -0.5589 -0.2643  1.5489
  118OSM    C1112384   6.331   4.043  10.433 -0.3079 -0.4420 -0.0157
  118OSM   H11A12385   6.293   4.111  10.354  1.2738  0.0596 -0.3657
  118OSM   H11B12386   6.357   3.942  10.395 -0.6432 -0.8925  0.8962
  118OSM      P12387   6.468   4.254  10.512 -0.0589  0.0443  0.1194
  118OSM    O1312388   6.346   4.321  10.537  0.6228 -0.3332 -0.4742
  118OSM    O1412389   6.575   4.278  10.608 -0.4097  0.1679 -0.4397
  118OSM    O1112390   6.517   4.271  10.365  0.3311 -0.2588  0.4531
  118OSM    O1212391   6.442   4.097  10.501 -0.1158  0.3831 -0.1097
  118OSM    C1S12392   6.643   4.225  10.326 -0.3860  0.7396  0.1930
  118OSM    H1S12393   6.659   4.121  10.363  1.4301  0.1762 -1.9399
  118OSM    H1T12394   6.726   4.287  10.367 -0.9531  1.5001  0.2064
  118OSM     NF12395   6.799   4.191  10.129  0.0175  0.0710  0.1401
  118OSM    HNF12396   6.849   4.274  10.105 -0.9386  0.4691 -0.5371
  118OSM    C2S12397   6.667   4.229  10.174 -0.3366  0.0312 -1.0452
  118OSM    H2S12398   6.597   4.151  10.137  0.2951 -0.2038 -1.7694
  118OSM    C3S12399   6.618   4.367  10.111 -0.6399 -0.0430 -0.2748
  118OSM    H3S12400   6.694   4.441  10.144  1.1652 -2.2924  0.9715
  118OSM     O312401   6.495   4.428  10.151  0.8413 -0.1444  0.0721
  118OSM    HO312402   6.475   4.391  10.237 -0.4585  1.1539  0.3676
  118OSM    C4S12403   6.644   4.357   9.965  0.2229 -0.7959  0.2449
  118OSM    H4S12404   6.746   4.394   9.946  0.2455  0.3154  2.2477
  118OSM    C5S12405   6.566   4.325   9.856  0.0661 -0.2874 -0.0079
  118OSM    H5S12406   6.461   4.298   9.876 -0.0675  1.3443  1.6811
  118OSM    C6S12407   6.620   4.320   9.716  0.2785 -0.6879 -0.1796
  118OSM    H6S12408   6.544   4.357   9.644  1.0335  1.6525  0.1496
  118OSM    H6T12409   6.641   4.213   9.691  1.2701 -0.4491 -0.4048
  118OSM    C7S12410   6.743   4.402   9.672 -0.6031 -0.1368  0.0705
  118OSM    H7S12411   6.829   4.385   9.741 -1.9963 -1.7755  1.5210
  118OSM    H7T12412   6.711   4.508   9.672 -0.5026 -0.1050  0.1721
  118OSM    C8S12413   6.796   4.362   9.528  0.7748  0.3482 -0.0971
  118OSM    H8S12414   6.712   4.337   9.460  1.5927 -1.2103 -0.5929
  118OSM    H8T12415   6.852   4.268   9.548  1.2077  0.7777  0.7414
  118OSM    C9S12416   6.892   4.464   9.468 -0.3585  0.8211  0.3378
  118OSM    H9S12417   6.931   4.417   9.375  1.7499 -1.9929  2.4787
  118OSM    H9T12418   6.986   4.478   9.526  0.4445 -0.8475 -0.4849
  118OSM   C10S12419   6.826   4.593   9.423  0.5911  0.0995  0.3120
  118OSM   H10S12420   6.828   4.654   9.516  1.5584  0.5447  0.0050
  118OSM   H10T12421   6.721   4.576   9.389  0.6881  0.2799 -0.0738
  118OSM   C11S12422   6.897   4.679   9.323  0.8868 -0.3046  0.5137
  118OSM   H11S12423   7.007   4.686   9.340  1.1519  1.8374 -1.5623
  118OSM   H11T12424   6.860   4.782   9.344  0.2181 -0.7792  1.7379
  118OSM   C12S12425   6.869   4.633   9.176 -0.1813  0.3333  0.1128
  118OSM   H12S12426   6.832   4.718   9.115  0.3131 -0.2593 -1.0407
  118OSM   H12T12427   6.794   4.551   9.173 -0.9810  1.0655 -0.4293
  118OSM   C13S12428   7.001   4.579   9.114 -0.1378  0.2188 -0.5357
  118OSM   H13S12429   7.033   4.499   9.184 -0.5911  1.8484  1.6471
  118OSM   H13T12430   7.071   4.664   9.125 -2.5458  2.1650  0.9602
  118OSM   C14S12431   6.992   4.529   8.968  1.0523 -0.5439  0.3969
  118OSM   H14S12432   6.927   4.605   8.920  0.4424 -0.1048  1.8423
  118OSM   H14T12433   6.932   4.437   8.979  0.1498 -0.0588 -0.3710
  118OSM   C15S12434   7.121   4.497   8.905 -0.5189  0.5962  0.1067
  118OSM   H15S12435   7.177   4.438   8.980 -2.0462 -0.4876  0.4415
  118OSM   H15T12436   7.173   4.594   8.888  1.2395  0.1432  2.3991
  118OSM   C16S12437   7.103   4.427   8.763 -0.7906 -0.5525  0.5280
  118OSM   H16S12438   7.028   4.480   8.701 -0.8127  0.1037  1.1018
  118OSM   H16T12439   7.056   4.328   8.783  1.0825 -1.7700 -0.7671
  118OSM   C17S12440   7.229   4.394   8.689 -0.8014 -0.2105  0.3723
  118OSM   H17S12441   7.279   4.485   8.650 -0.3675 -0.5169  0.2044
  118OSM   H17T12442   7.203   4.322   8.609 -0.6596 -1.7113  1.6407
  118OSM   C18S12443   7.339   4.323   8.767 -0.2259  0.4455 -0.4262
  118OSM   H18S12444   7.374   4.388   8.851 -0.8360  1.0886 -0.6649
  118OSM   H18T12445   7.427   4.317   8.699  0.8701  0.2582  0.9531
  118OSM   H18U12446   7.298   4.226   8.805 -1.4866 -0.3791 -3.5738
  118OSM    C1F12447   6.858   4.083  10.173 -0.2241  0.2337  0.5056
  118OSM     OF12448   6.794   3.997  10.234  0.0262 -0.5348  0.5795
  118OSM    C2F12449   7.007   4.062  10.138  0.5463 -0.2009 -0.1803
  118OSM    H2F12450   7.065   4.111  10.219 -1.5917  1.8953  0.2185
  118OSM    H2G12451   7.022   4.127  10.049 -2.7726 -0.1848 -0.8645
  118OSM    C3F12452   7.045   3.913  10.097  0.7531  0.1379  0.1892
  118OSM    H3F12453   7.028   3.855  10.190 -0.1894  0.0820 -0.0130
  118OSM    H3G12454   7.155   3.904  10.080  0.8352  1.4387 -0.0616
  118OSM    C4F12455   6.961   3.856   9.980 -0.2014 -0.2741 -0.5722
  118OSM    H4F12456   6.853   3.847  10.003  0.3199 -2.5145  1.4732
  118OSM    H4G12457   6.995   3.750   9.969  0.4544 -0.1076 -0.2102
  118OSM    C5F12458   6.994   3.923   9.841 -0.1286  0.3888 -0.8172
  118OSM    H5F12459   7.102   3.917   9.815  0.3254  0.1604  0.9469
  118OSM    H5G12460   6.963   4.029   9.850 -0.9686  0.2447 -1.9107
  118OSM    C6F12461   6.931   3.849   9.721 -0.3872  0.0261 -0.4487
  118OSM    H6F12462   6.824   3.875   9.721 -0.2103  0.7630  0.0632
  118OSM    H6G12463   6.941   3.743   9.754 -1.6276 -0.1268 -0.5397
  118OSM    C7F12464   7.013   3.876   9.589 -0.1397 -0.3813  0.4857
  118OSM    H7F12465   7.124   3.880   9.597  0.0877 -1.3063 -1.4904
  118OSM    H7G12466   6.984   3.983   9.579 -0.2301 -0.1866  2.5687
  118OSM    C8F12467   6.966   3.794   9.467 -0.7831  0.6448  0.2526
  118OSM    H8F12468   6.858   3.816   9.452 -0.9907  0.2159  1.0463
  118OSM    H8G12469   6.973   3.687   9.493  0.2111  1.0714  1.9462
  118OSM    C9F12470   7.045   3.810   9.340 -1.2721 -0.1083 -0.3757
  118OSM    H9F12471   7.140   3.753   9.342 -1.8078 -1.0210 -0.3528
  118OSM   C10F12472   7.007   3.899   9.244 -0.0109  0.8528 -0.1848
  118OSM   H10F12473   7.073   3.912   9.157 -1.1170 -0.6718 -1.2835
  118OSM   C11F12474   6.895   3.995   9.244 -0.4398  0.2376 -0.3373
  118OSM   H11F12475   6.857   4.007   9.347 -0.7663  1.3925 -0.5841
  118OSM   H11G12476   6.804   3.947   9.201 -0.7040 -0.4623  0.9366
  118OSM   C12F12477   6.921   4.126   9.167  0.6440 -0.7586 -0.4744
  118OSM   H12F12478   7.024   4.164   9.181  0.4434  0.5280 -2.1829
  118OSM   H12G12479   6.858   4.208   9.207  2.9690 -0.0722  2.0455
  118OSM   C13F12480   6.907   4.110   9.018 -0.7395 -0.3689  0.0111
  118OSM   H13F12481   6.946   4.013   8.982 -0.1718  0.3294 -1.3057
  118OSM   H13G12482   6.955   4.197   8.968 -2.4094  1.9157  2.0729
  118OSM   C14F12483   6.761   4.116   8.971  0.1920  0.1869 -0.4915
  118OSM   H14F12484   6.703   4.184   9.037 -0.4715 -0.2978 -0.5608
  118OSM   H14G12485   6.719   4.013   8.975  0.3829 -0.1324 -3.8757
  118OSM   C15F12486   6.752   4.163   8.823 -0.3991  0.5907  0.1856
  118OSM   H15F12487   6.780   4.270   8.828  0.4235  0.3081  2.4071
  118OSM   H15G12488   6.648   4.161   8.783  0.0362  0.1168 -0.9602
  118OSM   C16F12489   6.844   4.097   8.721  0.1987 -0.2615 -0.3050
  118OSM   H16F12490   6.817   3.991   8.701  1.0882 -1.0230  2.1638
  118OSM   H16G12491   6.948   4.105   8.759  0.6465  0.6324 -1.6547
  118OSM   C17F12492   6.855   4.163   8.582 -0.5940 -0.3094 -0.1548
  118OSM   H17F12493   6.889   4.268   8.590 -1.9518  0.2956 -1.7256
  118OSM   H17G12494   6.755   4.167   8.532 -1.2293 -0.8782  1.0256
  118OSM   C18F12495   6.953   4.098   8.487  0.8461 -0.1606  0.9761
  118OSM   H18F12496   6.961   3.987   8.486  1.2319 -0.1437 -0.1154
  118OSM   H18G12497   7.053   4.138   8.514  2.0746 -1.8090 -0.7777
  118OSM   H18H12498   6.930   4.127   8.382 -0.2132  2.2633  1.8254
  119OSM      N12499   2.242   2.064  10.815  0.1445  0.4306  0.0286
  119OSM    C1512500   2.371   1.993  10.780  0.1801  0.4875 -0.2094
  119OSM   H15A12501   2.395   1.923  10.859 -0.5439  0.7595  0.2627
  119OSM   H15B12502   2.452   2.056  10.746 -0.2081  1.4955  0.6887
  119OSM   H15C12503   2.358   1.935  10.690  1.0753 -1.8468  1.0832
  119OSM    C1412504   2.152   1.965  10.867  0.9354  1.0955  0.5042
  119OSM   H14A12505   2.108   1.910  10.785 -1.1603  2.2554  0.7640
  119OSM   H14B12506   2.068   2.001  10.925  0.2867  1.6949 -0.7461
  119OSM   H14C12507   2.214   1.903  10.930  2.0072  0.8083 -0.7982
  119OSM    C1312508   2.283   2.159  10.920 -0.0774 -0.3773  0.4406
  119OSM   H13A12509   2.359   2.225  10.879 -0.1288 -0.6036 -0.0284
  119OSM   H13B12510   2.327   2.099  10.999 -0.2200 -1.6734 -0.4320
  119OSM   H13C12511   2.192   2.200  10.960 -1.0566 -1.3724 -0.6923
  119OSM    C1212512   2.183   2.133  10.689 -0.0448  0.3852 -0.8062
  119OSM   H12A12513   2.255   2.203  10.649 -1.4194  1.7889 -0.9390
  119OSM   H12B12514   2.107   2.202  10.724  1.2257  1.3095  0.2389
  119OSM    C1112515   2.111   2.047  10.580  0.1626  0.6149  0.2007
  119OSM   H11A12516   2.046   2.107  10.513 -1.4152  1.2740  2.2203
  119OSM   H11B12517   2.040   1.976  10.628  0.7324  0.4166  0.7789
  119OSM      P12518   2.314   2.025  10.423 -0.3341 -0.2699  0.4094
  119OSM    O1312519   2.302   2.169  10.427 -0.1365 -0.0795  0.1074
  119OSM    O1412520   2.443   1.968  10.468  0.5721 -1.3448  0.0020
  119OSM    O1112521   2.278   1.972  10.275  0.0610  0.2539 -0.7026
  119OSM    O1212522   2.195   1.964  10.512 -0.4531 -0.3202 -0.1172
  119OSM    C1S12523   2.176   2.042  10.203  0.4996  0.1237  0.6944
  119OSM    H1S12524   2.198   2.149  10.187  0.4316 -0.0495 -0.7007
  119OSM    H1T12525   2.078   2.025  10.252 -0.2731 -0.3760 -0.9552
  119OSM     NF12526   2.057   2.065   9.975 -0.2357  0.4367 -0.3203
  119OSM    HNF12527   1.972   2.022   9.946  0.4652  0.5364 -2.7452
  119OSM    C2S12528   2.160   1.995  10.053 -0.2429  0.2407  0.4667
  119OSM    H2S12529   2.249   2.018   9.991 -1.6717 -0.7593 -2.0856
  119OSM    C3S12530   2.142   1.838  10.045 -0.5380  0.2871 -0.1678
  119OSM    H3S12531   2.050   1.813  10.102  0.3225 -3.6088 -0.1548
  119OSM     O312532   2.253   1.767  10.105  0.8179 -0.2443 -0.4407
  119OSM    HO312533   2.290   1.830  10.167 -0.1252 -0.3355  0.2421
  119OSM    C4S12534   2.111   1.795   9.911  0.1206 -0.0504 -0.0477
  119OSM    H4S12535   2.002   1.785   9.900  0.2129 -0.5889 -0.5109
  119OSM    C5S12536   2.189   1.769   9.803  0.3188  0.3001  0.6633
  119OSM    H5S12537   2.299   1.773   9.800  0.2942  0.7661  0.2451
  119OSM    C6S12538   2.122   1.726   9.672  1.2831 -0.2361 -0.5260
  119OSM    H6S12539   2.058   1.636   9.666  0.5456  0.2730 -0.4407
  119OSM    H6T12540   2.203   1.710   9.597 -0.3814 -1.9199 -2.0558
  119OSM    C7S12541   2.024   1.833   9.615 -0.4437 -0.6776 -0.6938
  119OSM    H7S12542   2.065   1.936   9.617 -0.2769 -0.7506  0.1117
  119OSM    H7T12543   1.939   1.851   9.685 -1.5831  0.9500 -2.4123
  119OSM    C8S12544   1.966   1.788   9.490  0.3766 -0.4218 -0.2141
  119OSM    H8S12545   1.858   1.816   9.494  1.0824  2.4164  0.7565
  119OSM    H8T12546   1.971   1.679   9.468 -0.0514 -0.2364 -1.3269
  119OSM    C9S12547   2.028   1.859   9.361 -1.1729  0.3169  0.5417
  119OSM    H9S12548   1.998   1.812   9.265 -3.0365  1.1530  0.6583
  119OSM    H9T12549   2.137   1.844   9.371 -0.7222  2.5467 -0.4051
  119OSM   C10S12550   1.987   2.006   9.358  0.1743 -0.0926 -0.2757
  119OSM   H10S12551   2.030   2.052   9.450  0.0787  2.6421 -1.4873
  119OSM   H10T12552   1.878   2.023   9.366 -0.2797 -2.3939 -0.8906
  119OSM   C11S12553   2.035   2.081   9.232  0.1571 -0.0715 -0.4044
  119OSM   H11S12554   2.141   2.055   9.211  0.2912 -0.4314  0.6752
  119OSM   H11T12555   2.024   2.190   9.248 -3.2891 -0.4106  0.2992
  119OSM   C12S12556   1.968   2.039   9.101 -0.0532  0.1392 -0.5211
  119OSM   H12S12557   1.859   2.059   9.104 -0.6227 -2.1477 -2.3547
  119OSM   H12T12558   1.980   1.929   9.086  2.6805  0.0551  1.5338
  119OSM   C13S12559   2.029   2.114   8.980  0.6869 -0.0116 -0.5972
  119OSM   H13S12560   2.133   2.083   8.955  0.0698 -1.5615 -1.4148
  119OSM   H13T12561   2.030   2.223   9.002 -0.4805 -0.0251 -0.4292
  119OSM   C14S12562   1.959   2.099   8.848  0.1934  1.0952 -0.3102
  119OSM   H14S12563   1.859   2.146   8.843  0.3965  1.5485 -0.1559
  119OSM   H14T12564   1.933   1.991   8.842  1.9860  0.5111  1.2945
  119OSM   C15S12565   2.049   2.154   8.736  0.3377 -0.3855 -0.9149
  119OSM   H15S12566   2.091   2.249   8.775 -0.3418 -0.6797  0.6591
  119OSM   H15T12567   1.983   2.179   8.650 -1.3966  1.8923  0.9279
  119OSM   C16S12568   2.163   2.064   8.688 -0.2574 -0.1870  0.1701
  119OSM   H16S12569   2.120   1.966   8.655 -0.5568 -0.3209  0.9345
  119OSM   H16T12570   2.221   2.031   8.777 -1.3633 -0.8976  0.6525
  119OSM   C17S12571   2.243   2.123   8.567 -0.3650 -0.0726 -0.0704
  119OSM   H17S12572   2.255   2.232   8.586 -0.6530  0.0171 -0.3882
  119OSM   H17T12573   2.199   2.128   8.465 -1.5476  1.1231  0.4668
  119OSM   C18S12574   2.381   2.062   8.548 -0.1487 -0.3711 -0.0950
  119OSM   H18S12575   2.459   2.103   8.616  1.3509 -1.0353 -1.3575
  119OSM   H18T12576   2.420   2.093   8.449 -1.3170 -2.1748 -1.1813
  119OSM   H18U12577   2.384   1.952   8.554 -0.4531 -0.4074 -0.5662
  119OSM    C1F12578   2.066   2.198   9.957  0.1606 -0.2135 -0.4322
  119OSM     OF12579   2.170   2.263   9.985  0.0119  0.3008 -0.7100
  119OSM    C2F12580   1.951   2.268   9.886 -0.5391 -0.3707  0.1748
  119OSM    H2F12581   1.955   2.377   9.903  1.7627  0.0369 -2.3043
  119OSM    H2G12582   1.858   2.218   9.922 -0.5154 -0.2912  0.3434
  119OSM    C3F12583   1.968   2.260   9.727 -0.0982 -0.4868 -0.2216
  119OSM    H3F12584   1.968   2.159   9.681  1.2669 -0.5847 -0.0500
  119OSM    H3G12585   2.069   2.304   9.710  0.1694 -0.3255  1.5592
  119OSM    C4F12586   1.872   2.355   9.645  0.1774 -0.0720 -0.2233
  119OSM    H4F12587   1.886   2.462   9.672  1.1742 -0.1913 -0.2169
  119OSM    H4G12588   1.767   2.327   9.668  0.0211  1.1211  0.6172
  119OSM    C5F12589   1.895   2.350   9.483  0.0295 -0.1291 -0.2691
  119OSM    H5F12590   1.897   2.241   9.461 -0.1236 -0.0039 -0.9016
  119OSM    H5G12591   1.993   2.402   9.483  0.4215 -0.2359  5.0429
  119OSM    C6F12592   1.795   2.430   9.401 -0.4686 -0.0695  0.1035
  119OSM    H6F12593   1.805   2.539   9.420 -2.3088  0.4903 -1.7082
  119OSM    H6G12594   1.688   2.401   9.408 -0.1531 -1.0656  1.0458
  119OSM    C7F12595   1.818   2.426   9.247 -0.5360  0.1012  0.3378
  119OSM    H7F12596   1.761   2.343   9.201 -1.9663  0.4839  1.3213
  119OSM    H7G12597   1.924   2.398   9.234 -0.4709  0.3126  0.4039
  119OSM    C8F12598   1.802   2.562   9.171  0.4472  0.2887 -0.2480
  119OSM    H8F12599   1.856   2.540   9.076  2.2357 -0.6007  0.9063
  119OSM    H8G12600   1.867   2.636   9.223  0.1617  2.3848 -2.6722
  119OSM    C9F12601   1.655   2.604   9.149  0.0311 -0.5812  0.4041
  119OSM    H9F12602   1.594   2.616   9.240  0.3008 -1.8043  0.7656
  119OSM   C10F12603   1.585   2.618   9.031 -0.1713  0.0708  0.1511
  119OSM   H10F12604   1.479   2.648   9.031  0.4119  2.3292  0.5027
  119OSM   C11F12605   1.651   2.595   8.898 -0.1409 -1.3182  0.1736
  119OSM   H11F12606   1.753   2.641   8.900 -0.7542  0.0900  0.1946
  119OSM   H11G12607   1.604   2.651   8.815  3.1563  1.5877  0.0277
  119OSM   C12F12608   1.662   2.442   8.874  0.6631  0.0026  0.0618
  119OSM   H12F12609   1.569   2.392   8.841  1.6086 -1.9682  0.2368
  119OSM   H12G12610   1.700   2.387   8.963  0.6204 -0.2045 -0.0493
  119OSM   C13F12611   1.755   2.407   8.760 -0.2951  0.2768  0.5023
  119OSM   H13F12612   1.798   2.304   8.768  0.5443  0.4650 -1.1327
  119OSM   H13G12613   1.840   2.476   8.772 -0.5195  0.9123 -1.2651
  119OSM   C14F12614   1.694   2.426   8.624 -0.3656 -0.6667  0.2390
  119OSM   H14F12615   1.742   2.510   8.571  0.0741 -0.8765  0.3021
  119OSM   H14G12616   1.597   2.474   8.648 -1.3977 -2.3630 -0.3834
  119OSM   C15F12617   1.686   2.305   8.532  0.1731 -0.1450 -0.3991
  119OSM   H15F12618   1.640   2.222   8.590  0.2209 -0.8969 -1.4126
  119OSM   H15G12619   1.787   2.269   8.503  0.4691 -0.5852  1.0599
  119OSM   C16F12620   1.597   2.324   8.405 -0.0552  0.0384  0.2005
  119OSM   H16F12621   1.618   2.420   8.355 -0.1986  0.8678  1.6820
  119OSM   H16G12622   1.496   2.347   8.447 -0.9538 -1.3030 -1.0935
  119OSM   C17F12623   1.577   2.211   8.306 -0.2127  0.3202  0.1412
  119OSM   H17F12624   1.567   2.112   8.356 -0.8393  0.3820  0.1507
  119OSM   H17G12625   1.671   2.205   8.246 -1.0468  1.0450 -1.2930
  119OSM   C18F12626   1.455   2.232   8.212 -0.5117 -0.2950 -0.5047
  119OSM   H18F12627   1.360   2.239   8.269  1.5060 -0.0795  3.1907
  119OSM   H18G12628   1.445   2.141   8.149 -3.3886 -1.2215  1.1309
  119OSM   H18H12629   1.463   2.333   8.166 -1.1245 -0.2279 -0.4662
  120OSM      N12630   1.257   0.832  11.217  1.3938  0.2442 -0.3721
  120OSM    C1512631   1.321   0.967  11.220  0.0904  0.9868  0.1872
  120OSM   H15A12632   1.394   0.985  11.142  1.3170  0.4607  1.1763
  120OSM   H15B12633   1.382   0.969  11.309  0.1359 -2.8420  0.4419
  120OSM   H15C12634   1.246   1.043  11.208  1.3676  2.0174 -1.7823
  120OSM    C1412635   1.343   0.724  11.182 -0.3969  0.1098 -0.2399
  120OSM   H14A12636   1.380   0.733  11.081 -1.3236  0.6865 -0.5396
  120OSM   H14B12637   1.283   0.633  11.178  1.2680 -0.9941 -1.1778
  120OSM   H14C12638   1.437   0.712  11.233  1.4591 -1.3289 -3.6035
  120OSM    C1312639   1.195   0.801  11.355 -0.3894  0.4725 -0.1745
  120OSM   H13A12640   1.145   0.706  11.365 -0.4955  0.7812  3.9204
  120OSM   H13B12641   1.115   0.871  11.374 -0.9578  0.5832 -2.5878
  120OSM   H13C12642   1.273   0.802  11.429  0.1549 -0.1646 -0.7300
  120OSM    C1212643   1.137   0.836  11.118  0.3404 -0.8809  0.2029
  120OSM   H12A12644   1.073   0.920  11.142  1.9807  0.1745  1.0596
  120OSM   H12B12645   1.066   0.755  11.117 -0.6671 -0.0296  0.2465
  120OSM    C1112646   1.175   0.851  10.970 -0.0825  0.2869  0.6310
  120OSM   H11A12647   1.259   0.921  10.949  1.1203 -1.5215 -0.8984
  120OSM   H11B12648   1.085   0.881  10.914 -0.1125 -2.7602 -1.1533
  120OSM      P12649   1.117   0.596  10.925 -0.5280  0.3514 -0.3697
  120OSM    O1312650   1.190   0.473  10.889  0.3517  0.2210 -0.0710
  120OSM    O1412651   1.034   0.592  11.041 -0.0080  0.7214  0.1242
  120OSM    O1112652   1.024   0.643  10.806  0.7455  0.1893  0.4370
  120OSM    O1212653   1.219   0.722  10.923  0.3147 -0.0712  0.5940
  120OSM    C1S12654   1.075   0.679  10.674  0.3570 -0.1387 -0.2209
  120OSM    H1S12655   1.114   0.587  10.624  0.2562  0.0089 -0.5721
  120OSM    H1T12656   1.157   0.752  10.688  0.2853  0.0840 -0.9139
  120OSM     NF12657   1.034   0.821  10.463 -0.0062 -0.3272 -0.1312
  120OSM    HNF12658   0.990   0.904  10.428  0.0884 -0.2426 -0.0476
  120OSM    C2S12659   0.972   0.749  10.576 -0.1040  0.0492  1.2121
  120OSM    H2S12660   0.924   0.660  10.531  0.3256 -0.1785  1.2043
  120OSM    C3S12661   0.852   0.825  10.645 -0.2387  0.0215  0.4409
  120OSM    H3S12662   0.887   0.926  10.674  0.7116  0.0692 -0.7947
  120OSM     O312663   0.807   0.778  10.768  0.0733  0.9172 -0.3128
  120OSM    HO312664   0.886   0.734  10.802 -0.9375 -0.8706 -0.1178
  120OSM    C4S12665   0.740   0.844  10.551 -0.4620  0.2737  0.0110
  120OSM    H4S12666   0.764   0.928  10.483 -0.7837  0.0224 -0.4204
  120OSM    C5S12667   0.616   0.790  10.545  0.8296  0.4614 -0.2002
  120OSM    H5S12668   0.584   0.719  10.623 -0.0257  1.4241  0.3447
  120OSM    C6S12669   0.508   0.827  10.445  0.0968 -0.5317 -0.3744
  120OSM    H6S12670   0.516   0.931  10.408 -2.5905  0.3524  1.2548
  120OSM    H6T12671   0.410   0.817  10.497  0.8884  0.1491  1.3428
  120OSM    C7S12672   0.520   0.733  10.322  0.5066  0.4172  0.7760
  120OSM    H7S12673   0.517   0.627  10.357 -0.2456 -0.0769 -0.6681
  120OSM    H7T12674   0.623   0.747  10.282 -0.0372  0.7237 -0.5841
  120OSM    C8S12675   0.413   0.749  10.219  0.6470 -0.0788 -0.4095
  120OSM    H8S12676   0.409   0.858  10.200 -1.1607  0.1844  1.1393
  120OSM    H8T12677   0.317   0.717  10.264  1.0630 -2.1921 -0.8981
  120OSM    C9S12678   0.434   0.664  10.096 -1.1908 -0.2029 -0.2610
  120OSM    H9S12679   0.441   0.558  10.130 -1.4259 -0.2570 -0.3800
  120OSM    H9T12680   0.526   0.699  10.045 -0.8426  1.1306  1.1990
  120OSM   C10S12681   0.328   0.672   9.994 -0.4165 -0.4073 -0.1723
  120OSM   H10S12682   0.321   0.780   9.967 -0.3485  0.2417  2.1906
  120OSM   H10T12683   0.231   0.639  10.038  0.0321  0.1987  1.3421
  120OSM   C11S12684   0.352   0.585   9.867  0.1962 -0.0307  0.2131
  120OSM   H11S12685   0.383   0.480   9.888  0.5479 -0.4894 -2.2252
  120OSM   H11T12686   0.437   0.621   9.804  0.3140  0.5135  0.6750
  120OSM   C12S12687   0.225   0.573   9.779  0.8202  0.5567 -0.5372
  120OSM   H12S12688   0.182   0.675   9.763 -0.7568 -0.2911 -2.0746
  120OSM   H12T12689   0.159   0.505   9.837  1.1393 -1.6426 -2.5982
  120OSM   C13S12690   0.252   0.521   9.644 -0.3084 -0.4075  0.6520
  120OSM   H13S12691   0.296   0.419   9.651 -1.2997 -0.8442  0.6817
  120OSM   H13T12692   0.333   0.571   9.587  0.6695 -3.5169 -0.9038
  120OSM   C14S12693   0.128   0.508   9.558 -0.3105 -0.8380  0.4066
  120OSM   H14S12694   0.085   0.609   9.570 -1.7124 -1.3050 -0.4204
  120OSM   H14T12695   0.052   0.432   9.588 -1.0996 -0.7175 -1.1763
  120OSM   C15S12696   0.161   0.481   9.409 -0.3198  0.2019 -0.4007
  120OSM   H15S12697   0.239   0.402   9.410  0.9220  1.3785  0.0753
  120OSM   H15T12698   0.214   0.569   9.366  1.6577 -0.4617  0.5290
  120OSM   C16S12699   0.034   0.438   9.328  0.3340  0.8187  0.4063
  120OSM   H16S12700  -0.033   0.525   9.310  0.2395  0.6502 -0.0595
  120OSM   H16T12701  -0.027   0.364   9.385  0.3206 -0.0350 -0.6849
  120OSM   C17S12702   0.077   0.402   9.181  0.5153 -0.0934 -0.0030
  120OSM   H17S12703   0.125   0.492   9.135  0.0922 -1.2286 -2.8761
  120OSM   H17T12704  -0.016   0.392   9.121  0.3207 -0.0319  0.2866
  120OSM   C18S12705   0.172   0.284   9.171  0.4099  0.2733 -0.0410
  120OSM   H18S12706   0.274   0.299   9.213  0.4819 -0.2496 -0.0193
  120OSM   H18T12707   0.188   0.261   9.064  0.6241 -0.2162  0.0930
  120OSM   H18U12708   0.121   0.197   9.219  1.7891 -0.9891 -0.7694
  120OSM    C1F12709   1.124   0.768  10.384  0.0728  0.1731 -0.1727
  120OSM     OF12710   1.156   0.647  10.391  0.4655 -0.2630 -0.7767
  120OSM    C2F12711   1.181   0.857  10.274 -0.0865 -0.0365  0.1190
  120OSM    H2F12712   1.291   0.858  10.291 -0.2874  1.0164  1.5759
  120OSM    H2G12713   1.143   0.962  10.269 -1.1382 -0.4529 -1.1643
  120OSM    C3F12714   1.150   0.793  10.136 -0.9496  0.5533  0.1984
  120OSM    H3F12715   1.042   0.769  10.145 -1.1221  0.5882 -1.5401
  120OSM    H3G12716   1.207   0.698  10.128 -2.4673 -0.5417  1.5318
  120OSM    C4F12717   1.162   0.892  10.016  0.2047 -0.9272  0.1651
  120OSM    H4F12718   1.267   0.928  10.007  1.0076 -2.5521  2.2531
  120OSM    H4G12719   1.094   0.977  10.039  1.4626 -0.4052  2.2799
  120OSM    C5F12720   1.109   0.837   9.888  0.3358  0.4885  0.5031
  120OSM    H5F12721   1.022   0.772   9.910 -0.8237  0.7609 -2.6845
  120OSM    H5G12722   1.193   0.778   9.846 -0.7318 -0.9460  0.3421
  120OSM    C6F12723   1.072   0.938   9.775 -0.0010  1.0995  0.0808
  120OSM    H6F12724   1.170   0.973   9.735 -0.9081  3.1418 -0.5055
  120OSM    H6G12725   1.010   1.024   9.809 -0.7368 -0.2762  2.4613
  120OSM    C7F12726   1.021   0.880   9.645 -0.3529  0.3316 -0.3419
  120OSM    H7F12727   0.921   0.833   9.661  0.1537 -0.9023 -0.6641
  120OSM    H7G12728   1.086   0.799   9.606  1.7001  2.0903 -0.7942
  120OSM    C8F12729   0.990   0.992   9.546 -0.0972  0.8802 -0.7482
  120OSM    H8F12730   1.086   1.033   9.506  0.8118  0.3053  0.7562
  120OSM    H8G12731   0.928   1.071   9.594 -0.5822 -1.2237  2.3620
  120OSM    C9F12732   0.926   0.929   9.425 -0.2534  0.6719 -0.3648
  120OSM    H9F12733   0.959   0.824   9.421 -2.4012 -0.1946  1.9604
  120OSM   C10F12734   0.849   0.990   9.335  0.1529  0.2906 -0.3886
  120OSM   H10F12735   0.809   0.937   9.247 -1.4220  2.0218 -0.7948
  120OSM   C11F12736   0.804   1.131   9.335 -0.7166  0.0957 -0.0387
  120OSM   H11F12737   0.881   1.189   9.391  1.5604 -2.0614 -0.7845
  120OSM   H11G12738   0.715   1.162   9.393 -0.4143 -2.2119  1.7961
  120OSM   C12F12739   0.797   1.194   9.195  0.0294 -0.1918  0.0002
  120OSM   H12F12740   0.889   1.180   9.135  0.5975  2.5790  0.0853
  120OSM   H12G12741   0.794   1.305   9.197  1.6473 -0.1113  2.7601
  120OSM   C13F12742   0.676   1.139   9.117  0.4806 -0.0627  0.1804
  120OSM   H13F12743   0.581   1.157   9.172 -0.4878 -0.8665 -1.1458
  120OSM   H13G12744   0.687   1.029   9.122  2.4829 -0.0307 -1.8217
  120OSM   C14F12745   0.682   1.186   8.971 -0.0050 -0.0415  0.6178
  120OSM   H14F12746   0.788   1.176   8.940  0.8731 -1.1720  3.6532
  120OSM   H14G12747   0.658   1.294   8.975  0.3516  0.2006 -1.9289
  120OSM   C15F12748   0.586   1.093   8.897 -0.5870 -0.0621  1.0938
  120OSM   H15F12749   0.488   1.117   8.943  1.0450  0.6768  4.4718
  120OSM   H15G12750   0.605   0.988   8.926  0.4709  0.5392  2.7245
  120OSM   C16F12751   0.578   1.101   8.744 -0.5267 -0.4801 -0.1029
  120OSM   H16F12752   0.679   1.110   8.699 -0.2607  0.1459  0.5898
  120OSM   H16G12753   0.510   1.183   8.713  0.5351  0.4138 -0.1243
  120OSM   C17F12754   0.511   0.980   8.678  0.8723 -0.1578 -1.1890
  120OSM   H17F12755   0.587   0.899   8.683 -0.4047 -1.3543 -0.0985
  120OSM   H17G12756   0.491   0.999   8.570 -1.5888  2.3752 -0.4052
  120OSM   C18F12757   0.387   0.920   8.760 -0.1446 -0.3726  0.0462
  120OSM   H18F12758   0.330   1.012   8.786  3.3218  2.1700 -0.5608
  120OSM   H18G12759   0.403   0.851   8.846  0.3897 -0.7300 -0.3341
  120OSM   H18H12760   0.336   0.853   8.687  0.5445 -0.3386 -0.4758
  121OSM      N12761   5.446   3.008  10.769  0.4462 -0.3899  0.2107
  121OSM    C1512762   5.562   3.014  10.868  0.4823  0.5372  0.1630
  121OSM   H15A12763   5.633   3.091  10.840 -0.5482  0.3588 -3.4080
  121OSM   H15B12764   5.621   2.925  10.880  1.9861  1.6447  1.4089
  121OSM   H15C12765   5.530   3.035  10.969 -1.6594 -2.7485  0.3375
  121OSM    C1412766   5.358   2.898  10.810  1.1948 -0.2393 -0.7250
  121OSM   H14A12767   5.278   2.876  10.740 -0.9008  0.2825  1.3703
  121OSM   H14B12768   5.299   2.904  10.901 -1.0452 -3.5312 -1.7659
  121OSM   H14C12769   5.416   2.808  10.821  3.3615  1.0235 -1.2912
  121OSM    C1312770   5.375   3.139  10.776 -0.0471 -0.0541  0.7720
  121OSM   H13A12771   5.432   3.221  10.736  0.4994  0.1832  1.9772
  121OSM   H13B12772   5.362   3.152  10.883  0.8369 -0.5984  0.9542
  121OSM   H13C12773   5.272   3.140  10.741  0.2997 -0.3236 -0.2835
  121OSM    C1212774   5.501   2.981  10.633 -0.0041  0.6313  0.6146
  121OSM   H12A12775   5.430   2.932  10.568  1.9608 -0.0990 -1.1012
  121OSM   H12B12776   5.573   2.904  10.657 -0.4922  0.9863  3.5837
  121OSM    C1112777   5.565   3.102  10.561 -0.3976 -0.5794 -0.2419
  121OSM   H11A12778   5.490   3.177  10.528  2.2002  2.1743 -0.4030
  121OSM   H11B12779   5.603   3.057  10.467  1.2618 -2.5673  1.2794
  121OSM      P12780   5.713   3.323  10.593  0.3247 -0.3096 -0.0015
  121OSM    O1312781   5.585   3.409  10.593 -0.2417 -0.3148  0.3039
  121OSM    O1412782   5.824   3.370  10.687  0.1433  0.0648 -0.6057
  121OSM    O1112783   5.768   3.319  10.442 -0.3192 -0.0025 -0.4657
  121OSM    O1212784   5.674   3.172  10.627 -0.1015  0.0268 -0.2198
  121OSM    C1S12785   5.882   3.234  10.405  1.0071 -0.2384  0.1294
  121OSM    H1S12786   5.859   3.128  10.429  0.8069 -0.3127 -0.3849
  121OSM    H1T12787   5.974   3.254  10.464  0.5210 -2.9411  1.9814
  121OSM     NF12788   6.009   3.169  10.205  0.2213 -0.0023  0.2707
  121OSM    HNF12789   6.098   3.210  10.182  0.0497 -0.3151 -1.0047
  121OSM    C2S12790   5.910   3.256  10.254 -0.1197 -0.2674 -0.4686
  121OSM    H2S12791   5.818   3.233  10.195 -1.2591  0.5126  0.9603
  121OSM    C3S12792   5.934   3.406  10.224 -0.3597  0.2881 -0.4558
  121OSM    H3S12793   6.024   3.437  10.281 -0.5573  0.8741 -0.4510
  121OSM     O312794   5.830   3.496  10.267  0.3796 -0.2953 -0.3091
  121OSM    HO312795   5.769   3.438  10.314  0.7244 -0.7026 -0.3569
  121OSM    C4S12796   5.952   3.426  10.075 -0.4297  0.2875 -0.6036
  121OSM    H4S12797   6.058   3.423  10.047 -0.4463  0.0451 -0.6402
  121OSM    C5S12798   5.849   3.428   9.985 -0.4967 -0.5399 -0.1611
  121OSM    H5S12799   5.744   3.418  10.017 -1.3225  3.5094 -1.0022
  121OSM    C6S12800   5.870   3.408   9.832  0.4262  0.4636  0.2658
  121OSM    H6S12801   5.783   3.357   9.785  1.5964  0.2065 -1.7255
  121OSM    H6T12802   5.956   3.344   9.806 -0.5128 -0.7231 -0.0294
  121OSM    C7S12803   5.879   3.543   9.758 -0.3554  0.6838  0.1381
  121OSM    H7S12804   5.973   3.582   9.802 -1.7721  1.5364  2.6167
  121OSM    H7T12805   5.804   3.622   9.781 -0.3847  0.6194  0.2683
  121OSM    C8S12806   5.911   3.526   9.608 -0.1907 -0.4079 -0.6795
  121OSM    H8S12807   5.959   3.427   9.592  0.5653  0.0220 -1.1594
  121OSM    H8T12808   5.994   3.598   9.591 -0.0528 -0.2033  0.7776
  121OSM    C9S12809   5.787   3.543   9.518  0.0616 -0.1002  0.0605
  121OSM    H9S12810   5.734   3.634   9.554  2.5414  1.5681 -0.3024
  121OSM    H9T12811   5.721   3.454   9.525 -2.6116  1.8497  1.3748
  121OSM   C10S12812   5.820   3.565   9.369  0.0306 -0.0887 -0.1024
  121OSM   H10S12813   5.882   3.479   9.336 -0.5403 -0.8719  0.8439
  121OSM   H10T12814   5.874   3.661   9.350  2.8986 -1.3103  1.2972
  121OSM   C11S12815   5.701   3.569   9.276  0.2007  0.3298 -0.0184
  121OSM   H11S12816   5.624   3.646   9.298  0.1796  0.6515 -1.1714
  121OSM   H11T12817   5.638   3.479   9.291 -0.8845  0.9525 -0.7088
  121OSM   C12S12818   5.735   3.608   9.132 -0.0727  0.0303  0.3045
  121OSM   H12S12819   5.794   3.529   9.081  1.1716  1.0389  0.1009
  121OSM   H12T12820   5.797   3.701   9.137  1.7582 -0.8972 -2.7535
  121OSM   C13S12821   5.605   3.633   9.053  0.1473  0.1304  0.1632
  121OSM   H13S12822   5.541   3.702   9.112  0.9596  0.7477  0.3423
  121OSM   H13T12823   5.554   3.535   9.058  0.3148  0.0390  0.0803
  121OSM   C14S12824   5.611   3.684   8.910 -0.4760 -0.2079  0.3215
  121OSM   H14S12825   5.608   3.794   8.894 -3.9806 -0.3028 -0.4237
  121OSM   H14T12826   5.517   3.651   8.861 -0.3695 -0.4216  0.2563
  121OSM   C15S12827   5.715   3.621   8.812  0.1590  0.3653  0.0431
  121OSM   H15S12828   5.818   3.628   8.852  0.5765 -0.2952 -0.8810
  121OSM   H15T12829   5.715   3.682   8.719 -1.2358 -2.6977 -2.1177
  121OSM   C16S12830   5.685   3.474   8.769 -0.2275 -0.7172  0.2846
  121OSM   H16S12831   5.575   3.457   8.766 -0.4707  0.8652 -1.2469
  121OSM   H16T12832   5.722   3.416   8.856 -0.8477 -3.2160 -1.0194
  121OSM   C17S12833   5.759   3.434   8.650  0.2063  0.1924 -0.3954
  121OSM   H17S12834   5.865   3.467   8.648  0.1288  0.4304 -0.6311
  121OSM   H17T12835   5.715   3.488   8.564 -0.8430  3.0478  1.7600
  121OSM   C18S12836   5.752   3.280   8.630  0.2150 -1.0751  0.1719
  121OSM   H18S12837   5.787   3.266   8.526  1.6518  0.6240  0.3798
  121OSM   H18T12838   5.653   3.234   8.649  0.3328 -1.6287 -0.5216
  121OSM   H18U12839   5.828   3.232   8.696  0.1667  0.2137  1.2152
  121OSM    C1F12840   6.013   3.039  10.217  0.5205 -0.3214  0.9246
  121OSM     OF12841   5.919   2.977  10.260 -0.3484 -0.0992  0.4545
  121OSM    C2F12842   6.137   2.963  10.182  0.0906 -0.2666  0.1097
  121OSM    H2F12843   6.189   2.926  10.273  1.9688 -0.8269 -1.1297
  121OSM    H2G12844   6.198   3.040  10.131 -2.9456  1.2924 -1.4640
  121OSM    C3F12845   6.092   2.841  10.101 -0.2695 -0.3265 -0.1929
  121OSM    H3F12846   6.036   2.870  10.009  1.0553  0.6374 -0.7156
  121OSM    H3G12847   6.026   2.777  10.164 -0.6074 -0.2605 -0.4711
  121OSM    C4F12848   6.217   2.760  10.057 -0.2310 -0.4054  0.6983
  121OSM    H4F12849   6.268   2.727  10.149 -1.5948 -1.7644  0.9996
  121OSM    H4G12850   6.290   2.830  10.011  1.4848 -0.9765  2.4224
  121OSM    C5F12851   6.188   2.638   9.969 -0.2796  0.1222  0.1213
  121OSM    H5F12852   6.117   2.588  10.039  0.5445 -1.1453  0.0914
  121OSM    H5G12853   6.285   2.586   9.953 -0.1356  0.2855  0.4602
  121OSM    C6F12854   6.129   2.666   9.828  0.1033  0.4786  0.5414
  121OSM    H6F12855   6.174   2.762   9.795 -1.6632  0.9957 -0.4899
  121OSM    H6G12856   6.019   2.678   9.836 -0.1574 -1.0515 -0.2768
  121OSM    C7F12857   6.138   2.555   9.721  0.3737 -0.0568 -0.1652
  121OSM    H7F12858   6.083   2.471   9.770  0.0169 -0.2043 -0.8116
  121OSM    H7G12859   6.244   2.524   9.711 -0.3494 -2.6642 -0.6186
  121OSM    C8F12860   6.065   2.574   9.586 -0.3379 -0.1148  0.4899
  121OSM    H8F12861   5.958   2.598   9.605 -1.1817 -1.6579 -1.9207
  121OSM    H8G12862   6.064   2.472   9.542  1.6028 -0.5211  1.2765
  121OSM    C9F12863   6.149   2.666   9.501 -0.1991 -0.5453  0.3809
  121OSM    H9F12864   6.231   2.718   9.552 -0.4631  0.0424  0.2105
  121OSM   C10F12865   6.165   2.664   9.366 -0.5998  0.6861 -0.6147
  121OSM   H10F12866   6.250   2.718   9.320  1.0235  1.4845  2.9996
  121OSM   C11F12867   6.089   2.597   9.264  0.3229  0.1083  0.2939
  121OSM   H11F12868   5.981   2.593   9.292  0.2002  0.3861 -0.1300
  121OSM   H11G12869   6.121   2.491   9.267  0.3641  0.1316  0.8384
  121OSM   C12F12870   6.089   2.646   9.121  0.2049 -0.0765  0.0523
  121OSM   H12F12871   6.064   2.565   9.049  1.8598 -0.0671 -0.5782
  121OSM   H12G12872   6.194   2.677   9.102  0.7265 -0.3205  2.2857
  121OSM   C13F12873   6.000   2.770   9.098  0.6468  0.3014 -0.0420
  121OSM   H13F12874   6.032   2.847   9.172 -1.9078  1.9948 -0.5795
  121OSM   H13G12875   5.898   2.751   9.136 -0.3270  1.1272 -2.1097
  121OSM   C14F12876   5.999   2.818   8.949  0.3496  0.3780 -0.0268
  121OSM   H14F12877   5.952   2.918   8.940  0.2788  0.3889  0.4531
  121OSM   H14G12878   5.961   2.738   8.881  2.4261 -1.5304  0.9337
  121OSM   C15F12879   6.138   2.852   8.889 -0.1056 -0.5910  0.0781
  121OSM   H15F12880   6.200   2.761   8.903 -0.4937 -1.0995 -1.3861
  121OSM   H15G12881   6.172   2.935   8.954  0.0658 -0.0661 -0.6785
  121OSM   C16F12882   6.128   2.923   8.752  0.0960 -0.4577  0.3845
  121OSM   H16F12883   6.218   2.982   8.723  0.7520 -1.5513  0.1482
  121OSM   H16G12884   6.035   2.983   8.759  0.0818 -0.4848  0.4225
  121OSM   C17F12885   6.111   2.831   8.631 -0.0580  0.9357 -0.1522
  121OSM   H17F12886   6.070   2.733   8.663  1.0349  0.5311  0.0742
  121OSM   H17G12887   6.213   2.809   8.592 -0.1087  1.3214 -0.5102
  121OSM   C18F12888   6.025   2.888   8.517  0.7584 -0.6852  0.5546
  121OSM   H18F12889   6.075   2.979   8.479 -1.5295  0.4244  0.0092
  121OSM   H18G12890   5.916   2.899   8.535  0.5967 -0.4722 -0.4676
  121OSM   H18H12891   6.026   2.816   8.432  1.0822 -1.4567  1.1983
  122OSM      N12892   1.341   2.150  10.741 -0.8132 -0.2211  0.0575
  122OSM    C1512893   1.339   2.234  10.862  0.0510 -0.3859  0.0102
  122OSM   H15A12894   1.251   2.211  10.921 -0.8880 -0.3575 -1.3547
  122OSM   H15B12895   1.353   2.338  10.838 -0.0788 -0.5485 -0.7950
  122OSM   H15C12896   1.425   2.215  10.926  1.4865 -0.5397 -1.8919
  122OSM    C1412897   1.241   2.192  10.640  0.6378 -0.0122 -0.1938
  122OSM   H14A12898   1.262   2.293  10.610 -1.1020  0.4156 -0.0281
  122OSM   H14B12899   1.140   2.178  10.675  0.2486 -0.3377 -1.4003
  122OSM   H14C12900   1.257   2.123  10.558  1.9795  1.5210 -1.2713
  122OSM    C1312901   1.477   2.164  10.670  0.7701 -0.5059  0.3535
  122OSM   H13A12902   1.556   2.123  10.731  0.8925  0.7326  1.0719
  122OSM   H13B12903   1.505   2.263  10.638  2.1684 -2.2797 -4.8772
  122OSM   H13C12904   1.475   2.104  10.580  1.3338  0.5036 -0.3519
  122OSM    C1212905   1.314   2.000  10.787  0.1433 -0.7175  0.2649
  122OSM   H12A12906   1.213   1.993  10.826 -1.0899 -0.8437 -2.6735
  122OSM   H12B12907   1.387   1.995  10.866 -1.4070 -0.6625  1.7544
  122OSM    C1112908   1.341   1.889  10.684 -0.6302  0.4419 -0.7243
  122OSM   H11A12909   1.450   1.896  10.663 -0.1826 -2.3936  0.2578
  122OSM   H11B12910   1.285   1.906  10.590 -1.6027  1.4142  0.0004
  122OSM      P12911   1.160   1.712  10.750  0.0888  0.1285 -0.1605
  122OSM    O1312912   1.157   1.599  10.854  0.3578 -0.1435  0.4200
  122OSM    O1412913   1.069   1.827  10.769 -0.0226 -0.2076 -0.7137
  122OSM    O1112914   1.131   1.653  10.614  0.1029 -0.1902  0.4547
  122OSM    O1212915   1.307   1.765  10.743  0.4898  0.6292  0.0422
  122OSM    C1S12916   1.229   1.577  10.543 -0.6238 -0.1338  0.3194
  122OSM    H1S12917   1.250   1.476  10.585  0.6700  0.5256  1.3360
  122OSM    H1T12918   1.327   1.629  10.547 -0.5735 -0.2670  0.8881
  122OSM     NF12919   1.289   1.479  10.337  0.4049  0.0887  0.2573
  122OSM    HNF12920   1.360   1.508  10.274 -1.9049  2.7475 -1.3146
  122OSM    C2S12921   1.193   1.573  10.393 -0.8402  0.6940  0.9379
  122OSM    H2S12922   1.088   1.537  10.382 -0.9025  1.3364 -0.9925
  122OSM    C3S12923   1.199   1.723  10.338  0.7091 -0.3651  0.1590
  122OSM    H3S12924   1.299   1.760  10.369  1.3977 -2.5004  0.6660
  122OSM     O312925   1.113   1.817  10.403 -0.3791 -0.0246 -0.4540
  122OSM    HO312926   1.087   1.771  10.483 -1.1612  0.5483 -0.3695
  122OSM    C4S12927   1.198   1.738  10.192  0.2477 -0.1591 -0.4056
  122OSM    H4S12928   1.296   1.734  10.142  0.0061 -0.0277 -0.8958
  122OSM    C5S12929   1.094   1.767  10.112  1.3366 -0.7910  0.0079
  122OSM    H5S12930   0.992   1.771  10.152  2.0310 -0.1468  1.8287
  122OSM    C6S12931   1.102   1.789   9.960 -0.3014 -0.3556  0.4036
  122OSM    H6S12932   1.086   1.897   9.941  1.9749  0.1171  0.8151
  122OSM    H6T12933   1.027   1.731   9.902  2.3295 -0.5778 -3.1341
  122OSM    C7S12934   1.244   1.747   9.911 -0.7030  0.6792 -0.2268
  122OSM    H7S12935   1.274   1.647   9.949 -0.4314  0.5562 -0.7540
  122OSM    H7T12936   1.323   1.820   9.938 -1.4794  0.7652  1.9523
  122OSM    C8S12937   1.279   1.744   9.762  0.7112 -0.1208 -0.1701
  122OSM    H8S12938   1.255   1.648   9.711 -2.6957  0.9750 -0.8534
  122OSM    H8T12939   1.388   1.765   9.753  1.1026 -2.0319 -0.4480
  122OSM    C9S12940   1.195   1.852   9.693  0.5982  0.1746 -0.2617
  122OSM    H9S12941   1.241   1.951   9.715  0.5253  0.7240 -2.3475
  122OSM    H9T12942   1.091   1.847   9.731  1.1849 -0.3711  1.3302
  122OSM   C10S12943   1.172   1.836   9.539  0.1111  0.1460  0.1534
  122OSM   H10S12944   1.118   1.743   9.513  0.9898 -0.8592  1.6933
  122OSM   H10T12945   1.274   1.824   9.497 -0.0239  1.1700 -0.5242
  122OSM   C11S12946   1.089   1.954   9.482 -0.0717  0.3860 -0.0767
  122OSM   H11S12947   1.139   2.052   9.496 -1.3504  1.0595 -0.0801
  122OSM   H11T12948   0.993   1.954   9.537 -0.1351 -1.2376 -0.1478
  122OSM   C12S12949   1.049   1.935   9.334 -0.0777 -0.1383  0.0781
  122OSM   H12S12950   0.960   2.000   9.317  1.3607  1.5630 -1.2216
  122OSM   H12T12951   1.018   1.830   9.311 -3.1926  1.2684 -3.2639
  122OSM   C13S12952   1.149   1.991   9.234 -0.1287 -0.1343 -0.3686
  122OSM   H13S12953   1.254   1.962   9.254 -0.1356  0.1462  0.0811
  122OSM   H13T12954   1.154   2.100   9.254  0.5847 -0.1183 -0.6200
  122OSM   C14S12955   1.123   1.978   9.089 -0.2945 -0.4687 -0.0050
  122OSM   H14S12956   1.185   2.045   9.025 -0.5453  1.6624  1.8829
  122OSM   H14T12957   1.017   2.010   9.085  0.0622  0.9403  1.2087
  122OSM   C15S12958   1.132   1.831   9.039  0.0018  0.2472  0.1449
  122OSM   H15S12959   1.071   1.753   9.090  0.6025  0.9750  2.0607
  122OSM   H15T12960   1.236   1.798   9.054 -0.1028 -1.2107 -1.9094
  122OSM   C16S12961   1.113   1.819   8.885  0.1669 -0.6067 -0.4006
  122OSM   H16S12962   1.158   1.727   8.844  0.0696  0.4044 -2.9342
  122OSM   H16T12963   1.151   1.904   8.824  0.3724  0.5179  1.1997
  122OSM   C17S12964   0.964   1.794   8.851  0.0812 -0.5404  0.9198
  122OSM   H17S12965   0.900   1.868   8.903 -1.8645 -1.3525 -0.2017
  122OSM   H17T12966   0.932   1.703   8.907 -2.9181 -0.1266  0.0815
  122OSM   C18S12967   0.934   1.798   8.707 -0.4778  0.7879  0.3193
  122OSM   H18S12968   0.948   1.895   8.654  0.6517  1.5520  1.9614
  122OSM   H18T12969   0.824   1.783   8.718 -0.2243 -1.9500 -0.1515
  122OSM   H18U12970   0.982   1.717   8.648 -2.8420 -1.0992  0.7995
  122OSM    C1F12971   1.277   1.353  10.357  0.2000  0.3012 -0.2542
  122OSM     OF12972   1.189   1.305  10.428 -0.4595 -0.0432  0.6272
  122OSM    C2F12973   1.380   1.266  10.290  0.6394  0.0551 -0.4825
  122OSM    H2F12974   1.399   1.176  10.351 -1.7176 -0.4664 -0.3965
  122OSM    H2G12975   1.467   1.331  10.267  0.2356  0.8464  0.1555
  122OSM    C3F12976   1.331   1.206  10.157  0.0295 -0.4275  0.4892
  122OSM    H3F12977   1.236   1.151  10.171 -0.4599 -0.3244 -1.9231
  122OSM    H3G12978   1.396   1.127  10.114 -0.5390 -0.5505 -0.1576
  122OSM    C4F12979   1.306   1.310  10.047  0.4765  0.1113  0.9158
  122OSM    H4F12980   1.400   1.363  10.020  0.3504  1.3759  2.7524
  122OSM    H4G12981   1.238   1.384  10.093 -1.1941 -0.4332 -0.5624
  122OSM    C5F12982   1.230   1.251   9.926 -0.0398 -0.4476  0.3425
  122OSM    H5F12983   1.134   1.210   9.965 -0.1715 -0.1303  0.3531
  122OSM    H5G12984   1.283   1.160   9.891  0.1606 -1.2855  2.6969
  122OSM    C6F12985   1.200   1.350   9.821 -0.8228 -0.0123  0.4276
  122OSM    H6F12986   1.294   1.355   9.762 -2.7083  2.4192 -2.6849
  122OSM    H6G12987   1.184   1.456   9.849  2.1386  0.6398 -0.0756
  122OSM    C7F12988   1.096   1.304   9.718 -0.0707 -0.0978  0.0253
  122OSM    H7F12989   0.999   1.284   9.769 -0.4712 -0.1795 -0.7415
  122OSM    H7G12990   1.115   1.212   9.659  0.9836  0.0548  0.1165
  122OSM    C8F12991   1.091   1.398   9.589  0.0606  0.3146 -0.8412
  122OSM    H8F12992   1.065   1.503   9.615 -4.1734 -0.8491  0.3188
  122OSM    H8G12993   1.014   1.354   9.523  0.0595  0.7625 -1.1400
  122OSM    C9F12994   1.229   1.414   9.524  0.5557  0.4832 -0.4309
  122OSM    H9F12995   1.296   1.488   9.571  0.3559 -0.0610  0.7445
  122OSM   C10F12996   1.271   1.350   9.412 -0.2993  0.2770  0.2862
  122OSM   H10F12997   1.364   1.381   9.361  0.0491 -2.5336 -0.9987
  122OSM   C11F12998   1.179   1.254   9.332 -0.1851 -0.0884 -0.1235
  122OSM   H11F12999   1.096   1.221   9.397  0.3311 -2.1666 -0.4596
  122OSM   H11G13000   1.227   1.157   9.305 -1.5913 -0.5224 -1.1855
  122OSM   C12F13001   1.115   1.316   9.207  0.4088  0.3666  0.0852
  122OSM   H12F13002   1.020   1.357   9.245 -0.1639 -2.1126  1.5685
  122OSM   H12G13003   1.090   1.226   9.147 -1.6911 -0.2931  1.8123
  122OSM   C13F13004   1.192   1.411   9.120  0.6113  0.5645  0.2305
  122OSM   H13F13005   1.289   1.365   9.093  0.2000  0.0067 -0.3573
  122OSM   H13G13006   1.207   1.505   9.177 -0.6394  0.7881  0.2342
  122OSM   C14F13007   1.125   1.451   8.985 -0.0179  0.6757  0.0632
  122OSM   H14F13008   1.200   1.506   8.925  1.1363 -1.4104 -0.4907
  122OSM   H14G13009   1.035   1.513   9.008 -0.4121  0.7325 -1.5732
  122OSM   C15F13010   1.086   1.331   8.901  0.3487  0.0273 -0.0730
  122OSM   H15F13011   1.014   1.269   8.959 -1.4993  2.2374  0.1415
  122OSM   H15G13012   1.175   1.268   8.879  1.3846  0.3958  2.6710
  122OSM   C16F13013   1.014   1.378   8.768 -0.0048  0.6219 -0.1975
  122OSM   H16F13014   1.098   1.408   8.701  1.0617 -0.0185  0.8095
  122OSM   H16G13015   0.946   1.461   8.796  0.1076  0.1511  1.5447
  122OSM   C17F13016   0.931   1.266   8.702 -0.0191 -0.0350 -0.2370
  122OSM   H17F13017   0.881   1.200   8.776 -0.5850 -1.1941 -1.6042
  122OSM   H17G13018   1.004   1.193   8.659 -0.6460 -0.6601 -0.2604
  122OSM   C18F13019   0.825   1.317   8.604  0.2344 -0.0845  0.6660
  122OSM   H18F13020   0.757   1.379   8.666  0.5525  1.7509 -0.7270
  122OSM   H18G13021   0.764   1.239   8.554 -1.0834  1.4638 -0.2166
  122OSM   H18H13022   0.880   1.374   8.527  0.5536 -0.5520  0.5440
  123OSM      N13023   4.434   1.386   6.363 -0.1697  0.2506  1.2113
  123OSM    C1513024   4.353   1.297   6.279 -0.2195  0.2843  0.2456
  123OSM   H15A13025   4.359   1.318   6.174  0.0815  0.5052  0.3060
  123OSM   H15B13026   4.250   1.281   6.307 -0.4631  2.3021  0.6218
  123OSM   H15C13027   4.394   1.198   6.298  2.1174  1.4399  1.6623
  123OSM    C1413028   4.386   1.526   6.344 -0.2670  0.9530  0.8747
  123OSM   H14A13029   4.419   1.584   6.429  0.7411  0.1610  1.0459
  123OSM   H14B13030   4.278   1.528   6.337 -0.2836 -0.6740 -0.0406
  123OSM   H14C13031   4.430   1.561   6.252  1.3118 -1.7976  0.4732
  123OSM    C1313032   4.408   1.342   6.502 -0.2281 -1.1519 -0.4225
  123OSM   H13A13033   4.301   1.347   6.516 -0.3083  0.4608 -1.3952
  123OSM   H13B13034   4.444   1.424   6.564  0.8913 -1.8442 -0.1251
  123OSM   H13C13035   4.456   1.249   6.530  0.1184 -0.9915 -0.4700
  123OSM    C1213036   4.584   1.389   6.326 -0.1957  0.6305 -0.1409
  123OSM   H12A13037   4.606   1.440   6.233  1.5850  1.9896  0.9760
  123OSM   H12B13038   4.616   1.286   6.336 -1.3196  0.2660 -0.1432
  123OSM    C1113039   4.675   1.477   6.415  0.4174  0.4091 -0.4526
  123OSM   H11A13040   4.777   1.433   6.420  0.4665  0.5331 -0.3663
  123OSM   H11B13041   4.642   1.478   6.521  0.5006 -0.1669 -0.4191
  123OSM      P13042   4.785   1.651   6.262  0.4602 -0.3371 -0.3700
  123OSM    O1313043   4.817   1.533   6.182 -0.1220  0.2186 -0.1156
  123OSM    O1413044   4.733   1.773   6.191  0.1014 -0.2602  0.0405
  123OSM    O1113045   4.892   1.684   6.357 -0.2423  0.1588 -0.0590
  123OSM    O1213046   4.672   1.603   6.356 -0.0062 -0.3172  0.3753
  123OSM    C1S13047   4.888   1.791   6.458  0.0238  0.1304 -0.0467
  123OSM    H1S13048   4.804   1.861   6.441 -0.1659  0.2047  1.1150
  123OSM    H1T13049   4.986   1.843   6.466  0.8686 -1.3189 -0.4640
  123OSM     NF13050   4.819   1.844   6.690  0.4408  0.4657  0.0568
  123OSM    HNF13051   4.886   1.870   6.760  2.0121  1.7663 -1.8346
  123OSM    C2S13052   4.857   1.729   6.605  0.2215  0.3644  0.5982
  123OSM    H2S13053   4.772   1.660   6.583  1.6185 -0.9432 -1.0209
  123OSM    C3S13054   4.978   1.652   6.650  0.1596 -0.6326  0.2191
  123OSM    H3S13055   5.053   1.727   6.685 -1.6630  1.3358  0.0992
  123OSM     O313056   5.044   1.571   6.552  0.1719  0.2516 -0.2072
  123OSM    HO313057   4.996   1.601   6.475  0.5838 -0.7109 -0.8470
  123OSM    C4S13058   4.936   1.566   6.775 -0.0559 -0.0277  0.0578
  123OSM    H4S13059   4.935   1.613   6.874 -2.2546 -0.8146  0.4497
  123OSM    C5S13060   4.866   1.447   6.766 -0.2531 -0.3144 -0.7846
  123OSM    H5S13061   4.846   1.417   6.662 -1.3497 -1.3839 -0.2914
  123OSM    C6S13062   4.797   1.360   6.867  0.1204 -0.2786 -0.7412
  123OSM    H6S13063   4.828   1.254   6.863 -1.9294 -0.9329 -0.3930
  123OSM    H6T13064   4.689   1.367   6.838  0.2313  0.4131 -1.0159
  123OSM    C7S13065   4.831   1.394   7.016  0.6858 -0.2224  0.4624
  123OSM    H7S13066   4.800   1.499   7.039  0.8247  0.2245 -1.2840
  123OSM    H7T13067   4.941   1.402   7.035  0.7954 -0.5685 -0.0206
  123OSM    C8S13068   4.778   1.284   7.103  0.4653  0.4341  0.3859
  123OSM    H8S13069   4.825   1.183   7.095  0.0608 -0.2254  4.3432
  123OSM    H8T13070   4.668   1.273   7.088  0.8299 -2.6808 -0.8170
  123OSM    C9S13071   4.803   1.311   7.249  0.4954 -0.3485  0.3483
  123OSM    H9S13072   4.756   1.403   7.291  2.3902  1.2720 -0.8858
  123OSM    H9T13073   4.910   1.332   7.269  0.1733  0.3092  1.4214
  123OSM   C10S13074   4.764   1.197   7.338  0.6554  0.0715  0.3984
  123OSM   H10S13075   4.796   1.106   7.285  2.8456  0.9993 -0.0005
  123OSM   H10T13076   4.654   1.199   7.353  0.4784 -1.4432 -0.5646
  123OSM   C11S13077   4.838   1.186   7.476 -0.1173  0.6727 -0.4101
  123OSM   H11S13078   4.824   1.275   7.540  3.1055  1.1417 -0.2297
  123OSM   H11T13079   4.946   1.169   7.455 -0.2119  2.0891 -2.2449
  123OSM   C12S13080   4.781   1.068   7.554 -0.3786 -0.5702  0.0253
  123OSM   H12S13081   4.799   0.977   7.494 -1.7399  0.4628 -2.0418
  123OSM   H12T13082   4.671   1.072   7.562 -0.3444  1.9421  0.2728
  123OSM   C13S13083   4.830   1.047   7.695 -0.1551  0.4351  0.1127
  123OSM   H13S13084   4.935   1.013   7.701  0.4337  2.1801  0.2080
  123OSM   H13T13085   4.772   0.963   7.739  0.5961 -0.1993 -0.0918
  123OSM   C14S13086   4.813   1.175   7.789  0.7276  0.4958  0.1060
  123OSM   H14S13087   4.860   1.264   7.742 -0.4456  1.1521  0.1353
  123OSM   H14T13088   4.852   1.167   7.893 -0.2941 -0.0166  0.4650
  123OSM   C15S13089   4.660   1.217   7.801  0.1531 -0.1376 -0.1691
  123OSM   H15S13090   4.600   1.195   7.710 -1.3701  0.0698  0.7484
  123OSM   H15T13091   4.677   1.327   7.797 -1.9451  0.3323  1.6375
  123OSM   C16S13092   4.590   1.169   7.927 -0.4872 -0.1560  0.0547
  123OSM   H16S13093   4.484   1.199   7.924  0.3765  3.4523  0.9652
  123OSM   H16T13094   4.632   1.223   8.014 -0.0492  0.5542 -0.5813
  123OSM   C17S13095   4.601   1.024   7.955 -0.1602  0.2614  0.3489
  123OSM   H17S13096   4.708   0.995   7.965 -0.6713 -2.2649 -0.7761
  123OSM   H17T13097   4.567   0.971   7.863 -0.9384  1.0678  0.1584
  123OSM   C18S13098   4.508   0.991   8.072 -0.6297  1.1800  0.3339
  123OSM   H18S13099   4.402   1.002   8.042 -0.4529 -0.6552 -1.0928
  123OSM   H18T13100   4.529   1.058   8.159  2.3835 -0.0769  0.7197
  123OSM   H18U13101   4.524   0.889   8.114  0.1234  1.3232  0.4268
  123OSM    C1F13102   4.703   1.910   6.684  0.1767 -0.1179  0.2425
  123OSM     OF13103   4.618   1.863   6.608  0.3550  0.8300  0.2438
  123OSM    C2F13104   4.681   2.033   6.770  0.1133  0.7317  0.0989
  123OSM    H2F13105   4.673   2.112   6.692 -0.4401 -0.7016 -1.3536
  123OSM    H2G13106   4.769   2.062   6.831 -1.3536  0.8829  2.2286
  123OSM    C3F13107   4.560   2.035   6.858 -0.4320  0.1244 -0.0448
  123OSM    H3F13108   4.582   1.970   6.945 -2.2495  0.0196  0.3698
  123OSM    H3G13109   4.474   1.994   6.800 -0.6031  1.1368 -0.5391
  123OSM    C4F13110   4.512   2.173   6.906  0.2979 -0.3369  0.3839
  123OSM    H4F13111   4.414   2.163   6.958  0.6895  1.3732  1.5006
  123OSM    H4G13112   4.490   2.229   6.812 -2.5902 -1.2200  0.4280
  123OSM    C5F13113   4.601   2.255   7.001 -0.0745  0.1367 -0.2890
  123OSM    H5F13114   4.571   2.358   7.029 -0.5347 -0.0873  0.0648
  123OSM    H5G13115   4.697   2.266   6.946 -0.5058  3.1251 -0.5976
  123OSM    C6F13116   4.621   2.185   7.139  0.1937 -0.4901 -0.3514
  123OSM    H6F13117   4.705   2.230   7.197  1.7773 -1.8010 -1.5381
  123OSM    H6G13118   4.641   2.077   7.122  0.1281 -0.6344  0.4234
  123OSM    C7F13119   4.493   2.193   7.223  0.6992  0.0905 -0.9226
  123OSM    H7F13120   4.421   2.119   7.184  1.4568  0.2985 -2.8494
  123OSM    H7G13121   4.452   2.291   7.191  2.7876  1.7328  1.0698
  123OSM    C8F13122   4.496   2.185   7.378  0.6502 -0.5334 -0.7950
  123OSM    H8F13123   4.393   2.195   7.419  0.8975  1.4485 -0.5663
  123OSM    H8G13124   4.562   2.270   7.404  2.7523 -1.2290 -3.4252
  123OSM    C9F13125   4.568   2.066   7.438 -0.5100  0.1379 -0.1450
  123OSM    H9F13126   4.632   2.007   7.371  1.1265 -0.4082  1.7964
  123OSM   C10F13127   4.557   2.037   7.563  0.6300  0.2260 -0.1195
  123OSM   H10F13128   4.604   1.945   7.602  0.4725  1.1395  2.4156
  123OSM   C11F13129   4.489   2.104   7.682 -0.7287  0.2899  0.5351
  123OSM   H11F13130   4.411   2.177   7.652 -0.6536 -0.7971 -2.7324
  123OSM   H11G13131   4.565   2.148   7.750 -2.7130 -0.5371  3.4294
  123OSM   C12F13132   4.411   1.991   7.760 -0.1782  0.2356 -0.7374
  123OSM   H12F13133   4.471   1.899   7.774 -0.3770  0.1906 -0.1456
  123OSM   H12G13134   4.316   1.969   7.706  0.1744 -1.2382 -0.8023
  123OSM   C13F13135   4.368   2.030   7.913  0.8307  0.0766 -0.7901
  123OSM   H13F13136   4.315   2.127   7.904  0.4838  0.1170  1.3184
  123OSM   H13G13137   4.457   2.040   7.978 -0.1853  0.8376  0.5245
  123OSM   C14F13138   4.278   1.927   7.975 -0.3402  0.4984 -0.1040
  123OSM   H14F13139   4.194   1.917   7.902 -0.8135  0.6981  0.4108
  123OSM   H14G13140   4.225   1.956   8.068 -1.7285 -0.9034 -0.3877
  123OSM   C15F13141   4.335   1.786   8.003  0.2206  0.3557  0.6521
  123OSM   H15F13142   4.377   1.757   7.904  1.8411  2.6638  0.5648
  123OSM   H15G13143   4.254   1.713   8.022  1.5003 -1.8715 -1.7561
  123OSM   C16F13144   4.437   1.786   8.110 -0.8781  0.5807  0.5484
  123OSM   H16F13145   4.527   1.846   8.088  0.5996 -1.3821  0.9519
  123OSM   H16G13146   4.479   1.683   8.103 -3.1048 -0.3198 -0.5840
  123OSM   C17F13147   4.388   1.817   8.250  0.4526  0.2708  0.0730
  123OSM   H17F13148   4.296   1.758   8.270  1.0030  0.0735  2.2877
  123OSM   H17G13149   4.355   1.923   8.258  0.4916  0.2126  1.2063
  123OSM   C18F13150   4.489   1.783   8.357 -0.8561  0.1263 -0.0146
  123OSM   H18F13151   4.457   1.814   8.458 -0.3988 -0.2001  0.2331
  123OSM   H18G13152   4.584   1.837   8.338  0.0269 -0.8433  1.4567
  123OSM   H18H13153   4.528   1.679   8.348 -1.8046 -0.3522  1.1790
  124OSM      N13154   0.042   5.830   5.845  0.0994  0.4331  0.3055
  124OSM    C1513155  -0.042   5.920   5.919 -1.0352  0.4517  0.4724
  124OSM   H15A13156   0.004   6.013   5.950 -0.0852 -0.0042  0.4793
  124OSM   H15B13157  -0.066   5.878   6.016  0.4854 -2.3246 -0.2653
  124OSM   H15C13158  -0.129   5.938   5.858 -0.4466 -1.3129 -0.9786
  124OSM    C1413159  -0.021   5.696   5.815  0.0943 -0.1091 -0.0349
  124OSM   H14A13160  -0.018   5.640   5.907  1.7760  0.3355  0.2144
  124OSM   H14B13161   0.039   5.635   5.750  1.6423  0.6536  0.6164
  124OSM   H14C13162  -0.125   5.694   5.788 -0.0925  1.4633  0.4545
  124OSM    C1313163   0.060   5.886   5.708  0.3603 -0.0470 -0.6316
  124OSM   H13A13164  -0.039   5.907   5.670 -0.0666  1.7588  1.3032
  124OSM   H13B13165   0.103   5.818   5.636  0.8776  1.1315 -1.4562
  124OSM   H13C13166   0.113   5.980   5.708  1.4040 -0.6080 -2.1214
  124OSM    C1213167   0.173   5.810   5.915 -0.6577  0.0008 -0.3201
  124OSM   H12A13168   0.225   5.905   5.919  1.5022 -1.1807  1.2178
  124OSM   H12B13169   0.244   5.744   5.867 -1.4408 -0.8515 -0.3303
  124OSM    C1113170   0.161   5.764   6.064  0.0979  0.4985  0.1955
  124OSM   H11A13171   0.100   5.836   6.123 -0.9274  1.3670 -1.8296
  124OSM   H11B13172   0.262   5.773   6.110 -0.0188  2.4461  0.1796
  124OSM      P13173   0.173   5.501   6.064 -0.3636 -0.0107  0.3382
  124OSM    O1313174   0.091   5.382   6.078  0.0155 -0.1398 -0.4604
  124OSM    O1413175   0.256   5.514   5.940 -0.6742  0.0809 -0.5439
  124OSM    O1113176   0.278   5.507   6.184 -0.1772  0.3186 -0.2767
  124OSM    O1213177   0.098   5.635   6.080 -0.3889  0.4329 -0.3875
  124OSM    C1S13178   0.240   5.540   6.317  0.7436  0.2932  0.7180
  124OSM    H1S13179   0.165   5.621   6.326 -0.6593 -0.7266 -1.2833
  124OSM    H1T13180   0.333   5.583   6.362  1.5305 -0.7839  0.1606
  124OSM     NF13181   0.191   5.455   6.540  0.5328  0.2521 -0.3810
  124OSM    HNF13182   0.271   5.462   6.598  2.0423 -0.0765 -2.3261
  124OSM    C2S13183   0.215   5.411   6.399 -0.4787 -0.4518 -0.1137
  124OSM    H2S13184   0.127   5.354   6.361 -1.0934  1.0576 -1.0607
  124OSM    C3S13185   0.332   5.316   6.394 -0.1467  0.4519  0.3987
  124OSM    H3S13186   0.429   5.367   6.411  1.2363 -0.2342 -4.1444
  124OSM     O313187   0.349   5.257   6.260 -0.5055  0.2261  0.4901
  124OSM    HO313188   0.328   5.332   6.205 -2.1392 -0.4952  0.0648
  124OSM    C4S13189   0.327   5.198   6.492  0.2267  0.8322 -0.3930
  124OSM    H4S13190   0.396   5.211   6.577  0.1142 -2.9128  0.4430
  124OSM    C5S13191   0.250   5.086   6.487  0.5149  0.1999  0.6914
  124OSM    H5S13192   0.184   5.065   6.402  3.0809  0.8809 -1.6369
  124OSM    C6S13193   0.257   4.976   6.589  0.2926 -0.7129  0.1463
  124OSM    H6S13194   0.325   4.892   6.567 -0.8411 -1.5058 -0.4376
  124OSM    H6T13195   0.159   4.924   6.588  0.0693 -0.3122 -0.8453
  124OSM    C7S13196   0.296   5.027   6.735 -0.4415 -0.1324 -0.0132
  124OSM    H7S13197   0.244   5.121   6.762 -0.9971 -0.8795  1.6265
  124OSM    H7T13198   0.402   5.060   6.723 -0.2685 -0.4050  0.7472
  124OSM    C8S13199   0.283   4.913   6.840 -0.0150 -0.5408  0.2202
  124OSM    H8S13200   0.358   4.832   6.829  0.5891 -0.0845  0.8837
  124OSM    H8T13201   0.189   4.855   6.827  0.9796 -1.7691 -2.1182
  124OSM    C9S13202   0.293   4.970   6.988 -0.0435 -0.5020 -0.6310
  124OSM    H9S13203   0.193   5.013   7.013  1.0581  2.3861 -0.7442
  124OSM    H9T13204   0.372   5.046   7.007 -0.2280 -0.6965  1.0123
  124OSM   C10S13205   0.331   4.868   7.090 -0.8335  0.7427 -0.0565
  124OSM   H10S13206   0.410   4.799   7.056 -1.9586  0.0149 -1.2501
  124OSM   H10T13207   0.249   4.803   7.127 -0.4292 -0.0532 -0.5447
  124OSM   C11S13208   0.383   4.941   7.223  0.3326 -0.4272  0.1783
  124OSM   H11S13209   0.318   5.029   7.243 -0.0174 -0.2862 -1.4355
  124OSM   H11T13210   0.488   4.973   7.208  0.3500 -0.0181  1.1301
  124OSM   C12S13211   0.389   4.869   7.354  0.4099  0.3888  0.1034
  124OSM   H12S13212   0.419   4.763   7.344  0.6892  0.4388  0.4028
  124OSM   H12T13213   0.286   4.854   7.392  0.4595  0.3345  0.2161
  124OSM   C13S13214   0.466   4.935   7.466  0.1899  0.1711 -0.6547
  124OSM   H13S13215   0.448   5.044   7.468  0.3465  0.2307  2.6023
  124OSM   H13T13216   0.575   4.914   7.455  0.6455  1.9858 -0.0021
  124OSM   C14S13217   0.420   4.878   7.597  0.3575 -0.6155  0.1893
  124OSM   H14S13218   0.434   4.768   7.590  0.5706 -0.5694 -0.1208
  124OSM   H14T13219   0.317   4.912   7.618  0.4423  0.4220 -0.9909
  124OSM   C15S13220   0.514   4.918   7.707  0.0659 -0.3127  0.2038
  124OSM   H15S13221   0.531   5.028   7.702  0.4597 -0.3362  0.9164
  124OSM   H15T13222   0.609   4.868   7.682 -1.0617 -2.2198 -0.4365
  124OSM   C16S13223   0.474   4.870   7.846  0.2534  0.6822 -0.4723
  124OSM   H16S13224   0.423   4.773   7.827  0.0391  0.9200 -1.1552
  124OSM   H16T13225   0.387   4.918   7.897 -1.2958 -1.5719 -0.8263
  124OSM   C17S13226   0.590   4.852   7.949  0.0882  0.1557 -0.3869
  124OSM   H17S13227   0.645   4.948   7.950 -3.8610  2.6407  0.4332
  124OSM   H17T13228   0.658   4.775   7.905  0.8276  0.1344  0.7593
  124OSM   C18S13229   0.566   4.823   8.100  0.1320 -0.1245 -0.3388
  124OSM   H18S13230   0.515   4.724   8.105 -0.7270  0.3699  1.2756
  124OSM   H18T13231   0.498   4.894   8.152 -0.3089  0.1670 -1.2952
  124OSM   H18U13232   0.667   4.823   8.146  0.8747 -1.5654 -1.8604
  124OSM    C1F13233   0.080   5.523   6.575 -0.3722  0.4048 -0.4490
  124OSM     OF13234  -0.013   5.526   6.497  0.1993  0.6799  0.4512
  124OSM    C2F13235   0.082   5.595   6.705 -0.1271 -0.2027 -0.0294
  124OSM    H2F13236   0.117   5.700   6.695  2.5390 -1.1176 -1.1442
  124OSM    H2G13237   0.168   5.562   6.766  0.1797 -0.8330 -0.7835
  124OSM    C3F13238  -0.044   5.581   6.793 -0.5059 -0.0149  0.3278
  124OSM    H3F13239  -0.072   5.473   6.793  0.0723 -0.2647 -3.1736
  124OSM    H3G13240  -0.135   5.623   6.746 -0.8994 -0.4147  0.7113
  124OSM    C4F13241  -0.013   5.634   6.934  0.3090  0.2471  0.3353
  124OSM    H4F13242   0.073   5.577   6.976  0.0300 -1.9638 -1.8398
  124OSM    H4G13243  -0.102   5.611   6.996 -0.0886 -0.3483 -0.4396
  124OSM    C5F13244   0.019   5.780   6.948 -0.2730 -0.1053 -0.0165
  124OSM    H5F13245  -0.061   5.840   6.901  0.8954  1.6420  0.1409
  124OSM    H5G13246   0.107   5.806   6.886 -0.9831  0.3993 -0.8387
  124OSM    C6F13247   0.027   5.830   7.093  0.5869  0.1818  0.2716
  124OSM    H6F13248   0.081   5.763   7.163 -1.2258  0.4797  2.0779
  124OSM    H6G13249  -0.078   5.825   7.130  0.5227  0.5337  0.1427
  124OSM    C7F13250   0.078   5.978   7.102  0.3631  1.0045  0.2524
  124OSM    H7F13251   0.007   6.039   7.041  0.7088 -0.3240 -1.5798
  124OSM    H7G13252   0.181   5.980   7.059  0.4850  0.2450  0.4968
  124OSM    C8F13253   0.082   6.034   7.250 -0.3758  0.2423  0.1334
  124OSM    H8F13254   0.060   5.959   7.329  1.9712 -1.1239 -0.3889
  124OSM    H8G13255  -0.004   6.103   7.262 -1.1207 -0.3943 -1.3290
  124OSM    C9F13256   0.213   6.109   7.268 -0.5657  0.7160  0.1579
  124OSM    H9F13257   0.234   6.185   7.192 -1.7991  0.4909 -0.4331
  124OSM   C10F13258   0.323   6.075   7.333  0.1670  0.7447 -0.2120
  124OSM   H10F13259   0.412   6.139   7.320  0.9721 -0.4307 -0.6163
  124OSM   C11F13260   0.347   5.959   7.428 -0.6681 -0.7618  0.0284
  124OSM   H11F13261   0.456   5.936   7.430 -0.2818  0.8676  1.8433
  124OSM   H11G13262   0.289   5.876   7.383 -0.8786  0.1887 -1.5408
  124OSM   C12F13263   0.301   5.997   7.567  0.7103 -0.2594 -0.3419
  124OSM   H12F13264   0.333   6.103   7.580 -1.4591  0.3650  0.2252
  124OSM   H12G13265   0.358   5.925   7.629  1.7158  1.1685  0.4279
  124OSM   C13F13266   0.154   5.982   7.603  0.3238 -0.6053 -0.9219
  124OSM   H13F13267   0.110   5.882   7.583  3.1699 -1.6587 -2.7129
  124OSM   H13G13268   0.113   6.053   7.528  3.0952 -0.1303 -2.1274
  124OSM   C14F13269   0.123   6.040   7.752  0.0418  0.6055  0.2673
  124OSM   H14F13270   0.019   6.016   7.781  0.2492 -0.0626  0.4779
  124OSM   H14G13271   0.143   6.149   7.760  1.6156  0.3819 -0.3156
  124OSM   C15F13272   0.204   5.959   7.864 -0.6537 -0.6250 -0.0617
  124OSM   H15F13273   0.310   5.991   7.856 -0.3946 -1.5749 -0.5834
  124OSM   H15G13274   0.204   5.849   7.850 -0.5891 -0.4430 -1.6607
  124OSM   C16F13275   0.164   5.998   8.008  0.4262  0.7398 -0.7412
  124OSM   H16F13276   0.071   5.944   8.034  0.0171  0.3421 -2.9245
  124OSM   H16G13277   0.146   6.108   7.999  0.2479  0.7255 -0.5633
  124OSM   C17F13278   0.275   5.968   8.111  0.1958  0.6240  0.4263
  124OSM   H17F13279   0.365   6.021   8.075  0.5068 -1.2979 -1.8502
  124OSM   H17G13280   0.291   5.858   8.118  0.1693  0.4784 -1.3302
  124OSM   C18F13281   0.250   6.015   8.255 -0.5317 -0.3745  0.0511
  124OSM   H18F13282   0.318   5.968   8.329  0.5431 -0.2044 -0.7831
  124OSM   H18G13283   0.143   6.000   8.280 -0.6476 -1.0301 -0.7701
  124OSM   H18H13284   0.263   6.123   8.276 -1.5032 -0.3798  0.7458
  125OSM      N13285   0.068   6.593   6.386  0.1319 -0.5002 -0.4365
  125OSM    C1513286  -0.057   6.662   6.440  0.0436  0.4754  0.5123
  125OSM   H15A13287  -0.107   6.717   6.361 -0.8863  3.4769  3.0336
  125OSM   H15B13288  -0.027   6.734   6.514  0.6765  1.8561 -1.0019
  125OSM   H15C13289  -0.126   6.590   6.481 -1.7006  1.1005 -1.1737
  125OSM    C1413290   0.126   6.522   6.503 -0.0421  0.2118  0.2424
  125OSM   H14A13291   0.042   6.477   6.555 -0.3589  0.5263  0.0003
  125OSM   H14B13292   0.175   6.598   6.562  2.4169 -1.7714  0.9243
  125OSM   H14C13293   0.198   6.444   6.481  1.9224  1.3807  2.1434
  125OSM    C1313294   0.034   6.498   6.288  0.6730  0.4873  0.6432
  125OSM   H13A13295   0.124   6.453   6.248  0.4508  1.0492 -0.5345
  125OSM   H13B13296  -0.001   6.549   6.200 -0.3514  0.0190  0.7715
  125OSM   H13C13297  -0.043   6.429   6.318  0.7996 -0.8793 -1.9324
  125OSM    C1213298   0.172   6.694   6.350  0.1571  0.2685 -0.1022
  125OSM   H12A13299   0.263   6.642   6.323 -0.5855 -0.5488 -1.0996
  125OSM   H12B13300   0.207   6.755   6.432  0.7612  0.1699 -0.2835
  125OSM    C1113301   0.142   6.787   6.231 -0.4952 -0.0885 -0.2842
  125OSM   H11A13302   0.092   6.722   6.155  0.6164 -1.3666  0.0361
  125OSM   H11B13303   0.236   6.822   6.183  0.4190 -1.3642  0.5036
  125OSM      P13304   0.097   7.040   6.256  0.1532 -0.1654 -0.0898
  125OSM    O1313305   0.177   7.072   6.136  0.0808 -0.0050  0.1245
  125OSM    O1413306  -0.026   7.118   6.261  0.1439  0.9041 -0.5418
  125OSM    O1113307   0.184   7.066   6.385 -0.5070 -0.1115  0.7322
  125OSM    O1213308   0.057   6.895   6.265 -0.2868  0.7171 -0.4124
  125OSM    C1S13309   0.108   7.050   6.506 -0.1386 -0.0011  0.4610
  125OSM    H1S13310   0.060   6.951   6.495  1.6812 -0.6510 -3.0151
  125OSM    H1T13311   0.037   7.132   6.531  3.3435  4.1229 -1.7725
  125OSM     NF13312   0.119   6.977   6.735 -0.3591  0.5664  0.1809
  125OSM    HNF13313   0.061   7.039   6.787 -1.4541 -0.1259 -0.1712
  125OSM    C2S13314   0.200   7.039   6.625 -0.2577 -0.2681 -0.3208
  125OSM    H2S13315   0.277   6.964   6.595 -0.9628 -0.5424 -1.5519
  125OSM    C3S13316   0.270   7.176   6.663  0.0917 -0.6804 -0.3499
  125OSM    H3S13317   0.190   7.241   6.704 -1.0985 -0.3456 -3.0034
  125OSM     O313318   0.329   7.256   6.555 -0.4107  0.5813 -0.1710
  125OSM    HO313319   0.289   7.221   6.475 -0.3094  1.7517 -0.7658
  125OSM    C4S13320   0.376   7.157   6.771 -0.1917  0.2651  0.5774
  125OSM    H4S13321   0.451   7.082   6.745 -1.0315  0.1787 -1.7901
  125OSM    C5S13322   0.367   7.207   6.900 -0.3817  0.2954  0.7803
  125OSM    H5S13323   0.287   7.278   6.923 -1.9114 -0.6746 -1.1988
  125OSM    C6S13324   0.467   7.188   7.008  0.0614  0.2924  0.1729
  125OSM    H6S13325   0.506   7.290   7.031 -3.6197  2.3453 -1.7244
  125OSM    H6T13326   0.553   7.126   6.977 -0.0807  0.4581 -0.5572
  125OSM    C7S13327   0.415   7.126   7.140  0.2977  0.0606  0.9120
  125OSM    H7S13328   0.326   7.188   7.165 -1.0071 -0.6144 -1.5864
  125OSM    H7T13329   0.500   7.133   7.211  1.1752 -0.2599 -0.0802
  125OSM    C8S13330   0.362   6.983   7.127  0.3067 -0.3008  0.4489
  125OSM    H8S13331   0.348   6.954   7.021 -0.6423  2.6614 -0.3144
  125OSM    H8T13332   0.260   6.987   7.171 -0.6925 -1.3709 -1.6051
  125OSM    C9S13333   0.437   6.872   7.206  0.2911  0.5493 -0.7012
  125OSM    H9S13334   0.545   6.893   7.219  0.3727 -1.0773  2.0460
  125OSM    H9T13335   0.431   6.776   7.151  0.0037  1.4672 -2.3244
  125OSM   C10S13336   0.380   6.849   7.352 -0.5169  0.0276 -0.3984
  125OSM   H10S13337   0.417   6.754   7.397 -1.2718 -0.1251 -0.0890
  125OSM   H10T13338   0.270   6.845   7.336 -0.8100  4.5675 -0.8174
  125OSM   C11S13339   0.409   6.963   7.455 -0.2710 -0.6026  0.2910
  125OSM   H11S13340   0.373   7.056   7.405  0.8391 -0.4825 -0.3215
  125OSM   H11T13341   0.519   6.974   7.462 -0.4924  1.1863  1.6606
  125OSM   C12S13342   0.342   6.934   7.590 -0.7496  0.9505  0.0980
  125OSM   H12S13343   0.403   6.860   7.646 -1.8379 -0.2412 -0.2364
  125OSM   H12T13344   0.238   6.897   7.578 -0.9383  1.2912  0.6553
  125OSM   C13S13345   0.330   7.072   7.667 -0.2273 -1.0794 -0.2199
  125OSM   H13S13346   0.239   7.112   7.617 -1.5238 -2.9934  0.4886
  125OSM   H13T13347   0.421   7.129   7.640  0.5674 -2.0090  0.4170
  125OSM   C14S13348   0.309   7.053   7.816  0.2443  0.0262  0.0873
  125OSM   H14S13349   0.387   6.994   7.870 -0.4788  1.5052  2.9162
  125OSM   H14T13350   0.208   7.011   7.836 -0.7218  1.2435 -1.9441
  125OSM   C15S13351   0.313   7.188   7.885  0.0362  0.0321  0.9219
  125OSM   H15S13352   0.278   7.273   7.824  0.3580 -0.9469 -0.7107
  125OSM   H15T13353   0.418   7.220   7.904 -0.7824  1.5466  3.2898
  125OSM   C16S13354   0.242   7.180   8.022  0.4415 -0.8528  0.1436
  125OSM   H16S13355   0.141   7.138   8.006  0.5851 -0.9893 -0.4203
  125OSM   H16T13356   0.221   7.283   8.057  0.6298 -1.0371  0.8048
  125OSM   C17S13357   0.326   7.107   8.135 -0.5951  0.1285 -0.0441
  125OSM   H17S13358   0.426   7.155   8.140 -0.5443  0.2003 -1.4595
  125OSM   H17T13359   0.354   7.003   8.108  0.3765  0.8162 -1.8802
  125OSM   C18S13360   0.268   7.101   8.277  0.2522 -0.2252  0.6749
  125OSM   H18S13361   0.250   7.207   8.308 -1.4381  0.1490 -1.3988
  125OSM   H18T13362   0.328   7.048   8.355 -1.1331 -2.2173  0.4567
  125OSM   H18U13363   0.163   7.066   8.277 -0.4638  1.6499  2.8427
  125OSM    C1F13364   0.078   6.850   6.730  0.1567  0.2506 -0.2726
  125OSM     OF13365   0.122   6.776   6.646 -0.4276  0.0830  0.1456
  125OSM    C2F13366  -0.009   6.801   6.840  0.0798  0.1637 -0.3270
  125OSM    H2F13367  -0.080   6.723   6.803  1.5457 -0.3120 -2.2698
  125OSM    H2G13368  -0.061   6.892   6.877  1.9160  1.5616 -1.0558
  125OSM    C3F13369   0.081   6.745   6.957 -0.4888 -0.7406 -0.4232
  125OSM    H3F13370   0.156   6.821   6.986 -0.3579 -0.3707 -1.6590
  125OSM    H3G13371   0.141   6.662   6.912 -0.0130 -0.1542 -0.8868
  125OSM    C4F13372   0.006   6.697   7.079 -0.0382 -0.1314  0.1002
  125OSM    H4F13373   0.081   6.633   7.130 -0.7917 -1.8257 -0.8490
  125OSM    H4G13374  -0.084   6.637   7.054 -0.5111  1.2634 -1.7730
  125OSM    C5F13375  -0.052   6.810   7.168 -0.8075  0.3891  0.2133
  125OSM    H5F13376  -0.123   6.877   7.115  0.0714  2.1540  1.1946
  125OSM    H5G13377   0.034   6.875   7.193  0.1668 -0.5190 -0.6648
  125OSM    C6F13378  -0.118   6.758   7.294  0.7642  0.3447 -0.2270
  125OSM    H6F13379  -0.059   6.693   7.362 -2.6357 -1.3866  1.2988
  125OSM    H6G13380  -0.199   6.689   7.262  1.3623 -0.4914  0.0423
  125OSM    C7F13381  -0.186   6.869   7.375  0.5043  0.4068  0.6200
  125OSM    H7F13382  -0.264   6.833   7.445  0.3584 -0.1891  0.1587
  125OSM    H7G13383  -0.251   6.928   7.307  2.9236  0.7423 -1.5407
  125OSM    C8F13384  -0.088   6.964   7.446  0.2654 -0.2767  0.5661
  125OSM    H8F13385  -0.137   7.061   7.468  0.4025 -0.2492  0.7520
  125OSM    H8G13386  -0.009   6.992   7.373 -0.9275 -0.5440 -0.8874
  125OSM    C9F13387  -0.025   6.906   7.564 -0.5651  0.2180  0.1855
  125OSM    H9F13388   0.041   6.822   7.538  0.7708  1.2908 -0.0322
  125OSM   C10F13389  -0.027   6.942   7.695  0.3095  0.6449  0.1579
  125OSM   H10F13390   0.034   6.885   7.766  2.3614  1.3471 -0.9558
  125OSM   C11F13391  -0.108   7.050   7.752  0.3074 -1.0015 -0.5937
  125OSM   H11F13392  -0.157   7.102   7.666  0.3445 -2.8628 -1.7950
  125OSM   H11G13393  -0.051   7.121   7.816  1.5752 -2.5490  0.0429
  125OSM   C12F13394  -0.209   6.991   7.858 -0.5697  0.3760  0.3443
  125OSM   H12F13395  -0.258   6.900   7.816 -1.3089  0.2377  1.4565
  125OSM   H12G13396  -0.289   7.066   7.875 -2.0655 -0.5843 -2.0038
  125OSM   C13F13397  -0.141   6.945   7.989  0.9839  0.8788 -0.2204
  125OSM   H13F13398  -0.062   7.021   8.009 -0.1494  2.2001 -0.6171
  125OSM   H13G13399  -0.088   6.848   7.981  1.6924  0.9378  2.6087
  125OSM   C14F13400  -0.234   6.943   8.115  0.7016  0.3114 -0.3510
  125OSM   H14F13401  -0.306   6.862   8.089 -0.1690  0.6654  0.9031
  125OSM   H14G13402  -0.287   7.040   8.123  1.5965  0.7020  1.0814
  125OSM   C15F13403  -0.175   6.896   8.248  0.1807  0.3657  0.4413
  125OSM   H15F13404  -0.254   6.870   8.322  0.4395  1.4036  1.1007
  125OSM   H15G13405  -0.118   6.975   8.300 -1.9511  1.0271  1.9293
  125OSM   C16F13406  -0.080   6.772   8.247 -0.0510  0.4271 -0.2352
  125OSM   H16F13407  -0.002   6.800   8.174  0.5804 -0.5283  0.0597
  125OSM   H16G13408  -0.128   6.680   8.207 -1.1390  1.0128 -0.3275
  125OSM   C17F13409  -0.009   6.729   8.379 -0.4239 -0.0560 -0.6273
  125OSM   H17F13410   0.046   6.634   8.366  0.2631 -0.1296  2.1161
  125OSM   H17G13411  -0.085   6.712   8.458  0.2485  0.6636  0.2124
  125OSM   C18F13412   0.092   6.825   8.439 -0.6850 -0.0166 -0.2497
  125OSM   H18F13413   0.186   6.833   8.380  1.0338 -0.0156  2.2976
  125OSM   H18G13414   0.126   6.793   8.541  0.9460 -0.3657 -0.8664
  125OSM   H18H13415   0.053   6.929   8.438  1.2271  0.7941 -3.2146
  126OSM      N13416   3.577   3.491   6.406  0.5630  0.6621  0.8363
  126OSM    C1513417   3.689   3.496   6.313 -0.1756  0.7790  0.7316
  126OSM   H15A13418   3.687   3.557   6.224  2.8874 -0.3236 -0.2218
  126OSM   H15B13419   3.709   3.397   6.276 -0.2577  1.2696 -0.6733
  126OSM   H15C13420   3.775   3.532   6.369  1.0655 -1.0056  0.0655
  126OSM    C1413421   3.452   3.459   6.331  0.0522  0.1056  0.9423
  126OSM   H14A13422   3.463   3.379   6.259  0.9392 -0.7798  2.0188
  126OSM   H14B13423   3.425   3.545   6.272 -0.5412 -0.6024  0.1492
  126OSM   H14C13424   3.374   3.434   6.400  1.2659 -1.6779  1.7422
  126OSM    C1313425   3.606   3.382   6.506 -0.3727 -0.1396 -0.0326
  126OSM   H13A13426   3.523   3.378   6.575  1.9741 -0.5476  2.9938
  126OSM   H13B13427   3.683   3.395   6.580 -1.2113 -1.8293  1.2064
  126OSM   H13C13428   3.617   3.290   6.450  1.3491  0.8970 -1.4981
  126OSM    C1213429   3.555   3.620   6.480 -0.1482  0.0096  0.2022
  126OSM   H12A13430   3.518   3.691   6.408 -1.2287 -0.0888  0.6439
  126OSM   H12B13431   3.650   3.650   6.522  1.1623 -0.9270 -1.8798
  126OSM    C1113432   3.457   3.619   6.599 -0.0594  0.3502  0.4805
  126OSM   H11A13433   3.443   3.706   6.667  2.4225 -1.1172  3.1173
  126OSM   H11B13434   3.490   3.548   6.677 -0.4694 -0.5635 -0.1619
  126OSM      P13435   3.222   3.677   6.505 -0.0180 -0.2341 -0.2909
  126OSM    O1313436   3.293   3.768   6.410  0.0489 -0.0285 -0.6838
  126OSM    O1413437   3.106   3.603   6.447 -0.2157  0.0332 -0.4982
  126OSM    O1113438   3.175   3.762   6.629 -0.0424 -0.3736 -0.2664
  126OSM    O1213439   3.327   3.580   6.559 -0.3427  0.4931  0.2883
  126OSM    C1S13440   3.122   3.694   6.748  0.6500 -0.1568  0.1837
  126OSM    H1S13441   3.207   3.672   6.816  0.7300 -0.2972  0.0396
  126OSM    H1T13442   3.069   3.601   6.718  1.1172 -0.2535 -0.3715
  126OSM     NF13443   2.990   3.702   6.958  0.6528 -0.4011 -0.5324
  126OSM    HNF13444   2.898   3.671   6.981  0.6784 -0.2773 -0.2553
  126OSM    C2S13445   3.014   3.775   6.831 -0.0356  0.4614 -0.1644
  126OSM    H2S13446   3.074   3.864   6.859  0.2903 -0.7423  3.3804
  126OSM    C3S13447   2.890   3.813   6.749 -0.4755 -0.3253 -0.5764
  126OSM    H3S13448   2.820   3.727   6.748 -1.4129  0.4194 -1.4816
  126OSM     O313449   2.919   3.845   6.608 -0.1952  0.3985 -0.2513
  126OSM    HO313450   3.013   3.823   6.606  0.2155  1.6473  2.3217
  126OSM    C4S13451   2.822   3.928   6.817 -0.3762  0.4203 -0.1904
  126OSM    H4S13452   2.724   3.899   6.857  0.7426 -0.5717  1.9528
  126OSM    C5S13453   2.873   4.050   6.824  0.6601 -0.3114 -0.8236
  126OSM    H5S13454   2.969   4.068   6.773 -0.1739 -0.0909 -2.3717
  126OSM    C6S13455   2.807   4.167   6.887  0.2886  0.2509  0.2972
  126OSM    H6S13456   2.785   4.226   6.796 -0.2965  3.3090  2.2772
  126OSM    H6T13457   2.875   4.231   6.947 -0.3711 -0.9493  2.4417
  126OSM    C7S13458   2.671   4.149   6.959 -0.2801 -0.1035 -0.0734
  126OSM    H7S13459   2.602   4.093   6.892  0.3836 -2.0062  0.7765
  126OSM    H7T13460   2.629   4.248   6.987 -1.7214 -0.5745 -0.4756
  126OSM    C8S13461   2.691   4.073   7.095  0.2134  0.3915  0.5286
  126OSM    H8S13462   2.784   4.108   7.145 -0.6588  0.2466  2.3300
  126OSM    H8T13463   2.691   3.964   7.076 -0.2821  0.7914 -2.3284
  126OSM    C9S13464   2.569   4.081   7.188 -0.1341 -0.3009  0.4732
  126OSM    H9S13465   2.473   4.050   7.140 -0.5207  0.7064  0.5857
  126OSM    H9T13466   2.558   4.181   7.235  3.1155  0.0011  0.7906
  126OSM   C10S13467   2.576   3.993   7.311 -0.3290  0.0065 -0.5762
  126OSM   H10S13468   2.665   4.031   7.366 -1.2185  1.6183 -0.2056
  126OSM   H10T13469   2.613   3.894   7.276  0.9883  0.3240 -0.1503
  126OSM   C11S13470   2.457   4.001   7.406  0.6377 -0.2464 -0.1128
  126OSM   H11S13471   2.445   3.901   7.452  2.2054 -0.2359  0.4007
  126OSM   H11T13472   2.366   4.023   7.347  1.9536 -0.7202 -2.4837
  126OSM   C12S13473   2.462   4.102   7.518  0.3510 -0.7828  0.0374
  126OSM   H12S13474   2.360   4.136   7.543  1.3208  0.9816  1.9361
  126OSM   H12T13475   2.518   4.191   7.482 -3.5329  1.6598 -0.4602
  126OSM   C13S13476   2.517   4.057   7.656  0.5341  0.1181 -0.0029
  126OSM   H13S13477   2.611   4.002   7.636  1.0232  1.2237 -0.7813
  126OSM   H13T13478   2.451   3.986   7.712  1.6261 -1.6086 -0.8038
  126OSM   C14S13479   2.548   4.167   7.754 -0.6293 -0.0679 -0.4568
  126OSM   H14S13480   2.458   4.229   7.777 -1.1386 -0.6781 -0.7571
  126OSM   H14T13481   2.625   4.229   7.705 -0.3037 -1.2517 -1.4851
  126OSM   C15S13482   2.598   4.116   7.895  0.1832  0.1648  0.4066
  126OSM   H15S13483   2.678   4.040   7.885 -0.7441 -0.8059  0.1510
  126OSM   H15T13484   2.517   4.060   7.946  0.4439 -0.9387 -0.3655
  126OSM   C16S13485   2.644   4.228   7.989  0.0356  0.8241 -0.9011
  126OSM   H16S13486   2.562   4.304   7.994 -1.7127 -1.0750  0.6535
  126OSM   H16T13487   2.732   4.275   7.940 -0.0085  1.8590 -0.0411
  126OSM   C17S13488   2.679   4.178   8.128 -0.5518 -0.1226  1.1897
  126OSM   H17S13489   2.748   4.093   8.114  0.0659  0.1978  2.2019
  126OSM   H17T13490   2.591   4.130   8.177 -1.7688  0.7000 -0.1009
  126OSM   C18S13491   2.752   4.292   8.205  0.2608  0.2856  0.3978
  126OSM   H18S13492   2.684   4.372   8.243 -1.8547 -1.1469 -0.1484
  126OSM   H18T13493   2.841   4.337   8.156 -0.6898  1.3044 -0.4654
  126OSM   H18U13494   2.786   4.246   8.300 -0.1751 -0.8427  0.0231
  126OSM    C1F13495   3.073   3.666   7.053 -0.8543 -0.4011  0.5348
  126OSM     OF13496   3.193   3.684   7.040  0.4046 -0.6442 -0.1691
  126OSM    C2F13497   3.024   3.586   7.172  0.4211  0.3758  0.1686
  126OSM    H2F13498   3.114   3.551   7.227  1.6326  0.4047 -1.6810
  126OSM    H2G13499   2.959   3.505   7.133 -0.0410  0.7628  0.1324
  126OSM    C3F13500   2.931   3.682   7.272 -0.7792  0.8969  0.1977
  126OSM    H3F13501   2.824   3.672   7.243 -0.5092  2.4486 -1.4666
  126OSM    H3G13502   2.969   3.785   7.258  0.9096  0.0169 -2.2549
  126OSM    C4F13503   2.946   3.647   7.424  0.2206  0.4378 -0.4230
  126OSM    H4F13504   3.051   3.617   7.441  0.2240  0.0280 -1.1022
  126OSM    H4G13505   2.884   3.556   7.440 -1.5442  1.4036 -1.4139
  126OSM    C5F13506   2.900   3.756   7.520  0.1906 -0.4208 -0.4253
  126OSM    H5F13507   2.795   3.784   7.498  0.6325  0.4534 -1.4796
  126OSM    H5G13508   2.955   3.846   7.486 -1.1300 -0.1524 -2.0159
  126OSM    C6F13509   2.922   3.719   7.665 -0.2395  0.1207 -0.5762
  126OSM    H6F13510   3.006   3.648   7.680  0.1469  0.0306 -2.8683
  126OSM    H6G13511   2.831   3.674   7.711  1.6473 -1.7987  1.5648
  126OSM    C7F13512   2.944   3.845   7.744 -0.6670 -0.7555 -0.1823
  126OSM    H7F13513   2.888   3.938   7.720  0.1850 -0.3832 -0.7870
  126OSM    H7G13514   3.047   3.884   7.731 -1.4732  1.0048 -1.6773
  126OSM    C8F13515   2.920   3.832   7.895  0.6037  0.0614  0.1261
  126OSM    H8F13516   2.815   3.796   7.906  0.6371 -0.3725 -0.8599
  126OSM    H8G13517   2.920   3.938   7.927 -2.9718 -0.2529  1.6238
  126OSM    C9F13518   3.016   3.737   7.965  0.0901 -0.0069  0.1606
  126OSM    H9F13519   3.035   3.639   7.919 -1.2912 -0.2500  0.0514
  126OSM   C10F13520   3.098   3.762   8.071  0.0498 -0.0186 -0.0380
  126OSM   H10F13521   3.171   3.686   8.103 -0.8590 -0.0190  2.2387
  126OSM   C11F13522   3.102   3.883   8.153  0.8838 -0.1088 -0.9459
  126OSM   H11F13523   3.081   3.977   8.098  2.7056  0.8271 -0.1051
  126OSM   H11G13524   3.203   3.889   8.198  0.2252 -0.2222  0.6060
  126OSM   C12F13525   3.010   3.867   8.274  0.1179  0.2562 -0.0252
  126OSM   H12F13526   3.031   3.784   8.344 -0.7556  2.8453  3.5996
  126OSM   H12G13527   2.910   3.839   8.235  0.1930  1.7054 -1.3782
  126OSM   C13F13528   3.000   3.998   8.357 -0.2245  0.2916 -0.3512
  126OSM   H13F13529   2.980   4.094   8.305  1.0703 -0.0863 -1.6202
  126OSM   H13G13530   3.101   4.014   8.400 -0.2055 -0.6002 -0.0481
  126OSM   C14F13531   2.891   3.998   8.469  0.3580  0.7348 -0.1459
  126OSM   H14F13532   2.791   3.960   8.440 -0.6010  3.7450 -1.1192
  126OSM   H14G13533   2.872   4.102   8.502 -1.3037  0.1942  0.7228
  126OSM   C15F13534   2.935   3.923   8.595 -0.9915  0.7758 -0.1960
  126OSM   H15F13535   3.038   3.938   8.634 -1.3960 -2.2346  2.4153
  126OSM   H15G13536   2.922   3.813   8.589 -1.4409  0.7109  1.3981
  126OSM   C16F13537   2.844   3.958   8.714 -0.2109 -0.0868  0.9108
  126OSM   H16F13538   2.744   3.919   8.690 -0.7867  2.6670 -1.8005
  126OSM   H16G13539   2.838   4.068   8.735  0.4713 -0.3279  2.5704
  126OSM   C17F13540   2.894   3.905   8.844 -0.5083 -0.6576 -0.0562
  126OSM   H17F13541   2.988   3.957   8.873  0.0824 -2.6757  1.9885
  126OSM   H17G13542   2.911   3.795   8.836 -2.1438 -0.7569 -3.9248
  126OSM   C18F13543   2.811   3.922   8.977 -1.0266  0.0719  0.1052
  126OSM   H18F13544   2.704   3.892   8.973 -1.0750  0.3047 -0.4117
  126OSM   H18G13545   2.791   4.030   8.998 -2.6096 -0.3664  1.0954
  126OSM   H18H13546   2.853   3.870   9.065  0.9163 -1.7162 -1.7731
  127OSM      N13547   5.451   5.311   6.025  0.3236  0.1036  0.1699
  127OSM    C1513548   5.527   5.422   6.091  0.2321  0.3146  0.0021
  127OSM   H15A13549   5.492   5.519   6.056  0.7050  0.3006 -0.5287
  127OSM   H15B13550   5.630   5.413   6.059  0.6621  0.1208  1.3746
  127OSM   H15C13551   5.521   5.426   6.199 -2.1504 -0.3664 -0.0581
  127OSM    C1413552   5.302   5.336   6.037  0.0181  0.2074 -0.1653
  127OSM   H14A13553   5.271   5.424   5.982  1.0442 -0.3632 -1.7259
  127OSM   H14B13554   5.269   5.361   6.137 -1.6303 -0.0780 -0.6035
  127OSM   H14C13555   5.242   5.254   6.001 -2.2036  1.1672  1.1369
  127OSM    C1313556   5.486   5.306   5.881 -0.2960 -0.2135 -0.6428
  127OSM   H13A13557   5.442   5.390   5.830 -0.8391  0.6773  1.2149
  127OSM   H13B13558   5.448   5.211   5.847 -0.5347 -1.6341  3.0988
  127OSM   H13C13559   5.592   5.290   5.870 -0.4256 -1.6275 -0.0711
  127OSM    C1213560   5.475   5.176   6.092 -0.9137  0.1582  0.3555
  127OSM   H12A13561   5.575   5.144   6.065 -0.6667  0.0164  1.3719
  127OSM   H12B13562   5.411   5.104   6.044  0.3228  0.4689 -1.9071
  127OSM    C1113563   5.459   5.164   6.250  0.3198  0.4273 -0.0334
  127OSM   H11A13564   5.503   5.246   6.311 -1.9163  0.3558  1.8249
  127OSM   H11B13565   5.512   5.074   6.286  0.7106  1.0058  0.8901
  127OSM      P13566   5.243   5.029   6.259 -0.1551 -0.1008 -0.3219
  127OSM    O1313567   5.108   5.059   6.312 -0.5495 -0.6770 -0.2859
  127OSM    O1413568   5.266   4.997   6.120  0.5949  0.0339 -0.1914
  127OSM    O1113569   5.312   4.927   6.357 -0.7797 -0.1554 -0.2672
  127OSM    O1213570   5.320   5.162   6.280  0.9289 -0.7617  0.1972
  127OSM    C1S13571   5.324   4.964   6.497 -1.1737  0.7814  1.1917
  127OSM    H1S13572   5.220   4.955   6.535 -1.4020 -2.0847  0.1067
  127OSM    H1T13573   5.379   5.060   6.509  0.6328  0.0906 -0.8801
  127OSM     NF13574   5.400   4.889   6.711 -1.3134  0.0762 -0.0358
  127OSM    HNF13575   5.477   4.933   6.755 -1.2176  0.0217 -0.1517
  127OSM    C2S13576   5.404   4.852   6.571  0.1944 -0.6133  0.4667
  127OSM    H2S13577   5.361   4.750   6.561 -0.1351 -0.8784  3.5708
  127OSM    C3S13578   5.546   4.844   6.499  0.3307  0.2259 -0.0522
  127OSM    H3S13579   5.580   4.949   6.511 -0.7187  0.5275  0.4001
  127OSM     O313580   5.547   4.815   6.359  0.0683 -0.6012 -0.5798
  127OSM    HO313581   5.469   4.861   6.327 -1.2239  0.3451  3.3645
  127OSM    C4S13582   5.638   4.760   6.575 -0.3402 -0.6576  0.1209
  127OSM    H4S13583   5.693   4.828   6.642  0.3804 -1.2285  0.1211
  127OSM    C5S13584   5.657   4.629   6.583 -1.2250  0.4612 -0.3464
  127OSM    H5S13585   5.591   4.558   6.531 -1.0775 -1.3062  1.7288
  127OSM    C6S13586   5.751   4.572   6.690  0.3813  0.0552 -0.4768
  127OSM    H6S13587   5.853   4.614   6.681 -0.3934  1.6777 -2.3087
  127OSM    H6T13588   5.750   4.461   6.689 -1.6487 -0.0033  1.0099
  127OSM    C7S13589   5.691   4.599   6.828 -0.5227  0.5310 -0.7161
  127OSM    H7S13590   5.682   4.505   6.887  0.1921  0.6786 -0.3572
  127OSM    H7T13591   5.586   4.634   6.823 -0.4924  0.4809 -1.9836
  127OSM    C8S13592   5.778   4.687   6.921 -0.0158  0.0502  0.0142
  127OSM    H8S13593   5.790   4.779   6.860 -1.5379 -0.5726 -1.3192
  127OSM    H8T13594   5.875   4.636   6.935  0.8629  1.3225 -1.1989
  127OSM    C9S13595   5.705   4.717   7.055  0.2666  0.7612 -0.0946
  127OSM    H9S13596   5.622   4.645   7.071 -0.1550  1.2561 -0.0111
  127OSM    H9T13597   5.660   4.818   7.045 -1.0530  0.1922 -0.1471
  127OSM   C10S13598   5.797   4.728   7.174 -0.1828  0.2516  0.0414
  127OSM   H10S13599   5.872   4.809   7.157 -1.4522  1.7374  1.2617
  127OSM   H10T13600   5.846   4.629   7.187  0.1951  0.4475  0.1322
  127OSM   C11S13601   5.736   4.783   7.301  0.2812  0.1224  0.1035
  127OSM   H11S13602   5.664   4.707   7.338  0.2981 -0.1426 -0.4073
  127OSM   H11T13603   5.680   4.878   7.291 -0.5128 -0.1364  1.7416
  127OSM   C12S13604   5.848   4.799   7.403 -0.4109  0.2178  0.8279
  127OSM   H12S13605   5.917   4.882   7.381  1.0696 -0.8820  1.1613
  127OSM   H12T13606   5.902   4.702   7.410  0.5304  0.8059  2.1825
  127OSM   C13S13607   5.791   4.841   7.541 -0.9338 -0.3825 -0.4384
  127OSM   H13S13608   5.727   4.756   7.572 -1.3360  0.2187  0.4118
  127OSM   H13T13609   5.733   4.934   7.525 -0.1518  0.5018  1.5736
  127OSM   C14S13610   5.896   4.863   7.655  0.2073  0.5114 -0.1965
  127OSM   H14S13611   5.971   4.942   7.632  0.3148  0.3931 -0.2526
  127OSM   H14T13612   5.968   4.780   7.671  0.6164  1.1210  1.3131
  127OSM   C15S13613   5.829   4.875   7.792 -0.7287  0.4542  0.0448
  127OSM   H15S13614   5.754   4.794   7.807  0.6030 -1.6101 -3.3649
  127OSM   H15T13615   5.774   4.972   7.803 -3.3246 -0.8963 -0.1828
  127OSM   C16S13616   5.935   4.879   7.906  0.0342  0.3499  0.8414
  127OSM   H16S13617   5.982   4.979   7.896 -2.0550  1.3467  0.4461
  127OSM   H16T13618   6.009   4.798   7.885  0.4771  0.9720 -0.1053
  127OSM   C17S13619   5.871   4.873   8.042 -0.3806  0.4719 -0.6707
  127OSM   H17S13620   5.823   4.775   8.065  0.9365 -0.1213 -0.3090
  127OSM   H17T13621   5.788   4.946   8.042 -0.5893  0.2561 -1.7419
  127OSM   C18S13622   5.968   4.888   8.162 -0.2735 -0.3097 -0.1001
  127OSM   H18S13623   5.913   4.852   8.251 -2.5757 -1.3303 -1.8503
  127OSM   H18T13624   5.999   4.995   8.172 -1.2900 -0.2125  2.4302
  127OSM   H18U13625   6.061   4.827   8.166 -2.1558 -3.3122  1.5894
  127OSM    C1F13626   5.294   4.855   6.789 -0.8814  0.0137 -0.6811
  127OSM     OF13627   5.200   4.796   6.741  0.0856  0.3123  0.3881
  127OSM    C2F13628   5.304   4.888   6.936  0.3554  0.8176  0.2236
  127OSM    H2F13629   5.272   4.994   6.942  0.1809  0.8272 -0.7142
  127OSM    H2G13630   5.410   4.902   6.967  0.8096  0.2413 -0.9816
  127OSM    C3F13631   5.216   4.803   7.030 -0.4934  0.4243 -0.3259
  127OSM    H3F13632   5.264   4.703   7.036  1.8451  1.5431  1.5025
  127OSM    H3G13633   5.108   4.798   7.007 -0.7503 -1.6898  1.1024
  127OSM    C4F13634   5.213   4.851   7.176 -0.2258 -0.2393  0.2682
  127OSM    H4F13635   5.182   4.757   7.225 -1.8002  0.6572  1.0863
  127OSM    H4G13636   5.132   4.928   7.178  0.5031  0.6553 -1.6130
  127OSM    C5F13637   5.344   4.904   7.235 -0.1750 -0.0006  0.3083
  127OSM    H5F13638   5.367   5.007   7.199 -0.7930 -0.5069 -1.6728
  127OSM    H5G13639   5.429   4.837   7.210  0.6687  1.2125 -0.1695
  127OSM    C6F13640   5.320   4.910   7.391 -0.0414  0.5513 -0.6099
  127OSM    H6F13641   5.253   4.994   7.420  2.6451  2.7037 -0.2882
  127OSM    H6G13642   5.422   4.944   7.418 -0.0499  0.9727 -1.1051
  127OSM    C7F13643   5.282   4.778   7.457 -0.4243 -0.7611  0.1163
  127OSM    H7F13644   5.332   4.694   7.404  0.5673  0.3865 -0.8239
  127OSM    H7G13645   5.175   4.748   7.456 -0.8638  0.7164  0.1634
  127OSM    C8F13646   5.324   4.774   7.603 -0.4659  0.1757 -0.4365
  127OSM    H8F13647   5.434   4.782   7.617 -0.2397 -5.1048  4.5052
  127OSM    H8G13648   5.311   4.672   7.645  1.1744 -0.3539 -1.1320
  127OSM    C9F13649   5.245   4.876   7.683 -0.2986  0.2485 -0.4094
  127OSM    H9F13650   5.136   4.865   7.680 -0.3940  1.3382 -1.2828
  127OSM   C10F13651   5.294   4.987   7.746  0.0469  0.0360 -0.4068
  127OSM   H10F13652   5.229   5.035   7.821  0.1800 -1.3245  0.6184
  127OSM   C11F13653   5.436   5.030   7.743 -0.6087  0.6961 -0.1517
  127OSM   H11F13654   5.448   5.136   7.714 -1.4136  0.8968  0.2141
  127OSM   H11G13655   5.490   4.966   7.670 -0.2712  1.6336 -0.7407
  127OSM   C12F13656   5.490   5.008   7.893  0.3277 -1.0048 -0.8368
  127OSM   H12F13657   5.599   5.028   7.899  0.1326  0.1569 -0.7853
  127OSM   H12G13658   5.467   4.906   7.931 -2.6976 -0.8293 -1.8744
  127OSM   C13F13659   5.419   5.118   7.985 -0.2674  0.2689 -0.0618
  127OSM   H13F13660   5.315   5.089   8.011  0.0636  0.7326  1.9659
  127OSM   H13G13661   5.407   5.207   7.920 -2.0830 -0.6743 -1.1101
  127OSM   C14F13662   5.495   5.145   8.115 -0.0653  0.2152 -0.8949
  127OSM   H14F13663   5.433   5.207   8.183 -0.2467 -0.2777 -0.6041
  127OSM   H14G13664   5.590   5.193   8.085  0.2027 -0.3192 -0.9093
  127OSM   C15F13665   5.542   5.019   8.192  0.0610 -0.2316  0.3503
  127OSM   H15F13666   5.597   5.045   8.286 -1.7910 -0.4097  1.5284
  127OSM   H15G13667   5.598   4.959   8.118 -1.7551 -0.4171 -0.9123
  127OSM   C16F13668   5.422   4.932   8.250  0.2209  0.3260  0.6588
  127OSM   H16F13669   5.373   4.874   8.169 -1.7520 -0.5545  2.3919
  127OSM   H16G13670   5.353   5.003   8.301 -0.0134  1.0261 -0.5989
  127OSM   C17F13671   5.477   4.821   8.344 -0.6969 -0.1754  0.2540
  127OSM   H17F13672   5.393   4.752   8.363  0.4145 -1.6148  0.0621
  127OSM   H17G13673   5.509   4.854   8.446  1.5585 -1.2517 -0.0464
  127OSM   C18F13674   5.590   4.739   8.279  0.3025 -0.4944 -0.1851
  127OSM   H18F13675   5.591   4.628   8.284 -0.5781 -0.4468  1.8232
  127OSM   H18G13676   5.690   4.781   8.306 -0.7869  1.3263  1.2183
  127OSM   H18H13677   5.570   4.745   8.170  0.6896  0.7950 -0.2095
  128OSM      N13678   2.809   6.498   6.240 -0.1786 -0.4549 -0.2949
  128OSM    C1513679   2.899   6.396   6.189 -0.0278 -0.3633 -0.6650
  128OSM   H15A13680   2.849   6.343   6.109 -0.3122 -0.0466 -0.6992
  128OSM   H15B13681   2.936   6.329   6.265 -0.6435 -0.0718 -0.0989
  128OSM   H15C13682   2.987   6.436   6.140 -0.6026  2.6579  0.5478
  128OSM    C1413683   2.888   6.608   6.310 -0.5020 -0.3500  1.1161
  128OSM   H14A13684   2.821   6.689   6.336 -0.5108  0.5539 -1.4765
  128OSM   H14B13685   2.969   6.638   6.246 -1.3920 -0.9186 -0.3154
  128OSM   H14C13686   2.932   6.573   6.403 -1.4258  1.1180  2.1559
  128OSM    C1313687   2.746   6.563   6.119  0.5558  0.0410  0.0134
  128OSM   H13A13688   2.678   6.632   6.168  1.0980  0.0783  0.7318
  128OSM   H13B13689   2.689   6.493   6.061  0.5700 -0.7429  0.9207
  128OSM   H13C13690   2.822   6.606   6.056  0.2269  0.5410 -0.0527
  128OSM    C1213691   2.707   6.451   6.342  0.3499  0.2304 -0.1759
  128OSM   H12A13692   2.760   6.423   6.432  0.1222 -1.6475 -0.5735
  128OSM   H12B13693   2.658   6.365   6.298  2.6625 -1.7561  0.8297
  128OSM    C1113694   2.603   6.555   6.392  0.0108  0.0916 -0.0546
  128OSM   H11A13695   2.655   6.642   6.437 -1.3803 -0.6702  3.2939
  128OSM   H11B13696   2.537   6.508   6.467 -0.3144 -0.9176 -0.9455
  128OSM      P13697   2.409   6.518   6.216  0.1103  0.1922  0.0917
  128OSM    O1313698   2.390   6.572   6.080  0.4622 -0.0224  0.1460
  128OSM    O1413699   2.450   6.376   6.221 -0.1483 -0.2528  0.7781
  128OSM    O1113700   2.273   6.537   6.298  0.3674 -0.1208  0.1099
  128OSM    O1213701   2.515   6.605   6.295  0.6486  0.5236  0.3143
  128OSM    C1S13702   2.242   6.463   6.415  0.0277  0.5317  0.4828
  128OSM    H1S13703   2.299   6.368   6.423 -0.5003  0.1298 -0.4314
  128OSM    H1T13704   2.135   6.433   6.407  0.3690 -1.1604  1.6741
  128OSM     NF13705   2.231   6.456   6.657  0.5925  0.4648  0.9459
  128OSM    HNF13706   2.144   6.455   6.707 -0.3925  2.0621 -0.6117
  128OSM    C2S13707   2.248   6.544   6.543  0.2904  0.5591  0.9723
  128OSM    H2S13708   2.344   6.596   6.561  0.1532  1.5361 -0.9008
  128OSM    C3S13709   2.151   6.658   6.553 -0.1429  0.2772  0.6827
  128OSM    H3S13710   2.044   6.627   6.552 -0.6077  1.7557 -1.3307
  128OSM     O313711   2.160   6.728   6.432 -0.0353 -0.3857 -0.5981
  128OSM    HO313712   2.221   6.677   6.378 -0.6750  0.8829 -2.6623
  128OSM    C4S13713   2.165   6.735   6.676 -0.2019 -0.2233 -0.0938
  128OSM    H4S13714   2.161   6.669   6.763  1.0200 -0.7655 -0.4305
  128OSM    C5S13715   2.219   6.862   6.687 -0.5586  0.4450  0.2074
  128OSM    H5S13716   2.253   6.914   6.596 -0.5999  0.3168  0.1195
  128OSM    C6S13717   2.264   6.938   6.809  0.1334  0.4126  0.5375
  128OSM    H6S13718   2.253   7.046   6.786 -1.7315  0.1098 -0.1827
  128OSM    H6T13719   2.371   6.916   6.828  0.4230  0.9652 -0.3493
  128OSM    C7S13720   2.176   6.911   6.931 -0.3117  0.1328  0.8644
  128OSM    H7S13721   2.187   6.811   6.978  0.0792  0.1486  0.8098
  128OSM    H7T13722   2.068   6.917   6.902 -0.4943 -2.8073  0.5805
  128OSM    C8S13723   2.189   7.016   7.044  0.0054 -0.2140 -0.2873
  128OSM    H8S13724   2.128   7.104   7.015  3.1722  2.2581  0.0889
  128OSM    H8T13725   2.289   7.058   7.065 -0.1463 -0.2095  0.4615
  128OSM    C9S13726   2.133   6.955   7.174  0.1028  0.5748 -0.5374
  128OSM    H9S13727   2.185   6.859   7.191 -2.5327 -0.7697  0.5016
  128OSM    H9T13728   2.027   6.927   7.159  0.6583 -0.9956 -1.7390
  128OSM   C10S13729   2.154   7.061   7.288  0.2812  0.3529 -0.4870
  128OSM   H10S13730   2.094   7.152   7.264 -1.8372 -0.1000  2.4777
  128OSM   H10T13731   2.259   7.095   7.301  0.2806 -0.0354  0.6484
  128OSM   C11S13732   2.103   6.997   7.425 -0.2007  0.1416  0.6157
  128OSM   H11S13733   2.140   6.893   7.437 -1.1720 -0.6151 -2.0841
  128OSM   H11T13734   1.992   6.988   7.417 -0.4125  2.4011  0.1006
  128OSM   C12S13735   2.138   7.096   7.545  1.1042 -0.8478  0.7475
  128OSM   H12S13736   2.104   7.199   7.523  0.0902 -0.8601  2.0859
  128OSM   H12T13737   2.248   7.093   7.557  1.1483 -0.0122  0.5777
  128OSM   C13S13738   2.082   7.043   7.675 -0.2041  0.4684 -0.2737
  128OSM   H13S13739   2.116   6.939   7.691 -1.8689 -0.4308 -2.0673
  128OSM   H13T13740   1.971   7.039   7.680 -0.1556 -0.7034  3.4233
  128OSM   C14S13741   2.128   7.130   7.789 -0.2965 -0.0705 -1.2058
  128OSM   H14S13742   2.123   7.237   7.760 -0.4742  0.6326  1.1704
  128OSM   H14T13743   2.238   7.118   7.803 -0.3082  0.8476 -0.1728
  128OSM   C15S13744   2.052   7.107   7.919 -0.6328  0.2033 -0.2305
  128OSM   H15S13745   2.078   7.003   7.948  0.8962  0.8249  0.7306
  128OSM   H15T13746   1.944   7.102   7.895 -0.4950 -3.4370 -0.5976
  128OSM   C16S13747   2.084   7.203   8.038 -0.5637 -0.5715 -0.2748
  128OSM   H16S13748   2.044   7.306   8.040 -1.9657 -1.0978  0.1079
  128OSM   H16T13749   2.195   7.203   8.035 -0.4157 -4.2732  0.2623
  128OSM   C17S13750   2.049   7.120   8.163  0.8913 -0.2477 -0.1439
  128OSM   H17S13751   2.118   7.033   8.163 -1.5198 -2.2966 -1.8854
  128OSM   H17T13752   1.948   7.080   8.140  0.6916 -0.3273  0.8100
  128OSM   C18S13753   2.056   7.188   8.302  0.1780  0.2803  0.1926
  128OSM   H18S13754   2.157   7.226   8.327  0.7393 -0.4352 -0.8767
  128OSM   H18T13755   2.033   7.108   8.376  1.7125 -0.6867 -0.3004
  128OSM   H18U13756   1.980   7.267   8.315 -0.0615  0.2867 -1.0601
  128OSM    C1F13757   2.333   6.372   6.697 -0.1444  0.4680 -0.1456
  128OSM     OF13758   2.446   6.385   6.649 -0.0509  0.1783  0.1085
  128OSM    C2F13759   2.294   6.261   6.792  0.1942 -0.1930  0.1661
  128OSM    H2F13760   2.287   6.163   6.741  0.8694 -0.5926  0.8085
  128OSM    H2G13761   2.197   6.295   6.834 -1.6920 -3.2818 -1.4216
  128OSM    C3F13762   2.394   6.258   6.911 -0.9430  0.7656  0.0034
  128OSM    H3F13763   2.379   6.346   6.977 -1.2912  0.0553  0.8821
  128OSM    H3G13764   2.502   6.271   6.889 -0.8081  1.5263  1.0416
  128OSM    C4F13765   2.378   6.137   7.003  0.1246 -0.1686 -0.4739
  128OSM    H4F13766   2.399   6.050   6.937  3.4252  1.6178 -2.0574
  128OSM    H4G13767   2.274   6.131   7.039  0.4786  0.9123  0.8193
  128OSM    C5F13768   2.478   6.138   7.120 -0.0659 -0.7400  0.7251
  128OSM    H5F13769   2.466   6.227   7.184 -3.3241 -0.4956 -0.0284
  128OSM    H5G13770   2.578   6.134   7.072 -1.4067 -3.0753 -2.2951
  128OSM    C6F13771   2.458   6.015   7.207 -0.1753 -0.7462  0.0689
  128OSM    H6F13772   2.544   6.004   7.276  0.2123  0.5232 -0.1847
  128OSM    H6G13773   2.443   5.934   7.132 -0.2161 -0.1057 -0.6279
  128OSM    C7F13774   2.318   6.006   7.282 -0.3710 -1.2166 -0.3258
  128OSM    H7F13775   2.241   6.014   7.203 -0.2875  1.3118 -0.2554
  128OSM    H7G13776   2.315   6.100   7.343 -0.1416 -1.7281  0.4968
  128OSM    C8F13777   2.289   5.878   7.352 -0.2075 -0.2609 -0.2512
  128OSM    H8F13778   2.293   5.798   7.275 -0.7885  1.0728 -1.7280
  128OSM    H8G13779   2.187   5.869   7.396 -0.0432  0.4031  0.2936
  128OSM    C9F13780   2.393   5.832   7.453  0.0513 -0.0223 -0.0837
  128OSM    H9F13781   2.433   5.731   7.438 -2.3020 -1.1896  0.9283
  128OSM   C10F13782   2.434   5.895   7.568  0.4347  0.6829 -0.2451
  128OSM   H10F13783   2.527   5.861   7.616  0.3583 -0.6178 -0.9678
  128OSM   C11F13784   2.378   6.021   7.622  0.4954  0.4003 -0.1859
  128OSM   H11F13785   2.373   6.012   7.733  1.1051 -1.2110 -0.2655
  128OSM   H11G13786   2.274   6.042   7.587 -0.1154 -0.7695  0.8264
  128OSM   C12F13787   2.458   6.140   7.607  0.2955  0.9566 -0.0988
  128OSM   H12F13788   2.434   6.183   7.507 -2.7914  1.3787  0.7084
  128OSM   H12G13789   2.566   6.118   7.616 -0.4991 -3.3785  1.1503
  128OSM   C13F13790   2.442   6.243   7.720  0.2446 -0.5004 -0.1808
  128OSM   H13F13791   2.335   6.248   7.751 -0.0600  4.2762 -1.2113
  128OSM   H13G13792   2.449   6.346   7.679 -1.0422  0.0492  0.9017
  128OSM   C14F13793   2.529   6.221   7.835 -0.7020  0.1499  0.1929
  128OSM   H14F13794   2.632   6.222   7.792  0.4933  0.8879  2.8754
  128OSM   H14G13795   2.508   6.125   7.887  0.4073  0.4878  1.3229
  128OSM   C15F13796   2.529   6.331   7.938 -0.4056 -0.3711 -0.3749
  128OSM   H15F13797   2.551   6.421   7.878  3.3708  0.0098  1.3335
  128OSM   H15G13798   2.609   6.300   8.008 -1.5400 -1.9329  0.3028
  128OSM   C16F13799   2.389   6.353   8.009 -0.2582 -0.1498  0.1901
  128OSM   H16F13800   2.309   6.355   7.933 -0.0456  1.0107 -0.0174
  128OSM   H16G13801   2.390   6.453   8.057  0.6711  0.3724 -0.8660
  128OSM   C17F13802   2.355   6.246   8.117 -0.3489 -0.3521  0.6816
  128OSM   H17F13803   2.358   6.148   8.064 -2.0214  1.4339 -3.0946
  128OSM   H17G13804   2.250   6.257   8.151 -1.0807  0.2184 -1.5849
  128OSM   C18F13805   2.443   6.264   8.239  0.4676  0.0792 -0.3925
  128OSM   H18F13806   2.431   6.370   8.271  2.5625  0.9060 -2.1076
  128OSM   H18G13807   2.552   6.256   8.221  0.5393  2.1896 -1.2946
  128OSM   H18H13808   2.406   6.190   8.313  0.7369 -0.0472 -0.3857
  129OSM      N13809   4.441   4.852   6.205 -0.2930 -0.3096  0.1333
  129OSM    C1513810   4.317   4.941   6.185  1.0253  0.2680  0.1204
  129OSM   H15A13811   4.341   5.017   6.112 -0.0556 -0.5257 -1.0971
  129OSM   H15B13812   4.288   4.988   6.278 -1.1747  1.8435 -1.2776
  129OSM   H15C13813   4.240   4.879   6.143  1.4181 -2.9977  3.6307
  129OSM    C1413814   4.545   4.959   6.242  0.2574  0.1818  0.3842
  129OSM   H14A13815   4.644   4.920   6.225  0.7206  0.6250  1.9039
  129OSM   H14B13816   4.529   4.998   6.342 -0.8012  1.7405 -0.3485
  129OSM   H14C13817   4.521   5.048   6.185 -0.0761 -0.8526 -1.1537
  129OSM    C1313818   4.431   4.769   6.329  0.0905  0.0518  0.4765
  129OSM   H13A13819   4.522   4.713   6.347 -0.5001 -0.2959  2.5812
  129OSM   H13B13820   4.356   4.692   6.319  0.6195 -0.4199  0.0895
  129OSM   H13C13821   4.404   4.831   6.413  0.4812  0.6230  0.1927
  129OSM    C1213822   4.470   4.770   6.082 -1.3686  0.4626 -0.2639
  129OSM   H12A13823   4.468   4.835   5.996  2.1704  2.1727  0.7384
  129OSM   H12B13824   4.390   4.698   6.074 -1.1867  0.2746 -0.4208
  129OSM    C1113825   4.595   4.683   6.094 -0.0546  0.4704 -0.1959
  129OSM   H11A13826   4.578   4.598   6.025  0.7979  1.1384 -1.2745
  129OSM   H11B13827   4.603   4.653   6.200 -2.0334  1.6791  0.3549
  129OSM      P13828   4.856   4.702   6.067 -0.0506 -0.3589 -0.1482
  129OSM    O1313829   4.866   4.582   5.979  0.2045  0.0634  0.1286
  129OSM    O1413830   4.944   4.823   6.044 -0.1522  0.3808 -0.2978
  129OSM    O1113831   4.871   4.660   6.225 -0.2834  0.2827 -0.4435
  129OSM    O1213832   4.710   4.763   6.055 -0.6775  0.3149 -1.0944
  129OSM    C1S13833   4.899   4.763   6.325 -0.1930  0.2852  0.8599
  129OSM    H1S13834   4.806   4.820   6.346 -1.4269 -1.7965  1.3166
  129OSM    H1T13835   4.987   4.823   6.296  0.1734  0.1990  1.7568
  129OSM     NF13836   4.951   4.771   6.574 -0.7817 -0.7703 -0.9543
  129OSM    HNF13837   5.040   4.760   6.617 -0.8826 -1.5062 -0.9343
  129OSM    C2S13838   4.932   4.685   6.457  0.6908  0.3075  0.1684
  129OSM    H2S13839   4.839   4.627   6.476  0.6050 -0.4571 -2.2877
  129OSM    C3S13840   5.051   4.573   6.440  0.0130 -0.6634 -0.6867
  129OSM    H3S13841   5.133   4.635   6.397 -0.5148 -0.0395 -0.8210
  129OSM     O313842   5.032   4.472   6.338  0.5658  0.3916  0.0637
  129OSM    HO313843   4.945   4.483   6.299  0.2113 -1.5600  0.2223
  129OSM    C4S13844   5.091   4.518   6.571 -0.0404  0.3054  0.0347
  129OSM    H4S13845   5.157   4.588   6.625  0.8894 -0.5760  0.0655
  129OSM    C5S13846   5.051   4.404   6.637 -0.0995  0.7161 -0.1861
  129OSM    H5S13847   4.978   4.335   6.592 -1.3295  2.3813 -0.8319
  129OSM    C6S13848   5.095   4.372   6.782  0.1740  0.8246  0.2275
  129OSM    H6S13849   5.140   4.272   6.769 -0.3220  0.7602 -1.1965
  129OSM    H6T13850   5.005   4.367   6.846  1.4647 -0.0153  2.0539
  129OSM    C7S13851   5.177   4.475   6.859 -0.2645  0.1673 -0.5238
  129OSM    H7S13852   5.127   4.573   6.872 -2.4571 -0.9982  0.4381
  129OSM    H7T13853   5.266   4.490   6.795  0.1649  0.4911  0.1345
  129OSM    C8S13854   5.217   4.415   6.995  0.3421  0.0191 -0.0098
  129OSM    H8S13855   5.301   4.484   7.017  0.0345  0.6293 -0.7354
  129OSM    H8T13856   5.248   4.308   7.000 -4.5976 -1.6728 -0.3272
  129OSM    C9S13857   5.121   4.445   7.103  0.4119 -0.0184 -0.3607
  129OSM    H9S13858   5.037   4.373   7.102  0.6652 -0.4532  2.3464
  129OSM    H9T13859   5.068   4.541   7.087 -0.6662  0.0882  3.1070
  129OSM   C10S13860   5.176   4.453   7.247  0.1333  0.5202  0.4365
  129OSM   H10S13861   5.241   4.542   7.263  0.1894  0.1291  2.6939
  129OSM   H10T13862   5.240   4.363   7.261 -1.0623 -0.8821 -2.2704
  129OSM   C11S13863   5.056   4.453   7.341  0.7167  0.6218 -0.9354
  129OSM   H11S13864   4.997   4.362   7.317  0.5130 -0.0515  1.7663
  129OSM   H11T13865   4.995   4.544   7.325  0.0308  0.2337 -0.5737
  129OSM   C12S13866   5.107   4.457   7.486 -0.2890  0.5542 -0.4437
  129OSM   H12S13867   5.183   4.535   7.507 -0.8308  0.6703  1.2064
  129OSM   H12T13868   5.171   4.367   7.496  1.9129  2.1786  1.1090
  129OSM   C13S13869   5.005   4.455   7.603  0.2464  0.0202 -0.1286
  129OSM   H13S13870   4.922   4.396   7.559  1.2465 -0.9824 -0.7148
  129OSM   H13T13871   4.945   4.548   7.617 -0.6016 -0.5900  0.4067
  129OSM   C14S13872   5.052   4.385   7.735 -0.3721 -0.1882  0.4309
  129OSM   H14S13873   5.155   4.423   7.751 -0.0209 -0.7318 -0.4791
  129OSM   H14T13874   5.084   4.281   7.712  1.8679  0.2607  1.2192
  129OSM   C15S13875   4.955   4.395   7.844  0.4400  0.4197 -0.7487
  129OSM   H15S13876   4.849   4.378   7.818  0.4123 -1.2719  0.3185
  129OSM   H15T13877   4.942   4.501   7.873 -1.9468 -0.0133 -0.0560
  129OSM   C16S13878   5.007   4.300   7.956 -0.1572  0.4271 -0.3768
  129OSM   H16S13879   5.095   4.358   7.991  0.0237  0.6599 -1.1941
  129OSM   H16T13880   5.039   4.202   7.915  1.7854 -0.2998  2.5204
  129OSM   C17S13881   4.909   4.270   8.067 -1.1835  0.1285  0.0167
  129OSM   H17S13882   4.811   4.236   8.027 -1.6924  0.6461  0.8218
  129OSM   H17T13883   4.895   4.368   8.117  3.0449  1.0528 -0.2390
  129OSM   C18S13884   4.961   4.171   8.177  0.9020 -0.5092  0.6721
  129OSM   H18S13885   5.022   4.096   8.122  0.3840  0.1491 -0.8574
  129OSM   H18T13886   4.875   4.116   8.222 -2.1286  1.1698 -2.5626
  129OSM   H18U13887   5.015   4.227   8.257 -1.5534  0.5219  1.6974
  129OSM    C1F13888   4.854   4.861   6.612 -0.8119  0.4548 -0.1514
  129OSM     OF13889   4.757   4.872   6.548  0.1898 -0.5567  0.0129
  129OSM    C2F13890   4.879   4.923   6.746 -0.2010 -0.6252 -1.0436
  129OSM    H2F13891   4.897   5.032   6.735 -2.3035 -0.2400 -1.0386
  129OSM    H2G13892   4.965   4.874   6.797  0.6335  1.2661 -0.5563
  129OSM    C3F13893   4.757   4.915   6.844 -0.7628  0.0048 -0.8322
  129OSM    H3F13894   4.705   4.818   6.833 -1.4440 -0.5154  4.5174
  129OSM    H3G13895   4.687   4.996   6.812 -1.3959 -1.2592 -2.7801
  129OSM    C4F13896   4.812   4.947   6.982 -0.7609 -0.0681 -0.4023
  129OSM    H4F13897   4.884   5.031   6.972 -2.5617  1.8262  1.3634
  129OSM    H4G13898   4.875   4.857   6.998 -1.3818 -0.5015 -0.3350
  129OSM    C5F13899   4.703   4.982   7.093 -0.5574  0.0118  0.1692
  129OSM    H5F13900   4.633   4.901   7.124 -0.2864  0.0607  0.9242
  129OSM    H5G13901   4.637   5.053   7.039 -2.3871 -1.8300 -0.1772
  129OSM    C6F13902   4.769   5.048   7.218 -0.0572 -0.1885  0.3213
  129OSM    H6F13903   4.685   5.097   7.272  0.3348  2.7571 -1.5015
  129OSM    H6G13904   4.839   5.129   7.188 -1.8626  1.4446  0.2872
  129OSM    C7F13905   4.847   4.941   7.297  0.1974  0.6619 -0.1318
  129OSM    H7F13906   4.913   5.014   7.349 -0.3652  1.3645 -0.3726
  129OSM    H7G13907   4.909   4.879   7.230 -1.3108 -1.5368  0.4201
  129OSM    C8F13908   4.757   4.868   7.396  0.3770 -0.5169 -0.1685
  129OSM    H8F13909   4.682   4.805   7.343 -2.4264  1.9888  0.5525
  129OSM    H8G13910   4.700   4.938   7.460  0.5360  1.0019 -1.6280
  129OSM    C9F13911   4.849   4.793   7.493  0.4251  0.7999 -0.2576
  129OSM    H9F13912   4.903   4.713   7.439  0.8097  1.6283 -1.1321
  129OSM   C10F13913   4.864   4.806   7.625  0.0346 -0.9611  0.8255
  129OSM   H10F13914   4.941   4.742   7.670  1.7895  0.8923  0.6091
  129OSM   C11F13915   4.801   4.911   7.710 -0.2493  0.0781 -0.4897
  129OSM   H11F13916   4.758   4.987   7.641  1.3322 -0.2009 -1.8565
  129OSM   H11G13917   4.878   4.962   7.773 -0.3239 -1.4218  0.8802
  129OSM   C12F13918   4.704   4.845   7.806 -0.5067 -0.2217 -0.1195
  129OSM   H12F13919   4.743   4.762   7.869 -0.8608  0.1454  0.5961
  129OSM   H12G13920   4.636   4.786   7.742  0.2715 -0.3164 -0.8780
  129OSM   C13F13921   4.632   4.944   7.895 -0.3145  0.0194  0.6435
  129OSM   H13F13922   4.578   4.997   7.814  0.9722  0.7434  0.2337
  129OSM   H13G13923   4.698   5.016   7.948 -0.7380  2.7628 -2.2357
  129OSM   C14F13924   4.530   4.887   7.995  0.0870  0.5179  0.0083
  129OSM   H14F13925   4.479   4.800   7.949 -0.5503  0.3072  1.0826
  129OSM   H14G13926   4.442   4.953   8.012  1.0285  1.3980  1.6674
  129OSM   C15F13927   4.601   4.861   8.128  0.5320  0.8041 -0.1987
  129OSM   H15F13928   4.532   4.892   8.210 -0.6125  0.4380 -0.9903
  129OSM   H15G13929   4.693   4.922   8.142 -0.0226  1.7817 -0.6952
  129OSM   C16F13930   4.629   4.709   8.142  0.4068 -0.3531  0.3079
  129OSM   H16F13931   4.679   4.669   8.052  0.5017  1.0758 -0.3026
  129OSM   H16G13932   4.527   4.664   8.147 -1.0592  2.3508 -2.1694
  129OSM   C17F13933   4.717   4.676   8.267 -0.4190 -0.6417 -0.3175
  129OSM   H17F13934   4.801   4.748   8.257 -1.5936  0.8531  0.2328
  129OSM   H17G13935   4.748   4.572   8.245  1.3449 -0.0987 -0.5481
  129OSM   C18F13936   4.647   4.660   8.399 -0.4849  0.1913 -0.1720
  129OSM   H18F13937   4.702   4.603   8.477 -2.4871  0.5127  1.5574
  129OSM   H18G13938   4.549   4.610   8.388 -0.6139  0.2461  0.6372
  129OSM   H18H13939   4.624   4.762   8.438 -0.1707  0.9329 -1.8150
  130OSM      N13940   3.198   5.916   5.846  0.8321  0.5845  0.2458
  130OSM    C1513941   3.128   6.023   5.777  0.3669  0.7299  0.2766
  130OSM   H15A13942   3.025   6.041   5.807  0.0436 -1.1445  0.4681
  130OSM   H15B13943   3.119   6.014   5.670 -0.9804  0.8930  0.3514
  130OSM   H15C13944   3.170   6.121   5.790  1.4794  0.3452 -0.2988
  130OSM    C1413945   3.140   5.776   5.840  0.2516  0.9677 -0.6295
  130OSM   H14A13946   3.206   5.698   5.874  0.8188  1.4870 -0.5144
  130OSM   H14B13947   3.117   5.753   5.737  1.6135 -1.1753 -0.5128
  130OSM   H14C13948   3.051   5.781   5.901 -0.6229  2.1270 -1.9377
  130OSM    C1313949   3.341   5.900   5.810 -0.2483 -0.5585 -0.1416
  130OSM   H13A13950   3.361   5.842   5.721  0.2373 -0.2995 -0.2112
  130OSM   H13B13951   3.395   5.835   5.878  0.1991  0.9470  1.0004
  130OSM   H13C13952   3.391   5.996   5.812  1.4991 -1.4207 -0.0594
  130OSM    C1213953   3.192   5.964   5.989  0.0079  0.3248  0.8460
  130OSM   H12A13954   3.242   5.881   6.038 -0.0906  0.7063  1.6155
  130OSM   H12B13955   3.088   5.958   6.019  0.8711 -1.0510  4.0468
  130OSM    C1113956   3.262   6.096   6.042  0.1049  0.1383 -0.2979
  130OSM   H11A13957   3.371   6.096   6.020  0.0764  1.5176 -0.4824
  130OSM   H11B13958   3.247   6.094   6.152  1.9606 -0.9386 -0.0224
  130OSM      P13959   3.280   6.360   6.015  0.3457  0.0061 -0.5893
  130OSM    O1313960   3.399   6.370   5.926  0.3085 -0.2760 -0.5281
  130OSM    O1413961   3.173   6.461   6.006  0.2375  0.2421 -0.5480
  130OSM    O1113962   3.327   6.345   6.168 -0.2526 -0.4280  0.2198
  130OSM    O1213963   3.207   6.219   5.993 -0.6502 -0.1804  0.1271
  130OSM    C1S13964   3.245   6.362   6.277 -0.0868 -0.9773 -0.2492
  130OSM    H1S13965   3.153   6.303   6.259 -0.9552  0.8603 -2.5052
  130OSM    H1T13966   3.206   6.466   6.285 -1.4776 -1.3886 -1.4301
  130OSM     NF13967   3.234   6.378   6.517  0.3515  0.0599 -0.0750
  130OSM    HNF13968   3.258   6.464   6.562  4.7692 -0.5768 -0.7173
  130OSM    C2S13969   3.320   6.335   6.411 -0.4407  0.6262 -0.5134
  130OSM    H2S13970   3.340   6.227   6.425  2.2752  1.0103 -0.8623
  130OSM    C3S13971   3.461   6.402   6.413  0.1024 -0.2770  1.0106
  130OSM    H3S13972   3.433   6.509   6.405  0.7265 -0.1533  0.3863
  130OSM     O313973   3.545   6.369   6.301  0.3702 -0.4002  0.2585
  130OSM    HO313974   3.489   6.330   6.234  0.5252 -2.1622  1.0919
  130OSM    C4S13975   3.530   6.382   6.548  0.3905  0.1306 -0.5224
  130OSM    H4S13976   3.494   6.447   6.629  3.1823 -2.6635  3.3406
  130OSM    C5S13977   3.625   6.289   6.583  0.2982 -0.3061  0.5141
  130OSM    H5S13978   3.649   6.211   6.509  0.5180  0.6902 -0.4948
  130OSM    C6S13979   3.684   6.282   6.720  0.0038 -0.2270 -0.6315
  130OSM    H6S13980   3.787   6.320   6.706 -0.2812 -0.0266 -2.3710
  130OSM    H6T13981   3.696   6.177   6.755  0.6890  0.9060  2.9855
  130OSM    C7S13982   3.614   6.366   6.824  0.2996  0.6064  0.0384
  130OSM    H7S13983   3.504   6.349   6.818  0.0793  2.0611 -0.4393
  130OSM    H7T13984   3.621   6.474   6.797 -3.2394  0.3600 -2.5776
  130OSM    C8S13985   3.652   6.342   6.969 -0.5338  0.1114 -0.9041
  130OSM    H8S13986   3.747   6.393   6.993 -0.2001 -1.4256  1.4063
  130OSM    H8T13987   3.676   6.233   6.976  0.8704  0.5001  1.4530
  130OSM    C9S13988   3.558   6.387   7.078  0.2227 -0.0549  0.0873
  130OSM    H9S13989   3.450   6.402   7.053 -0.4300 -1.0310  2.0762
  130OSM    H9T13990   3.592   6.488   7.109  0.5183  0.1418 -0.8350
  130OSM   C10S13991   3.557   6.290   7.191 -0.8400 -0.2898 -0.2478
  130OSM   H10S13992   3.665   6.269   7.207 -0.7812 -0.5658 -0.9503
  130OSM   H10T13993   3.503   6.199   7.156  2.2166 -2.9696  1.4757
  130OSM   C11S13994   3.501   6.342   7.323 -0.0400  0.5001 -0.1621
  130OSM   H11S13995   3.394   6.372   7.319  0.3176  2.9548  3.4712
  130OSM   H11T13996   3.551   6.437   7.350 -0.5284  0.9297 -0.7423
  130OSM   C12S13997   3.518   6.245   7.446  0.1959 -0.2050  0.5574
  130OSM   H12S13998   3.624   6.211   7.453  0.0614 -0.7395  0.0748
  130OSM   H12T13999   3.437   6.170   7.435  0.5556 -0.4752 -0.3249
  130OSM   C13S14000   3.476   6.312   7.582  0.0425 -0.5186  0.5903
  130OSM   H13S14001   3.368   6.334   7.580 -0.1902 -1.6194 -0.1646
  130OSM   H13T14002   3.532   6.408   7.582  2.7063 -1.8150 -3.5407
  130OSM   C14S14003   3.507   6.237   7.704 -0.4153  0.4490 -0.4407
  130OSM   H14S14004   3.615   6.212   7.710 -0.1840  1.3510 -0.6756
  130OSM   H14T14005   3.452   6.143   7.683  1.7257 -0.2539 -3.6839
  130OSM   C15S14006   3.457   6.301   7.833  0.3274 -0.1975  0.3716
  130OSM   H15S14007   3.351   6.329   7.817  0.1205 -1.0081  0.2651
  130OSM   H15T14008   3.517   6.392   7.853  0.4720 -0.4136  0.9455
  130OSM   C16S14009   3.457   6.218   7.963  0.1599  0.3358  1.2396
  130OSM   H16S14010   3.428   6.112   7.955 -1.5975  0.8654  0.1215
  130OSM   H16T14011   3.377   6.269   8.021  0.0720  1.7579 -0.0847
  130OSM   C17S14012   3.592   6.236   8.029  0.4263 -0.9050 -0.3389
  130OSM   H17S14013   3.609   6.345   8.042 -2.8108 -0.5071  1.7490
  130OSM   H17T14014   3.672   6.180   7.975 -0.2316 -1.8448 -0.3551
  130OSM   C18S14015   3.565   6.169   8.167  0.2180 -0.2445  0.3204
  130OSM   H18S14016   3.533   6.063   8.159  3.8423 -1.3572 -2.7008
  130OSM   H18T14017   3.486   6.230   8.215 -0.3705 -0.3675 -0.4677
  130OSM   H18U14018   3.660   6.171   8.225  0.8433  1.0264 -0.6713
  130OSM    C1F14019   3.131   6.310   6.558 -0.0184 -0.3311 -0.1879
  130OSM     OF14020   3.114   6.201   6.507  0.6780 -0.6605 -0.2207
  130OSM    C2F14021   3.045   6.367   6.676 -0.1001  0.6061  0.0540
  130OSM    H2F14022   2.964   6.428   6.631  0.2348  0.3652 -0.9168
  130OSM    H2G14023   3.112   6.437   6.731 -0.4765  0.4948  0.6595
  130OSM    C3F14024   2.991   6.248   6.763  0.9867  0.2580 -0.8154
  130OSM    H3F14025   3.075   6.184   6.796 -0.8155 -0.9240  1.9170
  130OSM    H3G14026   2.922   6.187   6.701 -1.4171  1.0450  0.8911
  130OSM    C4F14027   2.907   6.289   6.883 -0.0935 -1.0836  0.2994
  130OSM    H4F14028   2.857   6.203   6.931 -1.4569 -0.3270  0.2653
  130OSM    H4G14029   2.816   6.347   6.859 -0.8986 -1.6069  1.9620
  130OSM    C5F14030   2.980   6.379   6.975 -0.0626  0.2877  0.0649
  130OSM    H5F14031   3.011   6.475   6.926  2.7097 -1.2098 -1.3932
  130OSM    H5G14032   3.079   6.334   6.996  0.3555  0.1826 -1.8978
  130OSM    C6F14033   2.898   6.404   7.103 -0.7222 -1.0332 -0.2806
  130OSM    H6F14034   2.798   6.438   7.070  0.4010  0.4697 -2.4715
  130OSM    H6G14035   2.935   6.492   7.160  2.7861 -1.4717 -1.6260
  130OSM    C7F14036   2.883   6.283   7.198  0.1873  0.1616  0.7596
  130OSM    H7F14037   2.974   6.277   7.261  1.9090  0.1045 -1.5709
  130OSM    H7G14038   2.847   6.191   7.146 -1.3351  0.8179  0.6004
  130OSM    C8F14039   2.767   6.313   7.300 -0.4916 -0.2509 -0.0685
  130OSM    H8F14040   2.672   6.311   7.242  0.4044 -0.3332 -1.6081
  130OSM    H8G14041   2.770   6.418   7.335 -1.6320 -0.9530  2.3389
  130OSM    C9F14042   2.777   6.196   7.397  0.1431 -0.4481 -0.6346
  130OSM    H9F14043   2.751   6.096   7.359  0.1322 -0.7435  0.1438
  130OSM   C10F14044   2.807   6.213   7.524 -0.3690 -0.6048 -0.5218
  130OSM   H10F14045   2.813   6.125   7.590  0.7946  0.4107  0.8063
  130OSM   C11F14046   2.840   6.339   7.601 -0.0936 -0.2482  0.3966
  130OSM   H11F14047   2.748   6.376   7.652 -0.9004 -0.9463 -0.5009
  130OSM   H11G14048   2.868   6.426   7.537  0.6023  0.0939  1.1496
  130OSM   C12F14049   2.948   6.311   7.711 -0.1089 -1.0361 -0.2044
  130OSM   H12F14050   3.031   6.272   7.649  0.9485 -1.8925  1.6567
  130OSM   H12G14051   2.922   6.226   7.778  0.9542 -1.1863  0.0295
  130OSM   C13F14052   2.993   6.439   7.792 -0.3128  0.4665  0.4245
  130OSM   H13F14053   2.898   6.490   7.819 -2.0196 -1.9545 -0.7155
  130OSM   H13G14054   3.048   6.490   7.710  0.0339  1.9467  1.5117
  130OSM   C14F14055   3.085   6.401   7.905 -0.4677 -0.7185 -0.0441
  130OSM   H14F14056   3.174   6.468   7.894  0.2345 -1.8147 -1.2604
  130OSM   H14G14057   3.139   6.306   7.887  2.1822  0.3978  1.4244
  130OSM   C15F14058   3.008   6.422   8.034  0.0458  1.0351 -0.2667
  130OSM   H15F14059   2.962   6.522   8.044 -0.6459  0.5838  1.2855
  130OSM   H15G14060   3.075   6.412   8.122 -0.5476  1.3215  0.2222
  130OSM   C16F14061   2.898   6.316   8.055  0.1668  0.0551  0.0261
  130OSM   H16F14062   2.932   6.213   8.032  1.0245  0.2891  0.2092
  130OSM   H16G14063   2.817   6.335   7.981  0.4256 -0.1562 -0.3176
  130OSM   C17F14064   2.856   6.319   8.201 -0.2219  0.2600  0.1185
  130OSM   H17F14065   2.946   6.295   8.262 -1.4084 -0.5112  1.6388
  130OSM   H17G14066   2.789   6.233   8.225  0.8120 -0.6632 -0.2152
  130OSM   C18F14067   2.783   6.453   8.248 -0.5877  1.1649 -0.5183
  130OSM   H18F14068   2.849   6.540   8.223 -1.1341  1.4617 -0.9529
  130OSM   H18G14069   2.773   6.459   8.359  1.6858  0.9387 -0.2560
  130OSM   H18H14070   2.690   6.477   8.192 -1.1682  2.0999  0.7917
  131OSM      N14071   3.307   4.280   6.259 -0.4207  0.2384  0.3843
  131OSM    C1514072   3.356   4.261   6.116  0.2306 -0.5697 -1.0444
  131OSM   H15A14073   3.353   4.348   6.052 -0.5000  0.1706 -0.0458
  131OSM   H15B14074   3.299   4.189   6.059 -3.0827 -0.2104  1.4748
  131OSM   H15C14075   3.462   4.241   6.119  0.8130  2.1392  0.9051
  131OSM    C1414076   3.418   4.373   6.317 -1.1424  0.1575  0.1668
  131OSM   H14A14077   3.410   4.470   6.270 -0.7326  0.0988 -0.0293
  131OSM   H14B14078   3.519   4.338   6.301 -0.8567  0.6084  0.9593
  131OSM   H14C14079   3.406   4.382   6.423  2.1935  2.3032  0.5025
  131OSM    C1314080   3.184   4.352   6.266 -0.1091  0.8067 -0.0226
  131OSM   H13A14081   3.125   4.280   6.211  0.8260 -0.2087  0.2675
  131OSM   H13B14082   3.188   4.447   6.215  0.1565  0.8469  0.0672
  131OSM   H13C14083   3.146   4.349   6.367 -0.4847 -2.6007 -0.1501
  131OSM    C1214084   3.315   4.142   6.320  0.0248  0.3055 -0.6189
  131OSM   H12A14085   3.413   4.098   6.312 -1.6312 -4.0316  0.1098
  131OSM   H12B14086   3.258   4.076   6.256 -0.1755 -0.9068  0.7432
  131OSM    C1114087   3.273   4.137   6.463  0.5930 -0.0313 -0.2353
  131OSM   H11A14088   3.256   4.032   6.498  1.6815 -1.4693 -3.5982
  131OSM   H11B14089   3.173   4.185   6.468 -0.5070 -2.2509  1.4161
  131OSM      P14090   3.500   4.154   6.596 -0.0189 -0.5659 -0.1739
  131OSM    O1314091   3.550   4.042   6.520  0.0318 -0.6288  0.0108
  131OSM    O1414092   3.583   4.271   6.603 -0.4297 -0.1677  0.1866
  131OSM    O1114093   3.478   4.125   6.744  1.0183  0.4881  0.3170
  131OSM    O1214094   3.361   4.202   6.551 -0.3255  0.1185  0.1901
  131OSM    C1S14095   3.456   3.991   6.786 -0.0587  0.0763  0.8975
  131OSM    H1S14096   3.542   3.923   6.766 -1.5906 -1.4748 -0.8771
  131OSM    H1T14097   3.365   3.957   6.731 -0.1100  1.5994 -0.0179
  131OSM     NF14098   3.430   3.862   6.994 -0.0429  0.3895  0.2163
  131OSM    HNF14099   3.344   3.811   7.001 -0.0463  0.3988  0.2446
  131OSM    C2S14100   3.431   3.995   6.937 -0.2460 -0.0180  0.0139
  131OSM    H2S14101   3.517   4.050   6.980 -2.2209  0.9913  2.9373
  131OSM    C3S14102   3.304   4.082   6.980 -0.6011 -0.1108  0.3657
  131OSM    H3S14103   3.219   4.040   6.922 -0.3569  0.6897 -0.6075
  131OSM     O314104   3.312   4.213   6.936  0.0940  0.2689  0.7875
  131OSM    HO314105   3.398   4.208   6.894  0.5240 -2.4998  1.8609
  131OSM    C4S14106   3.279   4.084   7.124 -0.3658 -0.5889  0.4937
  131OSM    H4S14107   3.349   4.143   7.185 -1.0384  0.6437  0.0960
  131OSM    C5S14108   3.181   4.022   7.182  0.4886  0.2676 -0.7460
  131OSM    H5S14109   3.119   3.950   7.127 -0.4448 -1.1732  2.0145
  131OSM    C6S14110   3.158   4.004   7.324 -0.2881 -0.2403  0.9062
  131OSM    H6S14111   3.182   3.896   7.338 -0.9265 -0.6838 -1.1221
  131OSM    H6T14112   3.048   4.005   7.335 -0.5925 -0.9237 -1.4487
  131OSM    C7S14113   3.228   4.101   7.419 -0.4268  0.4266 -0.8386
  131OSM    H7S14114   3.211   4.204   7.382 -2.2226  0.6360  0.4155
  131OSM    H7T14115   3.338   4.088   7.423 -0.3689  1.1406  0.3073
  131OSM    C8S14116   3.174   4.085   7.561 -0.2391  0.2366 -0.9606
  131OSM    H8S14117   3.139   3.982   7.580 -1.1558  0.2527 -2.3780
  131OSM    H8T14118   3.088   4.156   7.564  0.1215  0.6678  1.5679
  131OSM    C9S14119   3.270   4.143   7.669 -0.0605  0.6170 -0.0614
  131OSM    H9S14120   3.209   4.162   7.760 -1.6782  0.7291 -1.1243
  131OSM    H9T14121   3.313   4.241   7.639 -0.2577  0.5590 -0.5460
  131OSM   C10S14122   3.379   4.055   7.730  0.7635  0.3265  0.6945
  131OSM   H10S14123   3.437   4.015   7.644  1.3098  0.9987  0.7308
  131OSM   H10T14124   3.324   3.968   7.770  1.1077 -1.2704 -2.0893
  131OSM   C11S14125   3.471   4.121   7.828  0.1201 -0.3713 -0.0712
  131OSM   H11S14126   3.420   4.135   7.925  2.6648  1.3382  1.1470
  131OSM   H11T14127   3.498   4.222   7.790 -0.5760 -0.5909 -1.1955
  131OSM   C12S14128   3.603   4.039   7.835 -0.3159 -0.3006  0.2377
  131OSM   H12S14129   3.648   4.023   7.735  0.2251 -1.8930  0.7059
  131OSM   H12T14130   3.585   3.937   7.876 -0.3363 -1.3491 -2.2490
  131OSM   C13S14131   3.706   4.118   7.927  0.1278 -0.3614  0.2216
  131OSM   H13S14132   3.799   4.057   7.934  0.1371 -0.2943  0.7128
  131OSM   H13T14133   3.652   4.131   8.023 -0.2383 -1.7612  0.2322
  131OSM   C14S14134   3.748   4.253   7.863  0.1347  0.2788 -1.0622
  131OSM   H14S14135   3.666   4.326   7.878  1.0626  0.7705  2.7157
  131OSM   H14T14136   3.741   4.239   7.753 -3.0099 -1.9765 -0.7102
  131OSM   C15S14137   3.887   4.304   7.905  0.0603  0.6928  0.8735
  131OSM   H15S14138   3.917   4.256   8.001 -0.2249 -0.6163  0.3350
  131OSM   H15T14139   3.869   4.412   7.925 -1.3919  0.5936  0.1990
  131OSM   C16S14140   3.982   4.281   7.787 -0.6015 -0.0183  0.7037
  131OSM   H16S14141   4.073   4.341   7.805  0.0165 -1.5177  2.9561
  131OSM   H16T14142   3.929   4.326   7.700 -4.0857 -0.1174  2.5820
  131OSM   C17S14143   4.022   4.131   7.757 -0.0034 -0.2528 -0.1259
  131OSM   H17S14144   3.927   4.083   7.723  0.4439 -2.0537  0.9789
  131OSM   H17T14145   4.064   4.082   7.847  2.0083  1.7965  0.1262
  131OSM   C18S14146   4.127   4.107   7.646  0.7631 -0.0038  0.5803
  131OSM   H18S14147   4.086   4.138   7.548 -0.4320  1.1642  1.4130
  131OSM   H18T14148   4.164   4.003   7.638  0.9234 -0.0303  1.5206
  131OSM   H18U14149   4.214   4.176   7.657  0.6010  0.3958 -0.5101
  131OSM    C1F14150   3.540   3.788   7.018 -0.3863  0.5329 -0.2596
  131OSM     OF14151   3.657   3.830   7.005  0.4384 -0.7014 -0.1465
  131OSM    C2F14152   3.520   3.647   7.054  0.0403 -0.3866 -0.4064
  131OSM    H2F14153   3.601   3.588   7.006 -0.1840  0.6133 -2.0987
  131OSM    H2G14154   3.422   3.611   7.017 -1.8753  1.9575  1.9582
  131OSM    C3F14155   3.536   3.624   7.205 -0.1298 -0.4546  0.9492
  131OSM    H3F14156   3.639   3.660   7.225 -0.0388  0.4916 -1.0449
  131OSM    H3G14157   3.529   3.515   7.228  0.5156 -1.8131 -4.0429
  131OSM    C4F14158   3.431   3.703   7.286  0.0472 -0.2215  0.2834
  131OSM    H4F14159   3.328   3.682   7.250  0.4450 -2.7992  0.4779
  131OSM    H4G14160   3.434   3.813   7.271 -2.2298 -0.2088 -0.4663
  131OSM    C5F14161   3.451   3.672   7.430 -0.8724  0.4989 -0.1099
  131OSM    H5F14162   3.538   3.724   7.475 -2.0051  1.5696  0.8985
  131OSM    H5G14163   3.453   3.562   7.447  0.9093  0.5377  0.1126
  131OSM    C6F14164   3.335   3.722   7.524 -0.3213 -0.0164  0.7774
  131OSM    H6F14165   3.230   3.713   7.489  0.2380  1.0764 -1.3744
  131OSM    H6G14166   3.359   3.829   7.541 -2.7687  0.5263  1.2254
  131OSM    C7F14167   3.326   3.650   7.652 -0.9387 -0.1882  0.0542
  131OSM    H7F14168   3.321   3.540   7.633  1.2077 -0.1086 -1.3866
  131OSM    H7G14169   3.238   3.693   7.704 -1.8479 -2.4532  0.4999
  131OSM    C8F14170   3.458   3.670   7.736  0.1511  0.3252 -0.7755
  131OSM    H8F14171   3.485   3.776   7.753 -0.0426 -0.1408  3.7699
  131OSM    H8G14172   3.532   3.627   7.666 -0.8944 -0.2966 -1.5276
  131OSM    C9F14173   3.466   3.584   7.858  0.0988 -0.0025 -0.0943
  131OSM    H9F14174   3.407   3.491   7.850  1.3233 -0.8939  0.8354
  131OSM   C10F14175   3.536   3.601   7.968  0.1405 -0.7640  0.2023
  131OSM   H10F14176   3.533   3.518   8.040 -0.6028 -0.3419  0.6823
  131OSM   C11F14177   3.627   3.711   7.992  0.4430  0.3711 -0.1980
  131OSM   H11F14178   3.570   3.798   8.032 -3.0585 -1.1185 -1.5154
  131OSM   H11G14179   3.671   3.744   7.895 -0.0364  1.7326  0.0197
  131OSM   C12F14180   3.752   3.664   8.079  0.6789  0.1962  0.4313
  131OSM   H12F14181   3.816   3.601   8.013  1.3005  1.0303  0.2089
  131OSM   H12G14182   3.715   3.615   8.172 -1.4818  0.7852 -0.0646
  131OSM   C13F14183   3.834   3.783   8.130  0.5676 -0.1189  0.1158
  131OSM   H13F14184   3.764   3.845   8.190  1.0131 -0.8898  1.4701
  131OSM   H13G14185   3.861   3.839   8.038 -1.8882  2.6905  0.9549
  131OSM   C14F14186   3.977   3.753   8.192  0.2459  0.8204  0.0936
  131OSM   H14F14187   4.041   3.719   8.108 -1.8728  1.6607 -1.9568
  131OSM   H14G14188   3.964   3.668   8.262 -3.1828 -0.5983 -2.0387
  131OSM   C15F14189   4.047   3.875   8.249 -0.4966 -0.3490  0.2358
  131OSM   H15F14190   4.072   3.949   8.171  2.4910 -0.5905  0.8382
  131OSM   H15G14191   4.141   3.829   8.286 -2.3916 -1.2618  4.6448
  131OSM   C16F14192   3.968   3.923   8.375 -0.5193  0.3743  0.0985
  131OSM   H16F14193   3.930   3.835   8.431 -1.1627  0.3375 -0.3855
  131OSM   H16G14194   3.883   3.984   8.339  0.9768  2.9223  0.6301
  131OSM   C17F14195   4.056   4.005   8.467  0.4908  0.0401  0.0376
  131OSM   H17F14196   4.128   3.930   8.505  0.4899 -0.8087 -1.5673
  131OSM   H17G14197   3.991   4.040   8.550 -1.4275 -0.2833 -1.2597
  131OSM   C18F14198   4.134   4.117   8.405  0.0555  0.7719 -0.3552
  131OSM   H18F14199   4.065   4.181   8.346 -1.4569  1.2117  1.7999
  131OSM   H18G14200   4.208   4.072   8.335 -0.3599  0.9471 -0.9087
  131OSM   H18H14201   4.192   4.182   8.474  0.0849  0.1520  0.2203
  132OSM      N14202   5.902   2.841   5.682 -0.3557 -0.0894 -0.6436
  132OSM    C1514203   5.843   2.732   5.603 -0.2123 -0.3712  0.0967
  132OSM   H15A14204   5.816   2.759   5.502  3.7814  1.3346 -0.7244
  132OSM   H15B14205   5.758   2.692   5.656  0.6097 -0.3746  1.4609
  132OSM   H15C14206   5.906   2.645   5.588  0.9574  0.3261  0.8123
  132OSM    C1414207   6.037   2.875   5.624  0.0025 -0.0496 -0.1936
  132OSM   H14A14208   6.065   2.976   5.653  1.1128 -0.7457  1.2652
  132OSM   H14B14209   6.031   2.864   5.517 -0.3580 -3.0164  0.0512
  132OSM   H14C14210   6.104   2.797   5.655 -0.5200  0.1679  1.6301
  132OSM    C1314211   5.802   2.952   5.673 -0.3346 -0.3405  0.4938
  132OSM   H13A14212   5.845   3.032   5.731  0.4704 -1.7194  1.8547
  132OSM   H13B14213   5.705   2.930   5.716 -1.1126  0.6624 -0.6801
  132OSM   H13C14214   5.785   2.983   5.571  3.0797 -0.9700 -0.3908
  132OSM    C1214215   5.917   2.792   5.829 -0.3368 -0.1501 -0.3389
  132OSM   H12A14216   5.987   2.710   5.822 -0.0153 -0.4119  3.5132
  132OSM   H12B14217   5.825   2.746   5.861 -0.7352 -0.7248 -2.1779
  132OSM    C1114218   5.974   2.887   5.932  0.5893 -0.2200  0.6967
  132OSM   H11A14219   6.085   2.886   5.924  0.5327  0.6715 -0.2364
  132OSM   H11B14220   5.954   2.837   6.030 -0.7243 -0.5710  0.2709
  132OSM      P14221   6.018   3.141   5.957  0.5332  0.3172 -0.5579
  132OSM    O1314222   6.139   3.134   5.867  0.3327 -0.5747  0.2435
  132OSM    O1414223   5.942   3.265   5.958  0.0432 -0.3724  0.0810
  132OSM    O1114224   6.057   3.114   6.109 -0.0241  0.1000  0.6115
  132OSM    O1214225   5.919   3.020   5.930 -0.2396  0.3674  0.2731
  132OSM    C1S14226   5.981   3.055   6.223  0.2718 -0.1761 -0.8271
  132OSM    H1S14227   6.000   2.947   6.204  3.0736  0.6984 -3.9652
  132OSM    H1T14228   5.873   3.081   6.223  0.3636  0.2177 -0.0401
  132OSM     NF14229   5.982   3.025   6.482 -0.2509  0.4083 -0.2365
  132OSM    HNF14230   5.898   3.062   6.520 -1.2878 -0.4198 -1.6317
  132OSM    C2S14231   6.037   3.098   6.363  0.0229 -0.3784 -0.2994
  132OSM    H2S14232   6.148   3.100   6.361  0.0080  0.2930 -0.7263
  132OSM    C3S14233   6.019   3.257   6.376 -0.0843 -0.0324  0.1476
  132OSM    H3S14234   5.910   3.279   6.383  0.1737  1.4632 -0.2816
  132OSM     O314235   6.064   3.325   6.260  0.0807  0.0341  0.1559
  132OSM    HO314236   6.073   3.256   6.194  1.4039 -1.1770  1.4895
  132OSM    C4S14237   6.081   3.296   6.512  0.6291  0.1810  0.3122
  132OSM    H4S14238   6.007   3.332   6.585 -1.8388 -1.6010 -1.1123
  132OSM    C5S14239   6.212   3.289   6.543 -0.2885  0.2205 -0.1518
  132OSM    H5S14240   6.281   3.251   6.467 -1.6447  0.0975 -1.3635
  132OSM    C6S14241   6.269   3.322   6.678  0.4303  0.0758  0.1315
  132OSM    H6S14242   6.319   3.422   6.686 -0.0927  0.2210  2.6814
  132OSM    H6T14243   6.336   3.246   6.725  2.1608  1.8154  0.6284
  132OSM    C7S14244   6.155   3.323   6.784 -0.1854  0.5792 -0.1809
  132OSM    H7S14245   6.107   3.223   6.787  0.8041  0.0023 -1.7949
  132OSM    H7T14246   6.085   3.408   6.772  0.1543  0.8474 -0.2841
  132OSM    C8S14247   6.214   3.351   6.918 -0.2871 -0.5070 -0.1180
  132OSM    H8S14248   6.265   3.450   6.916 -0.6381 -0.2060  2.2960
  132OSM    H8T14249   6.289   3.272   6.941  1.2433  1.0180  0.4132
  132OSM    C9S14250   6.109   3.360   7.034 -0.3646  0.8547 -0.1243
  132OSM    H9S14251   6.069   3.265   7.075 -2.9601  2.2932  0.9106
  132OSM    H9T14252   6.021   3.415   6.995  0.1136  1.5142 -0.3091
  132OSM   C10S14253   6.172   3.428   7.156 -0.0994  0.1435  0.1981
  132OSM   H10S14254   6.158   3.535   7.126 -3.1915 -0.5821 -1.3135
  132OSM   H10T14255   6.281   3.407   7.168 -0.3668 -0.6644  1.2937
  132OSM   C11S14256   6.110   3.387   7.286 -0.6989  0.0257  0.0427
  132OSM   H11S14257   6.137   3.283   7.316  0.0789  0.6488  1.6497
  132OSM   H11T14258   6.000   3.397   7.269 -0.6108  0.7778 -0.1250
  132OSM   C12S14259   6.154   3.470   7.403 -0.1831 -0.1146  1.0063
  132OSM   H12S14260   6.157   3.578   7.377  1.4764 -0.4813 -0.5345
  132OSM   H12T14261   6.259   3.443   7.428 -0.5057 -2.9288 -0.2970
  132OSM   C13S14262   6.060   3.448   7.521 -0.0143  0.4328 -0.1918
  132OSM   H13S14263   6.062   3.343   7.557 -1.5413  0.6540  0.6202
  132OSM   H13T14264   5.956   3.468   7.490 -1.0094 -1.8658  1.3707
  132OSM   C14S14265   6.093   3.548   7.632 -0.0296 -0.2295  0.0711
  132OSM   H14S14266   6.046   3.644   7.601  0.5945  0.1804  0.3840
  132OSM   H14T14267   6.202   3.556   7.648  0.2142 -3.1485  0.4996
  132OSM   C15S14268   6.031   3.501   7.765 -0.4087 -0.2832 -0.7744
  132OSM   H15S14269   6.073   3.401   7.789  0.9592  0.9782  2.5773
  132OSM   H15T14270   5.921   3.487   7.754 -1.1449  0.7938  3.6100
  132OSM   C16S14271   6.066   3.595   7.881  0.1354  0.2407 -1.1526
  132OSM   H16S14272   6.068   3.700   7.845 -0.6526  0.4237 -0.6790
  132OSM   H16T14273   6.165   3.559   7.916 -0.6640 -0.2299  0.7425
  132OSM   C17S14274   5.969   3.580   8.000 -0.4341 -0.0400 -0.1454
  132OSM   H17S14275   5.969   3.473   8.031  1.3235  0.1975  0.8420
  132OSM   H17T14276   5.870   3.605   7.958  0.4875  2.2433 -1.1049
  132OSM   C18S14277   6.012   3.656   8.128 -0.2593 -0.2842  0.6942
  132OSM   H18S14278   5.935   3.654   8.208 -0.9037  1.2685  0.1455
  132OSM   H18T14279   6.033   3.761   8.099  0.1245 -0.3447  0.7491
  132OSM   H18U14280   6.112   3.622   8.162  0.5397  1.9503  0.7484
  132OSM    C1F14281   6.038   2.910   6.514  0.9926  0.1497  0.5220
  132OSM     OF14282   6.103   2.850   6.435 -0.2302  1.0306 -0.4362
  132OSM    C2F14283   6.010   2.866   6.655 -0.1194 -0.4488 -0.7461
  132OSM    H2F14284   5.993   2.758   6.638 -1.2231 -0.1684 -1.5102
  132OSM    H2G14285   5.913   2.913   6.683 -0.1862 -1.2384  0.4316
  132OSM    C3F14286   6.109   2.911   6.756  0.3858  0.0974 -0.0281
  132OSM    H3F14287   6.108   3.021   6.771  0.9171 -0.0465  1.2685
  132OSM    H3G14288   6.211   2.888   6.719  1.3238 -0.2091  2.5026
  132OSM    C4F14289   6.097   2.860   6.900  0.0839  0.1711 -0.7049
  132OSM    H4F14290   6.088   2.749   6.909  2.5676  0.0121  0.5519
  132OSM    H4G14291   6.012   2.920   6.940  0.9966  1.3487 -0.4999
  132OSM    C5F14292   6.206   2.916   6.997  0.9519  0.4843  0.1576
  132OSM    H5F14293   6.228   3.025   6.994  1.2267  0.4404  0.4436
  132OSM    H5G14294   6.305   2.866   6.984  0.4302 -0.9090  1.1867
  132OSM    C6F14295   6.167   2.869   7.140  0.8179  0.2104  0.3680
  132OSM    H6F14296   6.227   2.781   7.172  1.7506  1.3864  2.0093
  132OSM    H6G14297   6.061   2.836   7.142  0.4443  1.3918  1.8104
  132OSM    C7F14298   6.181   2.961   7.260  0.0470 -0.2454 -1.1934
  132OSM    H7F14299   6.129   3.059   7.252 -0.9318 -0.3898  2.1141
  132OSM    H7G14300   6.289   2.989   7.261 -0.2130  0.7622  0.1754
  132OSM    C8F14301   6.142   2.895   7.396 -0.1940  0.2241  0.5891
  132OSM    H8F14302   6.171   2.787   7.394 -1.0175  0.0049  0.2362
  132OSM    H8G14303   6.032   2.887   7.399 -0.3805 -0.4953 -3.2117
  132OSM    C9F14304   6.171   2.973   7.518  0.1482  0.4532  0.5097
  132OSM    H9F14305   6.085   2.989   7.585 -0.7728  3.6513 -1.2278
  132OSM   C10F14306   6.295   3.013   7.552  0.2388  0.7899 -0.4458
  132OSM   H10F14307   6.305   3.076   7.641  0.6913 -0.7288  0.6284
  132OSM   C11F14308   6.423   3.009   7.479 -0.0155 -0.7268 -0.0224
  132OSM   H11F14309   6.418   2.930   7.401  0.3261 -0.2311 -0.5538
  132OSM   H11G14310   6.499   2.968   7.550 -1.8272 -1.0692  1.8068
  132OSM   C12F14311   6.473   3.144   7.419  0.1767  1.2387  0.4410
  132OSM   H12F14312   6.403   3.179   7.340  1.1098  2.2207  0.0236
  132OSM   H12G14313   6.568   3.103   7.380 -1.1081 -0.1735 -1.3991
  132OSM   C13F14314   6.518   3.246   7.518 -0.0347  0.5284 -0.2153
  132OSM   H13F14315   6.424   3.279   7.566 -1.5490 -1.4909 -1.6180
  132OSM   H13G14316   6.559   3.337   7.468  0.1677  1.0039  0.7912
  132OSM   C14F14317   6.618   3.204   7.625  0.5768  0.2630  0.0035
  132OSM   H14F14318   6.722   3.192   7.587  1.3502 -1.3263  2.4090
  132OSM   H14G14319   6.599   3.104   7.669 -0.4689 -0.7261 -2.4834
  132OSM   C15F14320   6.621   3.315   7.739  0.4275  0.3907  0.2830
  132OSM   H15F14321   6.660   3.274   7.834 -0.2854 -1.0225  0.0007
  132OSM   H15G14322   6.522   3.358   7.763  0.4992  1.1215 -0.6343
  132OSM   C16F14323   6.706   3.441   7.718 -0.5399  0.3130  0.8045
  132OSM   H16F14324   6.663   3.518   7.650 -0.6017  0.5126  1.0671
  132OSM   H16G14325   6.796   3.400   7.666  0.1695  0.2866  2.0126
  132OSM   C17F14326   6.756   3.516   7.837  0.5163 -0.6603 -0.3524
  132OSM   H17F14327   6.824   3.599   7.806 -1.3330  0.5819 -1.2265
  132OSM   H17G14328   6.831   3.452   7.888  0.5720 -1.5496 -1.5147
  132OSM   C18F14329   6.655   3.566   7.936 -0.2466  0.0513 -0.0604
  132OSM   H18F14330   6.579   3.631   7.886 -1.7609 -1.6259 -0.0480
  132OSM   H18G14331   6.700   3.632   8.014 -0.6174  1.3883 -0.9313
  132OSM   H18H14332   6.593   3.483   7.976 -1.8447  2.2718  2.4408
  133OSM      N14333   6.342   2.227   5.804  0.2751  0.4063 -0.1810
  133OSM    C1514334   6.277   2.095   5.756 -0.0592 -0.2519 -0.4800
  133OSM   H15A14335   6.316   2.061   5.661 -0.5582  3.1809 -2.0696
  133OSM   H15B14336   6.171   2.109   5.750 -0.1230 -0.3238  0.3236
  133OSM   H15C14337   6.288   2.025   5.838 -1.3115  1.9792  1.7340
  133OSM    C1414338   6.264   2.264   5.931 -0.4002 -0.2286 -0.0277
  133OSM   H14A14339   6.266   2.180   6.000 -1.8459  1.2549  1.9585
  133OSM   H14B14340   6.158   2.277   5.911 -0.9804  0.4869  3.0119
  133OSM   H14C14341   6.300   2.357   5.972 -1.3075  0.2762 -0.3348
  133OSM    C1314342   6.482   2.188   5.842  0.4986 -0.8773 -0.0567
  133OSM   H13A14343   6.546   2.150   5.764  0.4673  0.1997 -0.6313
  133OSM   H13B14344   6.476   2.125   5.929 -1.2109 -1.0698 -0.2692
  133OSM   H13C14345   6.529   2.276   5.884  1.5601 -1.9949  1.1956
  133OSM    C1214346   6.322   2.326   5.689  0.0787  0.4802 -0.2747
  133OSM   H12A14347   6.217   2.350   5.679 -0.1006  0.7108  1.7461
  133OSM   H12B14348   6.360   2.276   5.602  0.8407 -0.5283  0.6192
  133OSM    C1114349   6.409   2.457   5.712 -0.5712  0.6464  0.2956
  133OSM   H11A14350   6.411   2.524   5.623  1.7860  1.6900  1.0362
  133OSM   H11B14351   6.517   2.432   5.724 -0.7273  1.0341  3.3666
  133OSM      P14352   6.264   2.629   5.843 -0.7829  0.1565  0.0562
  133OSM    O1314353   6.265   2.726   5.727  1.0056  0.4309 -0.0629
  133OSM    O1414354   6.135   2.564   5.873  0.1502 -0.2412  0.3381
  133OSM    O1114355   6.305   2.705   5.977 -0.4285 -0.3410 -0.2053
  133OSM    O1214356   6.373   2.525   5.832  0.5437  0.1175  0.3762
  133OSM    C1S14357   6.274   2.667   6.110  0.1541  0.8793  0.7925
  133OSM    H1S14358   6.263   2.556   6.117 -0.9585  0.8567 -0.7360
  133OSM    H1T14359   6.179   2.719   6.135  0.3743  1.7300 -0.1004
  133OSM     NF14360   6.370   2.652   6.339  0.4375 -0.1138  0.3552
  133OSM    HNF14361   6.306   2.701   6.398  0.1647 -0.4306  0.3213
  133OSM    C2S14362   6.389   2.715   6.202  0.4104  0.2186 -0.2654
  133OSM    H2S14363   6.480   2.678   6.150  0.6723  0.0322  0.3235
  133OSM    C3S14364   6.397   2.867   6.217  1.0611 -0.0592 -0.5120
  133OSM    H3S14365   6.297   2.912   6.236  0.9281 -0.8797  0.8212
  133OSM     O314366   6.425   2.932   6.097 -0.0538 -0.2256  0.0400
  133OSM    HO314367   6.381   2.872   6.037 -0.4310  1.5929 -1.5905
  133OSM    C4S14368   6.493   2.902   6.315 -0.4367 -0.2847 -0.7143
  133OSM    H4S14369   6.598   2.880   6.291  0.0042  1.9592 -1.0996
  133OSM    C5S14370   6.466   2.973   6.426 -0.7114  0.8930 -0.5645
  133OSM    H5S14371   6.361   2.998   6.449 -1.1622 -0.3526 -1.1812
  133OSM    C6S14372   6.560   3.027   6.527 -0.3812  0.3529  0.2235
  133OSM    H6S14373   6.560   3.138   6.520 -0.4131  0.4310  1.2560
  133OSM    H6T14374   6.665   2.992   6.512  0.1998  0.2450  3.6783
  133OSM    C7S14375   6.514   2.981   6.670  0.2771  0.5328 -0.4467
  133OSM    H7S14376   6.474   2.877   6.675  1.4844  0.0362 -0.7665
  133OSM    H7T14377   6.438   3.045   6.719  1.9643  2.7271 -0.5631
  133OSM    C8S14378   6.628   2.971   6.766 -0.8529  0.3357 -0.7928
  133OSM    H8S14379   6.683   3.068   6.767 -1.0832  0.4701 -0.9512
  133OSM    H8T14380   6.698   2.894   6.727  0.4670  0.8874  0.4319
  133OSM    C9S14381   6.593   2.935   6.916 -0.4938  0.5739  0.3343
  133OSM    H9S14382   6.543   2.836   6.929 -0.5403  0.7417  1.4671
  133OSM    H9T14383   6.517   3.005   6.957 -1.2950  1.1727 -1.9608
  133OSM   C10S14384   6.713   2.943   7.009  0.5709 -0.6289 -0.0843
  133OSM   H10S14385   6.758   3.045   7.005  0.8645 -0.7854 -3.0805
  133OSM   H10T14386   6.789   2.874   6.968  1.7893  0.4995  0.1943
  133OSM   C11S14387   6.679   2.896   7.150  0.4580  0.0174 -0.6480
  133OSM   H11S14388   6.651   2.788   7.143 -0.8936  0.4206 -2.4623
  133OSM   H11T14389   6.592   2.958   7.181  1.2108  1.6288 -1.6393
  133OSM   C12S14390   6.785   2.917   7.255 -0.5172 -0.5724  0.4536
  133OSM   H12S14391   6.794   3.027   7.269 -1.7968 -0.6220  1.9885
  133OSM   H12T14392   6.883   2.877   7.222  0.5875  0.6324  2.0829
  133OSM   C13S14393   6.761   2.852   7.394 -0.1474 -0.1407  0.2059
  133OSM   H13S14394   6.735   2.747   7.372 -2.9444 -0.0461  2.3601
  133OSM   H13T14395   6.666   2.895   7.435  0.8076  1.5160  0.7995
  133OSM   C14S14396   6.872   2.877   7.493 -0.5687 -0.3544 -0.2419
  133OSM   H14S14397   6.905   2.983   7.484  0.3654 -0.5619  0.5595
  133OSM   H14T14398   6.956   2.806   7.479  0.1955  0.4596  0.1407
  133OSM   C15S14399   6.820   2.863   7.638  0.0870  0.9911  0.7832
  133OSM   H15S14400   6.741   2.942   7.645 -1.2470  0.1405 -2.5043
  133OSM   H15T14401   6.906   2.890   7.703  1.5286  1.2798 -1.1595
  133OSM   C16S14402   6.774   2.723   7.678 -0.2036  0.2902 -0.4936
  133OSM   H16S14403   6.854   2.654   7.642 -0.1331  0.4258 -0.5995
  133OSM   H16T14404   6.677   2.684   7.642 -0.3658  0.0049  0.2469
  133OSM   C17S14405   6.764   2.703   7.832  0.4947 -0.0588 -0.4319
  133OSM   H17S14406   6.670   2.741   7.877 -0.2362 -2.0541 -0.1541
  133OSM   H17T14407   6.844   2.759   7.886  0.0630 -1.7260  2.1007
  133OSM   C18S14408   6.776   2.555   7.861 -0.2552 -0.5021 -1.3293
  133OSM   H18S14409   6.876   2.525   7.823  2.0887  2.9893  1.4413
  133OSM   H18T14410   6.696   2.491   7.817  0.7780 -2.1200 -0.9526
  133OSM   H18U14411   6.775   2.548   7.972  0.5017 -0.3760 -1.3085
  133OSM    C1F14412   6.407   2.536   6.373 -0.8599  0.6092  0.0760
  133OSM     OF14413   6.473   2.472   6.290  0.0159  0.1102 -0.1519
  133OSM    C2F14414   6.372   2.483   6.503  0.0568 -0.2403 -0.1440
  133OSM    H2F14415   6.464   2.471   6.565  0.2644  0.5281 -0.2948
  133OSM    H2G14416   6.308   2.395   6.479  0.4980 -0.5486 -0.1973
  133OSM    C3F14417   6.286   2.583   6.588 -0.1039 -0.1049  0.8358
  133OSM    H3F14418   6.187   2.591   6.538 -0.5657  0.5832  1.8123
  133OSM    H3G14419   6.343   2.678   6.599  0.4599 -0.2904 -0.3617
  133OSM    C4F14420   6.260   2.534   6.729 -0.5667  0.3601 -0.6229
  133OSM    H4F14421   6.239   2.425   6.738 -0.1518  0.2707 -0.7279
  133OSM    H4G14422   6.181   2.599   6.774 -0.2625  0.4163 -0.1590
  133OSM    C5F14423   6.386   2.553   6.817 -0.1536  0.1372  0.0750
  133OSM    H5F14424   6.399   2.663   6.829  1.8520  0.0006 -0.4625
  133OSM    H5G14425   6.472   2.495   6.778 -0.6088  0.2924 -1.1955
  133OSM    C6F14426   6.365   2.500   6.968 -0.0315 -0.3389  0.6711
  133OSM    H6F14427   6.338   2.392   6.977  1.2344 -0.6425  0.9560
  133OSM    H6G14428   6.287   2.558   7.021  1.1775  1.0692  0.9751
  133OSM    C7F14429   6.500   2.512   7.046 -0.2865 -0.0153 -0.1083
  133OSM    H7F14430   6.563   2.588   6.994 -0.1155 -0.2788 -0.2897
  133OSM    H7G14431   6.553   2.415   7.031  1.8172  0.4377  3.2262
  133OSM    C8F14432   6.491   2.557   7.199 -0.6470 -0.7020  0.1743
  133OSM    H8F14433   6.395   2.509   7.229 -0.0232 -1.6272  0.7095
  133OSM    H8G14434   6.471   2.667   7.206 -1.3819 -0.8950  1.4999
  133OSM    C9F14435   6.612   2.516   7.282 -0.1994  0.0089 -0.3169
  133OSM    H9F14436   6.708   2.519   7.228 -0.8238  1.4911 -1.3833
  133OSM   C10F14437   6.624   2.463   7.408  0.5778  0.4184  0.4907
  133OSM   H10F14438   6.720   2.436   7.454  2.1368  2.3847 -1.4121
  133OSM   C11F14439   6.502   2.407   7.485 -0.0132  0.1196  0.1241
  133OSM   H11F14440   6.412   2.471   7.491  1.0854  1.6949  0.5359
  133OSM   H11G14441   6.536   2.390   7.590  2.1833 -0.5472 -0.6464
  133OSM   C12F14442   6.432   2.281   7.413  0.7191  0.1527  1.1026
  133OSM   H12F14443   6.497   2.191   7.419  1.9644  0.8581 -0.9557
  133OSM   H12G14444   6.411   2.309   7.308 -0.9044 -0.2420  1.2936
  133OSM   C13F14445   6.303   2.238   7.483  0.1816 -0.7897  0.1317
  133OSM   H13F14446   6.245   2.176   7.411  0.5687 -0.2826 -0.6364
  133OSM   H13G14447   6.250   2.333   7.506  0.7737 -0.2940 -0.5200
  133OSM   C14F14448   6.339   2.166   7.611 -0.3364  0.6208  0.5182
  133OSM   H14F14449   6.419   2.224   7.662  0.6633  0.2701 -0.6200
  133OSM   H14G14450   6.406   2.080   7.591  0.1429  0.9627  0.6249
  133OSM   C15F14451   6.224   2.138   7.702  0.5267 -1.2023 -0.5469
  133OSM   H15F14452   6.156   2.065   7.652 -0.6336 -0.0923 -0.6323
  133OSM   H15G14453   6.167   2.234   7.702  0.4840 -1.2270 -0.6456
  133OSM   C16F14454   6.263   2.115   7.845  0.1029  0.7676 -0.1527
  133OSM   H16F14455   6.168   2.108   7.901 -1.3623  0.6001 -2.5452
  133OSM   H16G14456   6.326   2.202   7.874  1.2319 -0.2533  0.5515
  133OSM   C17F14457   6.360   2.001   7.869 -0.0272  0.5456 -0.6472
  133OSM   H17F14458   6.451   2.020   7.808  2.0733  0.7462  2.3362
  133OSM   H17G14459   6.309   1.908   7.836 -1.2104  1.4140 -1.3434
  133OSM   C18F14460   6.387   1.978   8.017  0.0579 -0.1205  0.3395
  133OSM   H18F14461   6.292   1.959   8.071 -1.3080  2.8556 -0.7858
  133OSM   H18G14462   6.418   2.071   8.071 -1.1663  0.2220  0.4807
  133OSM   H18H14463   6.460   1.895   8.031  0.7819  0.5075  0.3930
  134OSM      N14464   3.498   0.679   6.265  0.9682  0.5129  0.1885
  134OSM    C1514465   3.427   0.813   6.276  0.1788  0.7338 -0.6226
  134OSM   H15A14466   3.435   0.870   6.184  1.4038  4.2189  1.4311
  134OSM   H15B14467   3.470   0.878   6.351 -0.9016  1.0345 -0.2596
  134OSM   H15C14468   3.326   0.796   6.309  0.5811  1.2153  0.9675
  134OSM    C1414469   3.442   0.594   6.153  0.2333 -1.2801 -0.2857
  134OSM   H14A14470   3.492   0.498   6.152  2.5740 -0.1273 -1.4466
  134OSM   H14B14471   3.450   0.637   6.054  0.5273 -2.2839 -0.7126
  134OSM   H14C14472   3.336   0.574   6.160 -0.5380  1.4666 -2.4198
  134OSM    C1314473   3.641   0.705   6.240  0.4904 -0.0667  0.4992
  134OSM   H13A14474   3.694   0.613   6.226  1.9528  1.0856 -2.2984
  134OSM   H13B14475   3.682   0.759   6.324 -1.1416  1.7404  0.2318
  134OSM   H13C14476   3.651   0.765   6.150 -0.7170  0.9777  1.0246
  134OSM    C1214477   3.470   0.605   6.397 -1.3255 -0.0727  0.1741
  134OSM   H12A14478   3.365   0.597   6.420 -0.9555 -1.2914  1.5897
  134OSM   H12B14479   3.512   0.666   6.475  0.1259 -1.7510  0.7706
  134OSM    C1114480   3.522   0.458   6.413  0.1183 -0.4871 -0.3811
  134OSM   H11A14481   3.466   0.392   6.343 -3.6468  1.3942  0.5611
  134OSM   H11B14482   3.479   0.426   6.510  0.8999 -1.4682 -0.3491
  134OSM      P14483   3.717   0.340   6.300  0.3630 -0.0470  0.5313
  134OSM    O1314484   3.636   0.339   6.177  0.2200 -0.2443  0.2672
  134OSM    O1414485   3.865   0.370   6.281  0.3077  0.2348 -0.1669
  134OSM    O1114486   3.699   0.211   6.376  0.6135  0.1099  0.3487
  134OSM    O1214487   3.663   0.439   6.402 -0.0918  0.3045 -0.3542
  134OSM    C1S14488   3.748   0.185   6.513  0.1494  0.0494  0.0197
  134OSM    H1S14489   3.661   0.194   6.581  0.5559 -0.2681  0.5899
  134OSM    H1T14490   3.833   0.251   6.543  1.2191 -0.7020 -1.2377
  134OSM     NF14491   3.855   0.004   6.660 -0.3043 -0.5375  0.7495
  134OSM    HNF14492   3.954   0.008   6.671 -0.0622  2.2323 -1.4941
  134OSM    C2S14493   3.807   0.035   6.526  0.3934 -0.5090 -0.3896
  134OSM    H2S14494   3.717  -0.030   6.517 -0.9537  1.1517  0.5272
  134OSM    C3S14495   3.897   0.008   6.402  0.2504  0.5263 -0.1544
  134OSM    H3S14496   3.980   0.081   6.389 -0.8598  2.0249  0.8081
  134OSM     O314497   3.827   0.012   6.281 -0.7560  0.1183  0.0976
  134OSM    HO314498   3.765   0.084   6.290 -2.1892 -1.1449  0.6873
  134OSM    C4S14499   3.956  -0.133   6.417  0.7478 -0.3593  0.7367
  134OSM    H4S14500   4.059  -0.126   6.455  1.6757 -2.0324 -1.2426
  134OSM    C5S14501   3.901  -0.252   6.401 -0.5253 -0.0497  0.9253
  134OSM    H5S14502   3.794  -0.266   6.381 -0.5861  0.3748  0.9514
  134OSM    C6S14503   3.971  -0.383   6.427  0.7016  0.0135  0.4062
  134OSM    H6S14504   4.006  -0.432   6.334  1.5292 -1.1727  1.2954
  134OSM    H6T14505   3.890  -0.446   6.469 -0.8834  0.7752 -1.3854
  134OSM    C7S14506   4.081  -0.386   6.536  0.3788  0.2251 -0.4395
  134OSM    H7S14507   4.174  -0.337   6.500 -0.5845  1.5237 -1.2512
  134OSM    H7T14508   4.128  -0.486   6.550  0.0314 -0.3852 -3.0218
  134OSM    C8S14509   4.035  -0.338   6.673 -0.3806 -1.2067  0.3356
  134OSM    H8S14510   3.925  -0.339   6.684 -0.4094  1.2049  0.9132
  134OSM    H8T14511   4.065  -0.233   6.693  0.4982 -1.0179 -1.7406
  134OSM    C9S14512   4.096  -0.418   6.792  1.0351 -0.3923  0.0805
  134OSM    H9S14513   4.206  -0.410   6.785  1.1692 -0.0212  1.9549
  134OSM    H9T14514   4.056  -0.522   6.791 -4.2280  1.3160  0.8775
  134OSM   C10S14515   4.064  -0.358   6.929 -0.1824 -0.4512  0.3115
  134OSM   H10S14516   3.954  -0.349   6.936 -0.1212  0.3195  0.3662
  134OSM   H10T14517   4.097  -0.252   6.938 -2.3661  0.3702 -0.8444
  134OSM   C11S14518   4.133  -0.433   7.042 -0.4979 -0.4001 -0.6141
  134OSM   H11S14519   4.239  -0.400   7.052 -0.2991 -1.5093  1.3710
  134OSM   H11T14520   4.135  -0.542   7.019  1.4072 -0.3510 -0.8340
  134OSM   C12S14521   4.074  -0.427   7.183 -0.0083 -0.0758  0.1988
  134OSM   H12S14522   3.964  -0.420   7.171 -0.2869  0.7981  2.6724
  134OSM   H12T14523   4.111  -0.341   7.242 -1.4683 -1.3023  3.0893
  134OSM   C13S14524   4.087  -0.560   7.262  0.3848 -0.3574  0.9116
  134OSM   H13S14525   4.195  -0.588   7.271  0.6723  1.2499  3.3315
  134OSM   H13T14526   4.033  -0.644   7.213 -1.0596  0.2925  1.3432
  134OSM   C14S14527   4.013  -0.555   7.396  0.4419  0.1039  0.2751
  134OSM   H14S14528   3.903  -0.547   7.382  0.3753 -0.8313  0.2272
  134OSM   H14T14529   4.046  -0.466   7.455  3.0941  0.3044 -1.3242
  134OSM   C15S14530   4.035  -0.674   7.489  0.0448  0.4295  0.0249
  134OSM   H15S14531   4.143  -0.676   7.515  0.1061 -2.0359 -0.1951
  134OSM   H15T14532   4.023  -0.766   7.428  2.5411  0.9338 -1.3554
  134OSM   C16S14533   3.941  -0.673   7.612 -0.9457  0.2240 -0.0924
  134OSM   H16S14534   3.969  -0.761   7.674 -2.7463 -0.8271 -0.6855
  134OSM   H16T14535   3.838  -0.701   7.581 -0.6155 -0.4228 -0.6370
  134OSM   C17S14536   3.937  -0.548   7.706  0.4136 -0.1184  0.2616
  134OSM   H17S14537   3.859  -0.570   7.781  1.4839 -1.1574  1.0993
  134OSM   H17T14538   3.900  -0.462   7.645  1.1392 -0.9916 -1.4988
  134OSM   C18S14539   4.083  -0.533   7.756  0.0963 -0.0148 -0.3214
  134OSM   H18S14540   4.089  -0.480   7.854  3.6934 -1.0054  0.1333
  134OSM   H18T14541   4.143  -0.476   7.682 -0.8984  1.2444 -0.2004
  134OSM   H18U14542   4.133  -0.631   7.771  0.8122  0.1804 -1.3772
  134OSM    C1F14543   3.787   0.007   6.765 -0.6491  0.2105  0.5063
  134OSM     OF14544   3.663  -0.003   6.757  0.1496 -0.1703  0.3903
  134OSM    C2F14545   3.862   0.006   6.892 -0.5978  0.4148 -0.0784
  134OSM    H2F14546   3.893   0.109   6.919  0.3358 -0.2450  1.5449
  134OSM    H2G14547   3.959  -0.046   6.875  0.1483  1.8518 -0.3494
  134OSM    C3F14548   3.778  -0.035   7.021  0.6237  0.2415  0.0313
  134OSM    H3F14549   3.741  -0.140   7.014  1.5197 -0.0700 -0.2113
  134OSM    H3G14550   3.683   0.022   7.015  0.5206 -0.0442 -2.3828
  134OSM    C4F14551   3.848  -0.017   7.148 -0.3905  0.2857 -0.3588
  134OSM    H4F14552   3.836   0.085   7.188  0.3166 -0.5532  2.1797
  134OSM    H4G14553   3.955  -0.047   7.139 -0.4454 -0.7250  1.6515
  134OSM    C5F14554   3.784  -0.111   7.252 -0.0128 -0.3272 -0.3223
  134OSM    H5F14555   3.798  -0.219   7.228  0.1605 -0.0186 -1.7066
  134OSM    H5G14556   3.673  -0.106   7.256 -0.2531 -1.5676 -3.0779
  134OSM    C6F14557   3.856  -0.097   7.387  0.0418  0.0666 -0.0245
  134OSM    H6F14558   3.842   0.006   7.425  1.2033  0.2896 -0.1417
  134OSM    H6G14559   3.965  -0.117   7.378 -0.0437 -1.5234  1.8838
  134OSM    C7F14560   3.800  -0.188   7.493  0.5393 -0.1016 -0.0775
  134OSM    H7F14561   3.863  -0.278   7.477  2.0907  0.6176  1.4874
  134OSM    H7G14562   3.695  -0.206   7.462  0.8618  1.2487 -2.1618
  134OSM    C8F14563   3.801  -0.139   7.633 -0.1037  0.4916 -0.0308
  134OSM    H8F14564   3.756  -0.037   7.632  0.6861  0.9044  1.7356
  134OSM    H8G14565   3.905  -0.114   7.661  0.2009 -0.3551 -0.3739
  134OSM    C9F14566   3.727  -0.223   7.728 -0.4142  0.0954 -0.7733
  134OSM    H9F14567   3.620  -0.226   7.704 -0.0766  3.3041 -3.3788
  134OSM   C10F14568   3.771  -0.259   7.855  0.2786  0.4215  0.3666
  134OSM   H10F14569   3.702  -0.322   7.914 -0.0714 -1.3504 -1.7910
  134OSM   C11F14570   3.910  -0.238   7.910 -0.3717  1.2650 -0.1803
  134OSM   H11F14571   3.979  -0.213   7.827 -1.7566  0.2101 -1.7279
  134OSM   H11G14572   3.947  -0.327   7.964  0.2012  1.8934  0.4658
  134OSM   C12F14573   3.910  -0.122   8.008 -0.1070 -0.5792 -0.2920
  134OSM   H12F14574   3.881  -0.030   7.953 -2.3941 -1.0113  0.0977
  134OSM   H12G14575   4.011  -0.108   8.054 -0.1720 -0.6182 -0.1363
  134OSM   C13F14576   3.812  -0.136   8.120 -0.0921 -0.6410  0.1374
  134OSM   H13F14577   3.705  -0.139   8.092 -0.0812  0.5039 -0.0871
  134OSM   H13G14578   3.823  -0.052   8.191 -2.7966 -3.0626  3.7250
  134OSM   C14F14579   3.839  -0.267   8.201  1.1591 -0.4398  0.0779
  134OSM   H14F14580   3.948  -0.286   8.213  1.2242  0.4597  1.0503
  134OSM   H14G14581   3.794  -0.357   8.154 -0.7582  0.0290  0.9285
  134OSM   C15F14582   3.779  -0.264   8.339  0.4047  0.1695 -0.1163
  134OSM   H15F14583   3.835  -0.193   8.404  0.9821  0.4537 -0.9039
  134OSM   H15G14584   3.797  -0.363   8.385 -0.5532  1.0992  2.4312
  134OSM   C16F14585   3.630  -0.232   8.341  0.2532  0.4116  0.2482
  134OSM   H16F14586   3.590  -0.294   8.259 -0.1018  1.9562 -0.7907
  134OSM   H16G14587   3.606  -0.130   8.304 -0.8884 -0.6940 -2.2628
  134OSM   C17F14588   3.565  -0.261   8.478  0.2308 -1.0393 -0.1562
  134OSM   H17F14589   3.459  -0.228   8.477 -0.1259 -2.1697 -0.2288
  134OSM   H17G14590   3.609  -0.201   8.561  1.8705 -0.4247 -1.4002
  134OSM   C18F14591   3.567  -0.402   8.521 -0.0586  0.3062  0.4447
  134OSM   H18F14592   3.530  -0.456   8.432 -2.9027  0.4431  1.4496
  134OSM   H18G14593   3.489  -0.420   8.598 -0.4577 -0.0903 -0.0535
  134OSM   H18H14594   3.667  -0.442   8.549  1.0827  1.6641 -1.4875
  135OSM      N14595   3.565   6.692   6.019 -0.0942  0.5927 -0.1642
  135OSM    C1514596   3.478   6.678   5.903 -0.5642  0.1809  0.5981
  135OSM   H15A14597   3.515   6.717   5.810  1.5945 -0.9138  0.9117
  135OSM   H15B14598   3.382   6.726   5.910 -0.3683  0.9878 -1.5942
  135OSM   H15C14599   3.461   6.574   5.880  2.0619  0.1482 -1.6396
  135OSM    C1414600   3.689   6.621   6.013 -0.2053  0.1113 -0.2018
  135OSM   H14A14601   3.679   6.514   6.011  1.7484 -0.1037 -0.5285
  135OSM   H14B14602   3.760   6.649   6.090  0.8371 -2.4132 -0.1368
  135OSM   H14C14603   3.740   6.646   5.921 -0.0110  1.5110  0.2652
  135OSM    C1314604   3.600   6.833   6.036  0.3964 -0.2759  0.5146
  135OSM   H13A14605   3.677   6.842   6.111 -0.0667 -0.1681  0.9740
  135OSM   H13B14606   3.519   6.890   6.078  0.5912  1.0790 -0.8473
  135OSM   H13C14607   3.623   6.888   5.945 -0.0287  2.5579  2.0119
  135OSM    C1214608   3.487   6.643   6.140 -0.5796 -0.1525  0.4356
  135OSM   H12A14609   3.554   6.670   6.221  0.8852  2.2982 -1.4525
  135OSM   H12B14610   3.473   6.537   6.128 -1.3438 -0.0756  0.5575
  135OSM    C1114611   3.352   6.699   6.186 -0.2517 -0.9494  0.2909
  135OSM   H11A14612   3.323   6.640   6.276  0.7364 -2.6197 -0.4260
  135OSM   H11B14613   3.285   6.679   6.100 -1.3298 -3.4726  1.5726
  135OSM      P14614   3.231   6.908   6.251 -0.5068 -0.3374 -0.2106
  135OSM    O1314615   3.252   7.050   6.213  0.1453 -0.4845 -0.2536
  135OSM    O1414616   3.112   6.840   6.190 -0.1905  0.8403  0.1579
  135OSM    O1114617   3.228   6.892   6.407 -0.5209  0.4963  0.5040
  135OSM    O1214618   3.365   6.835   6.207 -0.1511  0.4336 -0.0790
  135OSM    C1S14619   3.346   6.939   6.476 -0.0043 -0.5864 -0.3002
  135OSM    H1S14620   3.332   7.050   6.475 -4.1985 -0.9317 -2.4200
  135OSM    H1T14621   3.441   6.906   6.429  0.3801 -2.8189  1.8827
  135OSM     NF14622   3.441   6.966   6.706  0.5027  0.6937 -0.0401
  135OSM    HNF14623   3.533   6.929   6.707  0.6331  1.0204  0.6169
  135OSM    C2S14624   3.343   6.888   6.624  0.1205  0.1494 -0.2002
  135OSM    H2S14625   3.241   6.918   6.657  0.4981  2.3234 -0.8843
  135OSM    C3S14626   3.364   6.730   6.633  0.6508 -0.2527  0.6041
  135OSM    H3S14627   3.462   6.712   6.584  0.9870  0.2308  1.0831
  135OSM     O314628   3.258   6.656   6.569  0.3330  0.0721  0.0919
  135OSM    HO314629   3.203   6.725   6.531 -1.1650 -0.9206  0.3814
  135OSM    C4S14630   3.377   6.680   6.776 -0.1413  0.8445  0.5448
  135OSM    H4S14631   3.478   6.676   6.819  0.6937  0.8417 -1.3396
  135OSM    C5S14632   3.277   6.659   6.856 -0.0207 -0.5292  0.3518
  135OSM    H5S14633   3.174   6.674   6.820 -0.1658  0.7209  1.2710
  135OSM    C6S14634   3.294   6.614   7.001  0.3642 -0.8547  0.0260
  135OSM    H6S14635   3.400   6.604   7.033  0.4871  0.3379  0.0457
  135OSM    H6T14636   3.235   6.522   7.017 -1.3783  0.4395  1.5044
  135OSM    C7S14637   3.232   6.725   7.099  0.3275 -0.1114  0.0852
  135OSM    H7S14638   3.128   6.747   7.065 -0.2460  1.0076  2.3625
  135OSM    H7T14639   3.287   6.821   7.100  0.1161  0.0203  1.3888
  135OSM    C8S14640   3.223   6.668   7.243  1.0655  0.7784  0.3128
  135OSM    H8S14641   3.323   6.679   7.290 -0.1261  0.3106  3.1448
  135OSM    H8T14642   3.177   6.567   7.249 -0.1714  1.3497  0.4985
  135OSM    C9S14643   3.130   6.768   7.323 -0.8044  0.7742  0.5491
  135OSM    H9S14644   3.023   6.765   7.292 -1.0805  0.1928  1.5469
  135OSM    H9T14645   3.169   6.865   7.284  2.5439 -0.8942 -0.5717
  135OSM   C10S14646   3.132   6.741   7.474  0.1714 -0.0861  0.3798
  135OSM   H10S14647   3.228   6.735   7.528 -0.6371 -1.2684  1.7375
  135OSM   H10T14648   3.085   6.641   7.489 -0.8671  0.4540  0.8482
  135OSM   C11S14649   3.065   6.850   7.561 -0.0722 -0.6364  0.2713
  135OSM   H11S14650   2.957   6.861   7.536 -0.0486 -1.3832 -0.2128
  135OSM   H11T14651   3.115   6.948   7.546 -0.3350 -0.4906  0.3365
  135OSM   C12S14652   3.081   6.803   7.708  0.5413  0.1807  0.5339
  135OSM   H12S14653   3.185   6.766   7.721  0.9496  0.7979 -0.6983
  135OSM   H12T14654   3.010   6.719   7.715 -2.3700  2.1617 -2.3832
  135OSM   C13S14655   3.046   6.902   7.821  0.5589  0.0276  0.5873
  135OSM   H13S14656   3.052   6.840   7.913  0.7004 -0.8358  0.0110
  135OSM   H13T14657   2.942   6.941   7.810  0.4867 -0.2602  0.2175
  135OSM   C14S14658   3.131   7.030   7.837  0.5611  0.3868 -0.6376
  135OSM   H14S14659   3.130   7.085   7.740  2.3427  0.9335 -0.3849
  135OSM   H14T14660   3.238   7.005   7.852  0.3917 -0.6629 -1.1409
  135OSM   C15S14661   3.091   7.122   7.948 -0.0961 -0.5491 -0.4898
  135OSM   H15S14662   3.121   7.074   8.043  2.9595  0.4661 -0.8207
  135OSM   H15T14663   2.980   7.129   7.951 -0.2135 -1.5193 -1.8309
  135OSM   C16S14664   3.151   7.259   7.922  0.1473  0.3397  0.3488
  135OSM   H16S14665   3.130   7.306   7.823  3.3024 -1.4781 -1.3681
  135OSM   H16T14666   3.261   7.240   7.920 -0.0163 -1.0004 -2.8997
  135OSM   C17S14667   3.113   7.356   8.035  0.0614  0.2568  0.1969
  135OSM   H17S14668   3.158   7.333   8.133  1.0093 -0.5264 -0.4068
  135OSM   H17T14669   3.003   7.347   8.049  0.5394 -3.0060  3.5086
  135OSM   C18S14670   3.149   7.498   7.992 -0.5707 -0.1425  0.1171
  135OSM   H18S14671   3.100   7.519   7.895 -1.5071 -0.6179  0.4796
  135OSM   H18T14672   3.260   7.512   7.987 -0.0665 -2.9212  1.5682
  135OSM   H18U14673   3.115   7.576   8.063 -1.7774 -0.5559  0.0073
  135OSM    C1F14674   3.428   7.094   6.734  0.0452 -0.9948  0.9330
  135OSM     OF14675   3.318   7.149   6.722 -0.5954 -0.1981  0.8607
  135OSM    C2F14676   3.553   7.166   6.783 -0.4920  0.2712  0.3189
  135OSM    H2F14677   3.591   7.204   6.685  0.9917 -0.0164  0.7504
  135OSM    H2G14678   3.630   7.094   6.818 -0.3308 -1.1500 -2.6238
  135OSM    C3F14679   3.553   7.285   6.880  0.3310  0.5426  0.3376
  135OSM    H3F14680   3.476   7.351   6.834  0.1788 -0.4441 -0.8679
  135OSM    H3G14681   3.657   7.322   6.868  0.7789 -0.5544  0.7028
  135OSM    C4F14682   3.515   7.244   7.023 -0.3129 -0.4436  0.1763
  135OSM    H4F14683   3.417   7.192   7.021  0.0597 -1.1754  0.6732
  135OSM    H4G14684   3.496   7.331   7.090 -1.4285  1.2559 -2.2091
  135OSM    C5F14685   3.616   7.159   7.105  1.0185  0.1928 -0.3442
  135OSM    H5F14686   3.711   7.216   7.114  2.0888 -1.7592  2.0704
  135OSM    H5G14687   3.626   7.061   7.054 -0.7338 -0.0113 -0.3613
  135OSM    C6F14688   3.569   7.143   7.257 -0.3933 -0.2955  0.0678
  135OSM    H6F14689   3.460   7.118   7.261 -0.2493 -0.8690  0.4817
  135OSM    H6G14690   3.585   7.235   7.316  1.3169 -0.1366 -0.6046
  135OSM    C7F14691   3.627   7.017   7.318 -0.0144 -0.2953  0.5515
  135OSM    H7F14692   3.737   7.034   7.310  0.3299 -2.4167  0.0928
  135OSM    H7G14693   3.599   6.927   7.260  0.6475  0.7769 -1.5469
  135OSM    C8F14694   3.599   7.004   7.472  0.6915 -0.5075 -0.0236
  135OSM    H8F14695   3.613   7.108   7.509  0.4931 -0.0218 -1.2636
  135OSM    H8G14696   3.681   6.937   7.507  0.5874 -0.2877  0.6639
  135OSM    C9F14697   3.455   6.971   7.507  0.5774 -0.0570 -0.2524
  135OSM    H9F14698   3.377   6.968   7.428 -0.9924 -0.0145  1.2318
  135OSM   C10F14699   3.415   6.956   7.638 -0.1213 -0.0480  0.3246
  135OSM   H10F14700   3.315   6.919   7.665 -0.7006  0.8686 -0.4933
  135OSM   C11F14701   3.505   6.962   7.758 -0.0447  0.0225  0.2058
  135OSM   H11F14702   3.485   7.064   7.798 -2.7240 -1.8112  4.1543
  135OSM   H11G14703   3.613   6.964   7.729  0.7034  0.0070  2.7264
  135OSM   C12F14704   3.482   6.855   7.869 -0.6847  0.3066  0.0597
  135OSM   H12F14705   3.546   6.768   7.844 -0.9634 -1.2527  4.0385
  135OSM   H12G14706   3.377   6.817   7.868 -1.6751  2.8636  0.1955
  135OSM   C13F14707   3.525   6.904   8.017 -0.2091 -0.5256 -0.6930
  135OSM   H13F14708   3.511   7.011   8.040  0.3456 -1.1651  3.3446
  135OSM   H13G14709   3.632   6.876   8.017 -0.0946 -0.1423 -1.7536
  135OSM   C14F14710   3.456   6.826   8.130  0.9314 -0.0546  0.0800
  135OSM   H14F14711   3.504   6.858   8.225  1.1696 -0.0253 -0.0504
  135OSM   H14G14712   3.471   6.716   8.128  2.2179  0.1039 -0.0553
  135OSM   C15F14713   3.300   6.847   8.133 -0.0309 -0.6286  0.5090
  135OSM   H15F14714   3.250   6.817   8.039  0.9302  0.3175 -0.3312
  135OSM   H15G14715   3.283   6.957   8.141  0.2639 -0.6624  1.8741
  135OSM   C16F14716   3.225   6.772   8.245  0.5641 -0.9158  0.2574
  135OSM   H16F14717   3.253   6.800   8.349 -0.7002 -2.4317  1.0396
  135OSM   H16G14718   3.247   6.665   8.226  0.9360 -0.6327 -1.0078
  135OSM   C17F14719   3.075   6.797   8.240  0.3941 -0.4315 -0.6258
  135OSM   H17F14720   3.022   6.734   8.165 -0.4689 -1.2457  0.6200
  135OSM   H17G14721   3.050   6.905   8.230 -0.8656 -0.8238 -2.2130
  135OSM   C18F14722   3.007   6.756   8.370  0.0215 -0.5825  0.2007
  135OSM   H18F14723   2.900   6.786   8.377 -0.0882 -0.8885 -0.1721
  135OSM   H18G14724   3.058   6.807   8.454  0.5264 -1.5404  0.4951
  135OSM   H18H14725   3.014   6.645   8.378  1.6955 -0.5119  0.0304
  136OSM      N14726   0.342   0.860   6.300  0.2710 -0.3545  0.2003
  136OSM    C1514727   0.390   0.734   6.229 -0.4800 -0.1333  0.0943
  136OSM   H15A14728   0.314   0.683   6.171  0.3125 -0.8047 -0.3856
  136OSM   H15B14729   0.436   0.671   6.304 -1.1645  2.5077  2.9303
  136OSM   H15C14730   0.464   0.758   6.154  0.5531 -0.8074  0.8671
  136OSM    C1414731   0.278   0.946   6.193  0.1799 -0.1485  0.4362
  136OSM   H14A14732   0.253   1.045   6.230  1.2686  0.1249  0.4928
  136OSM   H14B14733   0.197   0.896   6.144 -0.2269  1.1761 -0.2924
  136OSM   H14C14734   0.347   0.972   6.114 -0.1574  0.6924  0.4025
  136OSM    C1314735   0.248   0.820   6.408 -0.6890 -0.1310 -0.3797
  136OSM   H13A14736   0.295   0.766   6.489 -1.4186  0.2136  0.2951
  136OSM   H13B14737   0.177   0.752   6.363 -0.3423  1.2734 -3.2651
  136OSM   H13C14738   0.206   0.911   6.449 -0.7924 -1.5292  3.0078
  136OSM    C1214739   0.465   0.937   6.352  0.6335 -0.2910  0.7554
  136OSM   H12A14740   0.537   0.951   6.273  1.4407 -1.0898  1.3304
  136OSM   H12B14741   0.510   0.875   6.428 -0.3071 -0.2826  1.3399
  136OSM    C1114742   0.444   1.084   6.412 -0.2141 -0.2026 -0.6764
  136OSM   H11A14743   0.544   1.114   6.450  0.5455 -1.2097 -1.7799
  136OSM   H11B14744   0.378   1.080   6.501  0.1898  0.2264 -0.3540
  136OSM      P14745   0.496   1.274   6.234  0.1081  0.0579 -0.0635
  136OSM    O1314746   0.627   1.209   6.223  0.7770  0.0021 -0.1410
  136OSM    O1414747   0.430   1.303   6.107 -0.3378 -0.6605 -0.1408
  136OSM    O1114748   0.506   1.412   6.308 -0.0698  0.1844 -0.3834
  136OSM    O1214749   0.398   1.182   6.320 -0.4004 -0.4161 -0.3705
  136OSM    C1S14750   0.423   1.446   6.417  0.5703 -0.0374  0.5860
  136OSM    H1S14751   0.354   1.368   6.455 -2.0988  2.7506  1.9690
  136OSM    H1T14752   0.356   1.518   6.366  1.9016  0.8640  0.0561
  136OSM     NF14753   0.379   1.553   6.634  0.2998 -0.1131 -0.1257
  136OSM    HNF14754   0.357   1.648   6.653  2.5637  0.2649  1.0106
  136OSM    C2S14755   0.488   1.515   6.538 -0.3077  0.6583 -0.1359
  136OSM    H2S14756   0.548   1.434   6.586  0.2871 -0.3219 -2.3962
  136OSM    C3S14757   0.586   1.624   6.507 -1.1403 -0.1435  0.4884
  136OSM    H3S14758   0.531   1.699   6.447  2.8731  0.5318 -2.7704
  136OSM     O314759   0.687   1.573   6.419 -0.0401  0.0385  0.1908
  136OSM    HO314760   0.646   1.495   6.380  0.7962 -0.8921  1.0939
  136OSM    C4S14761   0.648   1.698   6.631 -0.1588  0.0106  0.4929
  136OSM    H4S14762   0.570   1.728   6.702 -1.7592 -0.2493 -1.0692
  136OSM    C5S14763   0.775   1.719   6.673  0.0051 -0.0677 -0.9420
  136OSM    H5S14764   0.859   1.692   6.607 -0.2636  0.5516 -1.5372
  136OSM    C6S14765   0.819   1.771   6.807  0.2096 -0.1078 -0.5358
  136OSM    H6S14766   0.887   1.858   6.796  0.9217 -0.4675  0.7958
  136OSM    H6T14767   0.878   1.694   6.860 -0.4983 -0.3146 -0.0325
  136OSM    C7S14768   0.707   1.828   6.894 -0.5973 -0.3378 -0.1761
  136OSM    H7S14769   0.614   1.767   6.901 -0.8665 -0.4003 -3.0388
  136OSM    H7T14770   0.678   1.925   6.848 -0.9163 -0.3016  0.1000
  136OSM    C8S14771   0.758   1.873   7.029  0.6055 -0.6121  0.1082
  136OSM    H8S14772   0.853   1.931   7.020  1.0206 -1.2477  0.3287
  136OSM    H8T14773   0.793   1.779   7.077 -0.7259 -1.4790 -0.5450
  136OSM    C9S14774   0.655   1.923   7.125  0.1807  0.4427 -0.1541
  136OSM    H9S14775   0.567   1.856   7.114  0.8713 -0.1362 -3.1494
  136OSM    H9T14776   0.610   2.013   7.078  0.9065  0.3721 -1.0095
  136OSM   C10S14777   0.705   1.951   7.264 -0.2274  0.3210  0.4055
  136OSM   H10S14778   0.780   2.033   7.270  0.3640 -0.1907  0.1431
  136OSM   H10T14779   0.752   1.863   7.313  0.0984 -0.4200 -1.1839
  136OSM   C11S14780   0.586   1.982   7.353 -0.4095  0.0194 -0.6454
  136OSM   H11S14781   0.517   1.896   7.347 -1.7476  1.1101 -1.7253
  136OSM   H11T14782   0.537   2.076   7.318  0.8111  1.5512  1.4977
  136OSM   C12S14783   0.642   2.037   7.490 -0.2192  0.0770 -0.2634
  136OSM   H12S14784   0.705   2.126   7.470  1.7572 -0.2842  3.5067
  136OSM   H12T14785   0.711   1.968   7.542  1.3144  1.0727 -0.8925
  136OSM   C13S14786   0.533   2.078   7.580  0.0642  0.4825  0.3941
  136OSM   H13S14787   0.480   1.984   7.604  0.6203 -1.0610 -3.6499
  136OSM   H13T14788   0.466   2.150   7.529 -1.2547  1.6424  3.4968
  136OSM   C14S14789   0.583   2.155   7.702 -0.1616 -0.2205 -0.2403
  136OSM   H14S14790   0.590   2.265   7.686  1.8655 -0.1578  0.7094
  136OSM   H14T14791   0.683   2.116   7.731 -0.0036 -0.3303 -0.9145
  136OSM   C15S14792   0.486   2.136   7.822  0.1491 -0.2922  0.8955
  136OSM   H15S14793   0.468   2.028   7.843  0.4804 -0.2597  1.3612
  136OSM   H15T14794   0.385   2.171   7.791  1.0825  1.2840 -0.4811
  136OSM   C16S14795   0.521   2.193   7.952 -0.2120  0.3121 -1.1290
  136OSM   H16S14796   0.564   2.295   7.945  0.3284  0.0772 -1.3059
  136OSM   H16T14797   0.613   2.137   7.979 -1.5065 -0.4335  2.1721
  136OSM   C17S14798   0.415   2.164   8.057  0.1540  0.1973  0.3375
  136OSM   H17S14799   0.391   2.056   8.058  1.6657 -0.1669 -0.2813
  136OSM   H17T14800   0.332   2.237   8.043  1.4791  1.9915  1.3129
  136OSM   C18S14801   0.465   2.207   8.194  0.3466  0.8146  0.3990
  136OSM   H18S14802   0.529   2.125   8.235 -1.5689 -1.2861 -0.5754
  136OSM   H18T14803   0.380   2.231   8.261 -0.1069  0.4413 -0.0332
  136OSM   H18U14804   0.530   2.297   8.195 -0.6981  1.5937  1.4795
  136OSM    C1F14805   0.306   1.463   6.699 -0.7088  0.4878  0.0242
  136OSM     OF14806   0.306   1.342   6.671 -0.0986 -0.4103  0.5608
  136OSM    C2F14807   0.238   1.515   6.819 -0.1247  0.2262  1.3534
  136OSM    H2F14808   0.152   1.445   6.830  0.0478  0.0014  1.2766
  136OSM    H2G14809   0.184   1.612   6.809 -2.5341 -0.9605  2.1007
  136OSM    C3F14810   0.307   1.507   6.954 -0.4073 -0.3199 -0.1205
  136OSM    H3F14811   0.403   1.563   6.959 -0.2892 -0.6702  2.4344
  136OSM    H3G14812   0.339   1.401   6.966 -1.1604 -0.4397  0.8761
  136OSM    C4F14813   0.224   1.564   7.070  0.0091  0.4739  0.1902
  136OSM    H4F14814   0.136   1.502   7.097  1.1809 -0.7171  1.4170
  136OSM    H4G14815   0.204   1.672   7.054 -0.9437  0.2989  0.1376
  136OSM    C5F14816   0.306   1.561   7.208  0.5847 -0.0408 -0.3629
  136OSM    H5F14817   0.380   1.642   7.194  0.1543  1.0967  3.0073
  136OSM    H5G14818   0.372   1.476   7.234  0.2568 -1.1703 -2.9429
  136OSM    C6F14819   0.213   1.590   7.332 -0.0217  0.0155  0.5470
  136OSM    H6F14820   0.145   1.505   7.355  0.1143  0.2081  1.7226
  136OSM    H6G14821   0.160   1.687   7.318  1.4814  0.7711 -0.2228
  136OSM    C7F14822   0.302   1.615   7.451 -0.5514  0.1050  0.1068
  136OSM    H7F14823   0.377   1.690   7.420  1.2737 -2.1985 -1.4244
  136OSM    H7G14824   0.354   1.522   7.484 -0.5294  0.8400  2.3442
  136OSM    C8F14825   0.225   1.649   7.576  0.0105 -0.4142  0.1272
  136OSM    H8F14826   0.170   1.562   7.619 -0.2873  0.5776  1.8852
  136OSM    H8G14827   0.156   1.731   7.546  0.3564 -0.1186  0.1309
  136OSM    C9F14828   0.316   1.706   7.684 -0.6104  0.4489  0.3111
  136OSM    H9F14829   0.353   1.804   7.650 -0.7447 -0.0052 -1.2393
  136OSM   C10F14830   0.349   1.648   7.805  0.3627  0.7578  0.5284
  136OSM   H10F14831   0.420   1.703   7.869  1.7497 -1.0367  0.5903
  136OSM   C11F14832   0.288   1.529   7.880 -0.1571  0.1140  0.3150
  136OSM   H11F14833   0.374   1.467   7.912  1.6421  1.2708 -1.9409
  136OSM   H11G14834   0.218   1.467   7.820 -0.6358  2.3850 -1.6295
  136OSM   C12F14835   0.189   1.559   8.000  0.3459 -0.0767 -0.2322
  136OSM   H12F14836   0.148   1.458   8.021  0.4554 -0.1716 -0.4712
  136OSM   H12G14837   0.104   1.611   7.952 -1.1418 -2.0952  0.0827
  136OSM   C13F14838   0.251   1.624   8.130 -0.1302 -0.2097  0.6877
  136OSM   H13F14839   0.356   1.589   8.141 -0.2372 -1.3883 -1.3811
  136OSM   H13G14840   0.193   1.575   8.211 -0.7697 -0.0494  0.3283
  136OSM   C14F14841   0.258   1.781   8.146  0.5333 -0.1180 -0.8215
  136OSM   H14F14842   0.320   1.810   8.060  3.0689 -0.3539  0.8164
  136OSM   H14G14843   0.305   1.803   8.245 -1.2679  0.8763 -0.1245
  136OSM   C15F14844   0.124   1.849   8.134 -0.1609  0.5608  0.3759
  136OSM   H15F14845   0.078   1.826   8.036 -0.5260  2.0203  0.1713
  136OSM   H15G14846   0.144   1.958   8.146 -1.1539  0.5931  2.2473
  136OSM   C16F14847   0.011   1.811   8.230 -0.4591 -0.0021 -0.6447
  136OSM   H16F14848   0.053   1.822   8.332 -1.4919  0.3164 -0.2474
  136OSM   H16G14849  -0.012   1.703   8.221  0.2677 -0.4184  1.7702
  136OSM   C17F14850  -0.123   1.879   8.210  0.4318  0.6089 -0.6193
  136OSM   H17F14851  -0.141   1.883   8.101  0.4021  1.0094 -0.6034
  136OSM   H17G14852  -0.115   1.987   8.236  0.4584  0.7236 -1.1016
  136OSM   C18F14853  -0.242   1.819   8.285  0.2356  0.2496  0.0674
  136OSM   H18F14854  -0.324   1.880   8.244  0.1292 -2.1567 -3.8600
  136OSM   H18G14855  -0.232   1.840   8.394  3.3929 -0.3692 -0.0038
  136OSM   H18H14856  -0.263   1.712   8.264 -0.6887  0.8055 -2.0768
  137OSM      N14857   2.685   5.241   5.880  0.0320  0.4190  0.0631
  137OSM    C1514858   2.687   5.359   5.784  0.2568  0.1702  0.2094
  137OSM   H15A14859   2.730   5.328   5.690 -3.1698 -1.4728 -1.0187
  137OSM   H15B14860   2.758   5.434   5.816 -0.8166  0.4270  2.1483
  137OSM   H15C14861   2.590   5.401   5.758 -0.0040 -1.1542 -1.0870
  137OSM    C1414862   2.577   5.156   5.832  0.1381 -0.4129 -0.6248
  137OSM   H14A14863   2.597   5.146   5.726  1.6076 -0.2818 -0.3832
  137OSM   H14B14864   2.481   5.195   5.859  1.0060  2.2397 -1.1307
  137OSM   H14C14865   2.596   5.054   5.864 -1.6055 -0.5074  0.1904
  137OSM    C1314866   2.823   5.172   5.882  0.7295 -0.1507 -0.6589
  137OSM   H13A14867   2.820   5.088   5.950 -0.3380 -0.8138 -1.4857
  137OSM   H13B14868   2.911   5.227   5.909  0.9514 -0.5091 -0.6462
  137OSM   H13C14869   2.850   5.126   5.789  0.3976 -0.2457 -0.7098
  137OSM    C1214870   2.654   5.300   6.020 -0.1629 -0.3961 -0.3195
  137OSM   H12A14871   2.560   5.351   6.008 -0.3064  0.1411  2.4648
  137OSM   H12B14872   2.727   5.370   6.058 -1.8103  1.0043  0.3502
  137OSM    C1114873   2.623   5.205   6.137  0.0879  0.7901  0.3215
  137OSM   H11A14874   2.604   5.261   6.231  2.0763  0.1979  1.1404
  137OSM   H11B14875   2.718   5.151   6.157 -0.7528 -1.1674 -0.7500
  137OSM      P14876   2.378   5.135   6.122  0.0731 -0.1074  0.6960
  137OSM    O1314877   2.341   5.237   6.023 -0.1882  0.7465  0.5440
  137OSM    O1414878   2.296   5.015   6.121  0.5933  0.2586  0.0920
  137OSM    O1114879   2.355   5.197   6.269 -0.1338 -0.6203 -0.4484
  137OSM    O1214880   2.524   5.101   6.114 -0.0038  0.5238 -0.1133
  137OSM    C1S14881   2.393   5.120   6.380  0.3831  0.0518 -0.7093
  137OSM    H1S14882   2.503   5.128   6.390  0.3672 -0.4048 -0.1228
  137OSM    H1T14883   2.363   5.014   6.375 -0.2584  0.1971 -0.1315
  137OSM     NF14884   2.414   5.160   6.629  0.0453 -0.4413  0.1123
  137OSM    HNF14885   2.395   5.092   6.698  0.0959 -0.4514  0.1165
  137OSM    C2S14886   2.323   5.180   6.515 -0.1730 -0.1329  0.3406
  137OSM    H2S14887   2.326   5.289   6.492 -0.2040 -0.1656  0.1835
  137OSM    C3S14888   2.188   5.124   6.531 -0.2592 -0.7321  0.1544
  137OSM    H3S14889   2.192   5.014   6.547  0.6739 -1.1664 -2.6373
  137OSM     O314890   2.119   5.140   6.410  0.7399  0.0708 -0.1372
  137OSM    HO314891   2.189   5.150   6.344  1.7327  0.6612  0.9725
  137OSM    C4S14892   2.116   5.191   6.642 -0.3701  0.3319 -0.2210
  137OSM    H4S14893   2.130   5.142   6.739 -1.5765 -0.5871 -0.4780
  137OSM    C5S14894   2.045   5.306   6.639  0.3996  0.3296 -0.0833
  137OSM    H5S14895   2.042   5.360   6.544  0.3021 -0.3768 -0.4869
  137OSM    C6S14896   1.983   5.387   6.749  0.2891  0.7447  0.9405
  137OSM    H6S14897   1.873   5.377   6.738  0.3721 -0.8026  1.3736
  137OSM    H6T14898   2.021   5.491   6.735  1.4173  0.1929 -0.2224
  137OSM    C7S14899   2.015   5.353   6.893 -0.2276  0.7024 -0.0651
  137OSM    H7S14900   2.011   5.450   6.947  0.8806  0.4056  0.5950
  137OSM    H7T14901   2.114   5.303   6.906 -1.1218 -1.3782 -0.8571
  137OSM    C8S14902   1.909   5.256   6.955 -0.6384 -0.1708 -0.7088
  137OSM    H8S14903   1.924   5.155   6.911 -0.9194 -0.4456 -0.1733
  137OSM    H8T14904   1.809   5.291   6.921 -0.4380 -0.6554 -1.8614
  137OSM    C9S14905   1.921   5.232   7.110 -0.4327 -0.1946  0.1855
  137OSM    H9S14906   1.938   5.320   7.175  1.1773 -0.9934  0.9101
  137OSM    H9T14907   2.013   5.171   7.122 -2.3541 -3.0104  1.8091
  137OSM   C10S14908   1.816   5.128   7.150 -0.3104 -0.6319 -0.1510
  137OSM   H10S14909   1.829   5.025   7.111 -1.1448 -1.5577  1.8430
  137OSM   H10T14910   1.721   5.163   7.103 -1.1339 -2.3524  0.1422
  137OSM   C11S14911   1.799   5.112   7.301  0.4796  0.3521 -0.4306
  137OSM   H11S14912   1.719   5.039   7.324  3.0346 -2.5735 -0.0491
  137OSM   H11T14913   1.759   5.200   7.355  1.9520  1.1344 -0.5565
  137OSM   C12S14914   1.923   5.040   7.363  0.5076  0.1987 -0.0642
  137OSM   H12S14915   2.009   5.111   7.362  1.0962 -0.4941 -0.0855
  137OSM   H12T14916   1.954   4.950   7.306 -1.2342 -0.8245  0.5469
  137OSM   C13S14917   1.910   4.992   7.506  0.6716 -0.5244  1.5565
  137OSM   H13S14918   2.012   4.955   7.530  1.4996 -0.1794 -1.1284
  137OSM   H13T14919   1.848   4.899   7.513 -1.3161  0.7323  1.4503
  137OSM   C14S14920   1.841   5.097   7.600  0.1193 -0.7035 -0.3367
  137OSM   H14S14921   1.731   5.107   7.586 -0.0265  1.2373  1.5975
  137OSM   H14T14922   1.887   5.194   7.574 -3.2870  1.1364 -0.1455
  137OSM   C15S14923   1.879   5.067   7.753  0.1700  0.3165 -0.2374
  137OSM   H15S14924   1.861   4.959   7.771  0.7699  0.4146  1.0455
  137OSM   H15T14925   1.808   5.123   7.817  0.7221  1.5975 -0.6973
  137OSM   C16S14926   2.024   5.092   7.793 -0.0177 -0.4628 -0.2992
  137OSM   H16S14927   2.033   5.203   7.799  1.2785 -0.4844 -1.5214
  137OSM   H16T14928   2.089   5.056   7.711 -0.6959 -0.4935 -0.8325
  137OSM   C17S14929   2.068   5.039   7.934  0.2521 -0.0190 -0.3431
  137OSM   H17S14930   2.178   5.035   7.920  0.4961  0.0851  1.3378
  137OSM   H17T14931   2.027   4.937   7.950 -1.4954  0.2906 -2.3939
  137OSM   C18S14932   2.030   5.132   8.049  0.0864  0.2825 -0.3142
  137OSM   H18S14933   2.075   5.232   8.032 -0.3549  0.5075 -0.1510
  137OSM   H18T14934   2.061   5.077   8.141  2.6834  0.1523 -1.1896
  137OSM   H18U14935   1.921   5.148   8.040  0.0053  0.7360  1.2158
  137OSM    C1F14936   2.523   5.235   6.641 -0.3160  0.2929 -0.3105
  137OSM     OF14937   2.558   5.309   6.549  0.5416  0.3433 -0.1885
  137OSM    C2F14938   2.592   5.219   6.773 -0.3606 -0.3623  0.0645
  137OSM    H2F14939   2.641   5.120   6.785  2.4833  0.8098 -0.9864
  137OSM    H2G14940   2.519   5.240   6.854 -1.4685 -2.1809 -0.3997
  137OSM    C3F14941   2.711   5.314   6.792 -0.2691 -0.4145  0.4321
  137OSM    H3F14942   2.696   5.409   6.737 -1.8184  1.2135  3.3830
  137OSM    H3G14943   2.801   5.260   6.756 -1.0118 -1.7924  0.5520
  137OSM    C4F14944   2.736   5.361   6.937 -0.3534 -0.1125 -0.6271
  137OSM    H4F14945   2.648   5.410   6.985  1.6127  0.6448  2.4764
  137OSM    H4G14946   2.810   5.442   6.918 -1.6745  1.2042 -0.3778
  137OSM    C5F14947   2.810   5.257   7.020 -0.1387 -0.5749  0.5652
  137OSM    H5F14948   2.907   5.231   6.972 -0.6269  1.4798 -1.7019
  137OSM    H5G14949   2.759   5.159   7.012  1.3278 -1.4312  1.1433
  137OSM    C6F14950   2.843   5.297   7.159  0.2643  0.1808  0.2857
  137OSM    H6F14951   2.764   5.332   7.229  0.3630 -1.5047  1.2870
  137OSM    H6G14952   2.908   5.387   7.154  1.4065 -0.6317 -0.0047
  137OSM    C7F14953   2.925   5.189   7.240 -0.1397  0.1397 -0.3987
  137OSM    H7F14954   3.023   5.240   7.256  0.8007 -1.4868 -0.7141
  137OSM    H7G14955   2.949   5.104   7.172  0.3991  0.5911 -0.7816
  137OSM    C8F14956   2.867   5.145   7.371  0.6931  0.3930  0.1414
  137OSM    H8F14957   2.770   5.091   7.362 -0.9370  3.3891 -2.3766
  137OSM    H8G14958   2.838   5.233   7.432 -2.2401 -0.6787  0.4623
  137OSM    C9F14959   2.964   5.063   7.450 -0.4123 -0.0275  0.3775
  137OSM    H9F14960   3.022   4.987   7.395 -0.9227  0.6525 -1.1685
  137OSM   C10F14961   2.992   5.075   7.581 -0.3717 -0.3509 -0.1961
  137OSM   H10F14962   3.076   5.018   7.622  1.5363  1.6799 -1.1109
  137OSM   C11F14963   2.920   5.164   7.677  0.3729  0.5535 -0.0794
  137OSM   H11F14964   2.810   5.151   7.663  0.5023  0.5170 -1.1293
  137OSM   H11G14965   2.937   5.272   7.657  0.3991  0.8222  1.2718
  137OSM   C12F14966   2.956   5.146   7.826 -0.1381  0.1548 -0.1182
  137OSM   H12F14967   2.910   5.220   7.896 -1.5789 -1.5501  0.8325
  137OSM   H12G14968   3.065   5.160   7.841  0.2724  1.4102 -3.4104
  137OSM   C13F14969   2.911   5.010   7.879 -0.3069  0.4065 -0.5758
  137OSM   H13F14970   2.937   4.927   7.810  0.2561 -0.2234  0.3828
  137OSM   H13G14971   2.802   5.002   7.903 -0.0340 -4.2809 -0.0176
  137OSM   C14F14972   2.977   5.002   8.022 -0.0048 -0.1806  0.4950
  137OSM   H14F14973   2.998   5.104   8.061  1.3873 -0.1647 -0.2297
  137OSM   H14G14974   3.078   4.956   8.025  0.8686  1.6982  1.7707
  137OSM   C15F14975   2.911   4.921   8.128  0.4779  0.3776 -0.1683
  137OSM   H15F14976   2.910   4.821   8.081 -0.1041 -0.4962  1.6357
  137OSM   H15G14977   2.804   4.937   8.155 -0.1526 -3.5472  0.2387
  137OSM   C16F14978   3.004   4.923   8.261 -0.2145 -0.1441 -0.4443
  137OSM   H16F14979   2.997   5.020   8.316  0.0612 -2.3212  3.8877
  137OSM   H16G14980   3.110   4.892   8.247 -0.1466  0.3396 -1.0232
  137OSM   C17F14981   2.958   4.824   8.367 -0.0592  0.1518 -0.1546
  137OSM   H17F14982   2.972   4.722   8.327  0.8128  0.5095 -0.8018
  137OSM   H17G14983   2.851   4.841   8.389 -0.7905 -3.7538  0.0090
  137OSM   C18F14984   3.025   4.839   8.504  0.0720 -0.6467  0.4994
  137OSM   H18F14985   3.017   4.942   8.545  3.3842  0.5514 -1.4325
  137OSM   H18G14986   3.134   4.831   8.485 -0.3153 -0.5920 -2.1129
  137OSM   H18H14987   2.994   4.755   8.570 -0.7644 -0.6845  0.0731
  138OSM      N14988   3.237   2.328   6.318  0.5085 -0.1825 -0.8027
  138OSM    C1514989   3.378   2.284   6.343 -0.1001 -0.0286 -0.1356
  138OSM   H15A14990   3.432   2.286   6.249  1.8156  2.2040  0.9119
  138OSM   H15B14991   3.383   2.192   6.399 -0.2504  0.6881  1.0814
  138OSM   H15C14992   3.424   2.366   6.395 -0.7869 -0.7241  1.6521
  138OSM    C1414993   3.186   2.403   6.444 -0.2612  0.4450  0.1919
  138OSM   H14A14994   3.247   2.485   6.479 -0.6405  0.8102 -0.0011
  138OSM   H14B14995   3.188   2.335   6.528  0.2422 -2.4525 -1.9963
  138OSM   H14C14996   3.083   2.433   6.432 -0.8156 -1.3209  0.1735
  138OSM    C1314997   3.237   2.427   6.208  0.1246  0.0372 -0.0680
  138OSM   H13A14998   3.170   2.508   6.234 -0.8408 -0.5777 -0.6008
  138OSM   H13B14999   3.210   2.376   6.117 -0.0614 -2.3221  1.2359
  138OSM   H13C15000   3.337   2.468   6.201 -0.5334  1.7205 -0.1104
  138OSM    C1215001   3.149   2.214   6.286  0.1756 -0.1005 -0.2366
  138OSM   H12A15002   3.185   2.188   6.188  1.3086 -0.0562  0.1514
  138OSM   H12B15003   3.043   2.233   6.279 -0.5147 -3.0217  0.5870
  138OSM    C1115004   3.157   2.087   6.377  0.1397 -0.5049  0.4872
  138OSM   H11A15005   3.086   2.009   6.342 -0.4058 -0.9109  2.3994
  138OSM   H11B15006   3.116   2.112   6.477 -1.0754 -0.6434  0.0359
  138OSM      P15007   3.335   1.928   6.285 -0.3408 -0.0043 -0.2138
  138OSM    O1315008   3.245   1.917   6.170  0.6137  0.2184 -0.5029
  138OSM    O1415009   3.472   1.959   6.243 -0.1896 -0.2119 -0.2464
  138OSM    O1115010   3.314   1.796   6.369  0.3281 -0.6243  0.1818
  138OSM    O1215011   3.289   2.034   6.387  0.1805 -0.2364  0.0879
  138OSM    C1S15012   3.426   1.743   6.439  0.3457 -0.0149  0.2034
  138OSM    H1S15013   3.523   1.757   6.386  0.8503 -2.5224  0.3154
  138OSM    H1T15014   3.415   1.632   6.435 -2.7665  0.2484 -0.4553
  138OSM     NF15015   3.557   1.757   6.654  0.3446 -0.5129  0.4737
  138OSM    HNF15016   3.543   1.708   6.740 -1.6907  2.3694  1.9448
  138OSM    C2S15017   3.426   1.780   6.591  0.5979 -0.9492  0.1910
  138OSM    H2S15018   3.408   1.889   6.591 -0.6855 -1.1026 -2.2280
  138OSM    C3S15019   3.303   1.712   6.671 -0.4558  0.0857 -0.4867
  138OSM    H3S15020   3.314   1.602   6.667 -0.4694  0.0735 -0.2392
  138OSM     O315021   3.179   1.733   6.603 -0.2446  0.0457 -0.3868
  138OSM    HO315022   3.202   1.753   6.512  0.3799  0.6046 -0.1074
  138OSM    C4S15023   3.275   1.749   6.809 -0.1871  0.6969 -0.3979
  138OSM    H4S15024   3.260   1.857   6.823 -2.4706  0.0222  3.9589
  138OSM    C5S15025   3.285   1.661   6.914 -0.1650  0.0879  0.6915
  138OSM    H5S15026   3.329   1.562   6.893 -0.5564  0.3838 -1.9000
  138OSM    C6S15027   3.263   1.674   7.061 -0.0406  0.7414  0.3641
  138OSM    H6S15028   3.351   1.624   7.107 -1.0059 -1.7944 -0.3800
  138OSM    H6T15029   3.169   1.618   7.080 -2.1041  3.6221 -0.6488
  138OSM    C7S15030   3.261   1.814   7.105  0.3349 -0.5348 -0.0900
  138OSM    H7S15031   3.166   1.863   7.076  0.2712  0.3348  1.4709
  138OSM    H7T15032   3.337   1.883   7.062 -0.3313  0.7228  0.6902
  138OSM    C8S15033   3.256   1.844   7.262 -0.5218 -0.3697  0.6741
  138OSM    H8S15034   3.357   1.816   7.298 -1.4886  0.5080  4.5786
  138OSM    H8T15035   3.176   1.795   7.323 -0.5612 -1.1906 -0.0257
  138OSM    C9S15036   3.234   1.991   7.292  0.4194 -0.5670  0.1153
  138OSM    H9S15037   3.148   2.024   7.230  1.6075 -1.4249 -2.0999
  138OSM    H9T15038   3.317   2.051   7.250  0.4503  0.0267  0.9922
  138OSM   C10S15039   3.222   2.035   7.440  0.1728 -0.1729  0.6384
  138OSM   H10S15040   3.147   1.980   7.501 -1.5350  1.9626  0.5843
  138OSM   H10T15041   3.200   2.144   7.431 -1.7598 -0.5442  0.3441
  138OSM   C11S15042   3.355   2.027   7.508  0.6098  0.6591 -0.4191
  138OSM   H11S15043   3.438   2.054   7.440  0.1390  0.0032 -1.2747
  138OSM   H11T15044   3.359   1.920   7.536 -0.0236  0.3750 -1.3656
  138OSM   C12S15045   3.354   2.111   7.638 -0.7340  0.5544  0.0531
  138OSM   H12S15046   3.285   2.072   7.716  1.1172 -1.7327  0.6556
  138OSM   H12T15047   3.318   2.216   7.634 -2.4679  0.0274  0.8231
  138OSM   C13S15048   3.490   2.120   7.705  0.4849 -0.0050 -0.3005
  138OSM   H13S15049   3.561   2.123   7.620  1.1659 -0.3035  0.2514
  138OSM   H13T15050   3.516   2.028   7.762 -2.0503 -0.3332  0.4550
  138OSM   C14S15051   3.510   2.245   7.790 -0.3134  0.2482 -0.2397
  138OSM   H14S15052   3.499   2.335   7.726  2.0228  1.4883  0.9745
  138OSM   H14T15053   3.613   2.241   7.832 -0.6445  0.2198  0.5681
  138OSM   C15S15054   3.418   2.263   7.910  0.3112  0.0668  0.0762
  138OSM   H15S15055   3.312   2.258   7.879  0.6690  1.8114 -1.5780
  138OSM   H15T15056   3.437   2.355   7.970 -1.5101  0.5757 -0.0797
  138OSM   C16S15057   3.439   2.154   8.015  0.1255 -0.4878  0.0895
  138OSM   H16S15058   3.547   2.135   8.034  0.2950 -1.6925 -1.8064
  138OSM   H16T15059   3.404   2.056   7.975 -0.9169 -0.0022 -0.2315
  138OSM   C17S15060   3.373   2.204   8.147 -0.2488 -0.3846  0.1127
  138OSM   H17S15061   3.265   2.178   8.150 -0.2911 -0.2127  0.0806
  138OSM   H17T15062   3.384   2.314   8.158  0.1876 -0.2070 -1.8719
  138OSM   C18S15063   3.448   2.152   8.276  0.5705 -0.1940  0.6927
  138OSM   H18S15064   3.555   2.183   8.270  0.5992 -0.4779 -0.9247
  138OSM   H18T15065   3.451   2.041   8.277 -1.9216 -0.3226  2.0427
  138OSM   H18U15066   3.397   2.189   8.367  0.0784  2.8806 -0.6908
  138OSM    C1F15067   3.677   1.804   6.611 -0.2441  0.5067 -0.5838
  138OSM     OF15068   3.680   1.876   6.511  0.9810  0.1414 -0.0998
  138OSM    C2F15069   3.803   1.757   6.679 -0.8934 -0.4290  0.1049
  138OSM    H2F15070   3.880   1.790   6.606  0.7716  2.9356  3.1171
  138OSM    H2G15071   3.812   1.649   6.704  0.7358  0.0230  1.6896
  138OSM    C3F15072   3.825   1.842   6.802  0.9220 -0.6940 -0.6571
  138OSM    H3F15073   3.804   1.950   6.790 -0.2624 -1.0351 -1.8060
  138OSM    H3G15074   3.929   1.835   6.840  0.2619  1.5647  1.9061
  138OSM    C4F15075   3.748   1.792   6.925 -0.2770  0.0114  0.0720
  138OSM    H4F15076   3.770   1.684   6.943 -1.5634 -0.5265 -1.3488
  138OSM    H4G15077   3.639   1.812   6.911 -0.7943 -1.5392  1.5052
  138OSM    C5F15078   3.778   1.877   7.049 -0.9936 -0.5395  0.6205
  138OSM    H5F15079   3.749   1.981   7.024  1.3721 -0.1348 -0.7530
  138OSM    H5G15080   3.886   1.893   7.067 -0.7534 -1.6838  0.2845
  138OSM    C6F15081   3.713   1.839   7.180  0.2783  0.5430  0.2040
  138OSM    H6F15082   3.734   1.731   7.194 -1.1433  0.0595 -1.0709
  138OSM    H6G15083   3.604   1.856   7.175 -0.0835 -0.9545  1.8474
  138OSM    C7F15084   3.753   1.922   7.295 -0.3319 -0.6678  0.1146
  138OSM    H7F15085   3.731   2.030   7.280 -0.5875 -0.2492  2.9118
  138OSM    H7G15086   3.862   1.910   7.309 -0.3719 -2.2733 -0.7640
  138OSM    C8F15087   3.683   1.891   7.422 -0.3207 -0.3441  0.0165
  138OSM    H8F15088   3.574   1.892   7.398 -0.6662  1.0462  1.4323
  138OSM    H8G15089   3.687   1.981   7.487 -0.4294 -0.6005  0.3812
  138OSM    C9F15090   3.708   1.767   7.494  0.2809  0.5987 -0.2318
  138OSM    H9F15091   3.675   1.676   7.441  3.1073 -2.0320  2.1282
  138OSM   C10F15092   3.756   1.749   7.618  0.2926  0.0200 -0.3057
  138OSM   H10F15093   3.760   1.647   7.660 -1.1947  0.5082  1.1222
  138OSM   C11F15094   3.814   1.863   7.705 -0.0413  0.2045  0.0233
  138OSM   H11F15095   3.801   1.960   7.652  1.6760 -0.6887 -2.1902
  138OSM   H11G15096   3.924   1.851   7.720  0.0499 -2.3912 -2.0032
  138OSM   C12F15097   3.756   1.852   7.847 -0.2321  0.6243  0.1653
  138OSM   H12F15098   3.654   1.896   7.841 -0.6752 -0.5384 -1.2241
  138OSM   H12G15099   3.820   1.919   7.909 -0.6242  1.1698 -0.0039
  138OSM   C13F15100   3.748   1.711   7.908 -0.9955  0.3067  0.2710
  138OSM   H13F15101   3.842   1.661   7.878 -1.4797 -0.1555 -0.5276
  138OSM   H13G15102   3.667   1.656   7.855 -1.5197  1.1650  0.1715
  138OSM   C14F15103   3.713   1.703   8.057  0.4478 -0.0141  0.1787
  138OSM   H14F15104   3.614   1.751   8.071  0.4228 -0.2470  0.8404
  138OSM   H14G15105   3.792   1.758   8.113 -0.1624  2.6869 -1.4804
  138OSM   C15F15106   3.700   1.560   8.113  0.3641  0.2745 -0.3422
  138OSM   H15F15107   3.790   1.502   8.083  1.5794  1.6837  0.4645
  138OSM   H15G15108   3.608   1.519   8.066 -0.5742  2.8837 -0.9843
  138OSM   C16F15109   3.679   1.545   8.269 -0.3759  0.1010 -0.0167
  138OSM   H16F15110   3.760   1.611   8.307  1.5350 -1.6862 -0.8053
  138OSM   H16G15111   3.705   1.450   8.320  1.7441  1.2715  1.2613
  138OSM   C17F15112   3.547   1.602   8.304 -0.5334  0.0971 -0.5411
  138OSM   H17F15113   3.465   1.535   8.272 -0.7304  0.5552 -1.0058
  138OSM   H17G15114   3.534   1.700   8.255  0.5212  1.6971  2.1273
  138OSM   C18F15115   3.526   1.625   8.459 -0.0769  1.4430  0.0096
  138OSM   H18F15116   3.419   1.643   8.482 -0.0653  2.2068 -0.4857
  138OSM   H18G15117   3.587   1.712   8.493 -0.1733  0.9339  1.5757
  138OSM   H18H15118   3.564   1.531   8.504 -0.6919  0.6804 -1.0115
  139OSM      N15119   2.046   3.587   6.026 -0.6099 -0.4039  0.1300
  139OSM    C1515120   2.034   3.666   6.154 -0.1496 -0.1604  0.6409
  139OSM   H15A15121   1.992   3.610   6.236  0.3923  1.1513  1.8444
  139OSM   H15B15122   1.981   3.758   6.135  1.0464  0.3464 -0.3589
  139OSM   H15C15123   2.131   3.701   6.184 -0.1405 -0.3993  0.8967
  139OSM    C1415124   2.104   3.668   5.912 -0.4526  0.1246 -0.0454
  139OSM   H14A15125   2.202   3.706   5.935 -0.1466 -0.8552  0.2946
  139OSM   H14B15126   2.053   3.763   5.898 -1.4429 -0.4023 -0.1247
  139OSM   H14C15127   2.106   3.615   5.818  0.7633 -0.7655  0.4683
  139OSM    C1315128   2.135   3.472   6.048 -0.4099 -0.2590 -0.5639
  139OSM   H13A15129   2.153   3.424   5.953 -1.0312 -0.9555 -0.3363
  139OSM   H13B15130   2.083   3.402   6.112 -0.6951 -1.0265 -1.6171
  139OSM   H13C15131   2.221   3.502   6.107 -0.6582 -1.8675  0.6963
  139OSM    C1215132   1.902   3.545   5.992 -0.1850 -0.1853  0.0544
  139OSM   H12A15133   1.903   3.495   5.897 -1.0875 -1.3677  0.6333
  139OSM   H12B15134   1.841   3.633   5.979 -0.7157 -0.2855  1.6189
  139OSM    C1115135   1.828   3.450   6.089  0.2471  0.2358 -0.0524
  139OSM   H11A15136   1.724   3.440   6.050  0.6959 -0.4818 -1.1415
  139OSM   H11B15137   1.816   3.493   6.191  2.0012  0.8496 -0.0773
  139OSM      P15138   1.872   3.217   5.986  0.0819  0.5953 -0.2779
  139OSM    O1315139   1.813   3.284   5.867  0.2122 -0.2026  0.2967
  139OSM    O1415140   1.999   3.145   5.966 -0.2723 -0.5619 -0.1057
  139OSM    O1115141   1.770   3.121   6.053 -0.1259  0.0050 -0.2755
  139OSM    O1215142   1.897   3.324   6.100  0.9343 -0.1043  0.3512
  139OSM    C1S15143   1.799   3.001   6.132 -0.6062  0.5257 -0.3373
  139OSM    H1S15144   1.909   2.987   6.123 -0.4311  1.5188  0.1226
  139OSM    H1T15145   1.741   2.916   6.091 -1.2909 -0.8423  3.1017
  139OSM     NF15146   1.819   2.927   6.370 -0.7151 -0.3129 -0.1409
  139OSM    HNF15147   1.757   2.859   6.408 -0.7624 -0.5071 -0.5712
  139OSM    C2S15148   1.761   3.029   6.283 -0.7641  0.1921 -0.5066
  139OSM    H2S15149   1.806   3.129   6.300  2.2682 -1.0275 -0.6692
  139OSM    C3S15150   1.613   3.048   6.306 -0.1099 -0.0377  0.1424
  139OSM    H3S15151   1.568   2.962   6.252  0.7170  0.7127 -1.8126
  139OSM     O315152   1.549   3.156   6.237 -0.1560 -0.1011 -0.1263
  139OSM    HO315153   1.615   3.186   6.175 -0.0123  0.3194  0.2301
  139OSM    C4S15154   1.575   3.043   6.455 -0.9406 -0.7099  0.3684
  139OSM    H4S15155   1.517   2.955   6.487 -0.8318 -0.0089  2.6630
  139OSM    C5S15156   1.611   3.124   6.558 -0.7192  0.0176  0.4284
  139OSM    H5S15157   1.667   3.217   6.541 -0.1181 -0.2982  0.6665
  139OSM    C6S15158   1.564   3.105   6.696  0.3684 -0.6290 -0.2392
  139OSM    H6S15159   1.482   3.030   6.697 -0.1538 -0.0787 -0.4546
  139OSM    H6T15160   1.512   3.199   6.726  1.1343  0.0854 -1.0901
  139OSM    C7S15161   1.674   3.061   6.800 -0.1680 -0.0757  0.0473
  139OSM    H7S15162   1.742   3.147   6.785 -0.4008  0.0200 -0.4808
  139OSM    H7T15163   1.723   2.968   6.764 -1.3392 -0.8205  0.3130
  139OSM    C8S15164   1.617   3.044   6.940  0.1442 -0.1110 -0.7760
  139OSM    H8S15165   1.579   2.942   6.964  0.6749  0.3965  2.8325
  139OSM    H8T15166   1.545   3.125   6.965  0.1596  0.1736 -1.6379
  139OSM    C9S15167   1.721   3.072   7.048 -0.0480 -0.6876 -0.0936
  139OSM    H9S15168   1.742   3.181   7.035  2.3385 -1.0464  0.2102
  139OSM    H9T15169   1.819   3.021   7.036  0.7240  0.1356  2.1784
  139OSM   C10S15170   1.677   3.039   7.192  0.8827  0.3765  0.2039
  139OSM   H10S15171   1.652   2.930   7.194  1.4115  0.2399 -0.4394
  139OSM   H10T15172   1.581   3.092   7.206  1.9170  3.0724 -2.1314
  139OSM   C11S15173   1.771   3.068   7.309  0.2554  0.3399 -0.0335
  139OSM   H11S15174   1.771   3.179   7.317 -0.5165  0.4075 -0.7434
  139OSM   H11T15175   1.876   3.041   7.287 -0.2261 -0.8066 -1.0491
  139OSM   C12S15176   1.714   2.991   7.432 -0.7588  0.3128 -0.4024
  139OSM   H12S15177   1.717   2.882   7.415 -1.4831  0.3999 -1.1586
  139OSM   H12T15178   1.606   3.015   7.438 -0.8227  0.1071 -0.7601
  139OSM   C13S15179   1.796   3.017   7.560 -0.1883  0.1610  0.5660
  139OSM   H13S15180   1.809   3.127   7.563  0.2517  0.5515 -5.0947
  139OSM   H13T15181   1.901   2.983   7.553  0.1204  0.9995  0.9321
  139OSM   C14S15182   1.738   2.974   7.696 -0.7583  0.1426 -0.0725
  139OSM   H14S15183   1.738   2.864   7.707  2.5276  0.0451 -0.0699
  139OSM   H14T15184   1.637   3.020   7.698 -0.0317  1.8402 -0.4230
  139OSM   C15S15185   1.829   3.013   7.807  0.0751 -0.6531 -0.3381
  139OSM   H15S15186   1.814   3.122   7.823 -1.7620 -1.1125  1.5148
  139OSM   H15T15187   1.936   2.990   7.788  0.8363 -2.1872  4.3860
  139OSM   C16S15188   1.795   2.960   7.942  0.1440 -0.2233 -0.6246
  139OSM   H16S15189   1.813   2.851   7.949  1.2112 -0.1732 -2.1697
  139OSM   H16T15190   1.685   2.971   7.953  0.4125  1.4839  0.8941
  139OSM   C17S15191   1.857   3.034   8.061 -0.0038  0.3000 -0.3756
  139OSM   H17S15192   1.843   3.143   8.042  0.2823 -0.1098 -3.4452
  139OSM   H17T15193   1.965   3.014   8.079 -0.3723  0.0170  1.7015
  139OSM   C18S15194   1.793   2.988   8.193  0.0108  0.5642 -0.0485
  139OSM   H18S15195   1.830   2.887   8.221 -0.2468  0.0696 -1.4356
  139OSM   H18T15196   1.687   2.965   8.172 -0.0940  0.4221  0.6271
  139OSM   H18U15197   1.799   3.067   8.271 -0.2578  0.3664  0.1727
  139OSM    C1F15198   1.956   2.916   6.373 -0.0887  0.3688 -0.6500
  139OSM     OF15199   2.031   2.997   6.327  0.7670 -0.8035  0.4677
  139OSM    C2F15200   2.008   2.786   6.430 -0.4691 -0.3332 -0.0483
  139OSM    H2F15201   2.094   2.754   6.368 -0.4683 -1.1942  0.3782
  139OSM    H2G15202   1.928   2.710   6.419 -0.3497 -0.1668 -2.6298
  139OSM    C3F15203   2.056   2.805   6.576  0.1017 -0.5076 -0.4286
  139OSM    H3F15204   2.123   2.892   6.591 -1.1201  0.1376  1.8284
  139OSM    H3G15205   2.129   2.723   6.592  0.9039  0.1741 -0.5269
  139OSM    C4F15206   1.936   2.810   6.669  0.3195  0.2423 -0.1604
  139OSM    H4F15207   1.876   2.717   6.662 -1.5298  1.1462  2.2179
  139OSM    H4G15208   1.858   2.882   6.636 -0.3065 -0.7659 -0.9446
  139OSM    C5F15209   1.978   2.848   6.814 -0.1152 -0.2560  0.3321
  139OSM    H5F15210   1.893   2.877   6.879  0.8782  1.2768  1.0141
  139OSM    H5G15211   2.039   2.938   6.792 -0.1714  0.1738  1.8286
  139OSM    C6F15212   2.058   2.742   6.900  0.2818 -0.2707  0.2950
  139OSM    H6F15213   2.162   2.746   6.861  0.5626  2.6473  1.0820
  139OSM    H6G15214   2.021   2.640   6.879  0.0137  0.1488 -1.4400
  139OSM    C7F15215   2.052   2.784   7.046  0.2086 -0.0298 -0.7164
  139OSM    H7F15216   2.096   2.710   7.117 -0.1272  1.7300  1.4267
  139OSM    H7G15217   1.944   2.791   7.073  0.0250  1.3709 -1.6865
  139OSM    C8F15218   2.105   2.921   7.086  0.1259 -0.3222  0.5479
  139OSM    H8F15219   2.092   2.922   7.197  1.8102 -0.2145  0.7826
  139OSM    H8G15220   2.031   2.996   7.050  0.4481 -1.5399 -3.0378
  139OSM    C9F15221   2.248   2.972   7.053  0.7841 -0.4188  0.3599
  139OSM    H9F15222   2.256   3.011   6.951 -2.4923  1.1663  0.5640
  139OSM   C10F15223   2.353   2.970   7.136  0.2104 -0.2278 -0.1869
  139OSM   H10F15224   2.451   3.004   7.099  0.1937 -1.1916 -1.1826
  139OSM   C11F15225   2.357   2.905   7.273 -0.9873  0.1278  0.5607
  139OSM   H11F15226   2.460   2.869   7.297  0.4701 -0.5838 -5.3194
  139OSM   H11G15227   2.288   2.819   7.269  2.7221 -3.1198 -0.1000
  139OSM   C12F15228   2.308   3.003   7.375  0.7711  0.0498 -0.0065
  139OSM   H12F15229   2.206   3.043   7.357  1.1382  0.1449 -2.0748
  139OSM   H12G15230   2.370   3.096   7.373 -1.0404  1.3088 -1.0404
  139OSM   C13F15231   2.308   2.932   7.517 -0.3530  0.3652 -0.2464
  139OSM   H13F15232   2.412   2.897   7.539 -0.6836 -0.3964  0.1450
  139OSM   H13G15233   2.251   2.838   7.505  2.0346 -1.2968  0.6482
  139OSM   C14F15234   2.253   3.016   7.633  0.3275  0.7734 -0.4427
  139OSM   H14F15235   2.143   3.033   7.628 -0.0021 -0.4872  1.3435
  139OSM   H14G15236   2.290   3.120   7.632 -1.9624  1.6414 -0.2641
  139OSM   C15F15237   2.266   2.934   7.768  0.6454  0.5224 -0.5417
  139OSM   H15F15238   2.353   2.868   7.786 -0.9159 -1.0787  1.5157
  139OSM   H15G15239   2.181   2.862   7.762  1.4619 -0.3750 -1.8744
  139OSM   C16F15240   2.255   3.021   7.891  0.2719  0.2998 -0.2271
  139OSM   H16F15241   2.159   3.076   7.898  0.3697  0.5589 -0.8451
  139OSM   H16G15242   2.342   3.091   7.889  2.4384 -2.1705  0.7363
  139OSM   C17F15243   2.262   2.928   8.015  0.0613 -0.0215  0.6900
  139OSM   H17F15244   2.338   2.848   7.995  2.1889  2.2606 -1.0799
  139OSM   H17G15245   2.164   2.876   8.011  0.4489 -0.6962 -1.3118
  139OSM   C18F15246   2.274   2.999   8.148 -0.0417 -0.4539 -0.6648
  139OSM   H18F15247   2.321   2.945   8.233  0.2263 -0.8432 -1.0560
  139OSM   H18G15248   2.174   3.029   8.185  0.5673  1.6875 -0.6354
  139OSM   H18H15249   2.341   3.088   8.141  3.1244 -2.4752  1.4134
  140OSM      N15250   1.988   4.832   6.199  0.3815  0.5273  0.4008
  140OSM    C1515251   1.913   4.948   6.265  0.0823 -0.1649 -0.0109
  140OSM   H15A15252   1.853   4.915   6.348 -1.7965  2.2353 -0.2858
  140OSM   H15B15253   1.848   4.987   6.188  1.6179 -0.7522 -1.6865
  140OSM   H15C15254   1.980   5.030   6.288 -1.9921  1.3401  1.0162
  140OSM    C1415255   1.895   4.724   6.189  0.0087 -0.5859 -0.2621
  140OSM   H14A15256   1.912   4.660   6.104  0.3775  1.1054 -1.5230
  140OSM   H14B15257   1.794   4.758   6.174  0.3975  0.1975 -1.3345
  140OSM   H14C15258   1.903   4.659   6.275 -0.0981 -2.0432 -1.3124
  140OSM    C1315259   2.028   4.879   6.060 -0.1668 -0.7751 -0.8012
  140OSM   H13A15260   2.108   4.951   6.055 -0.3279 -0.4899  0.3009
  140OSM   H13B15261   1.948   4.934   6.015  0.5139  0.4797 -0.5287
  140OSM   H13C15262   2.064   4.793   6.005  0.0427 -0.5000 -1.0962
  140OSM    C1215263   2.118   4.798   6.269 -0.2446 -0.6835 -0.0795
  140OSM   H12A15264   2.187   4.879   6.256  0.3298 -1.1565  0.0029
  140OSM   H12B15265   2.166   4.712   6.225  1.4029 -0.1211  0.5444
  140OSM    C1115266   2.113   4.750   6.417 -0.3537 -0.7300 -1.1058
  140OSM   H11A15267   2.060   4.653   6.416 -1.1586 -0.3220 -0.2952
  140OSM   H11B15268   2.051   4.816   6.482  1.1913 -0.5545  0.2682
  140OSM      P15269   2.336   4.603   6.417  0.2109  0.0412  0.0546
  140OSM    O1315270   2.327   4.595   6.270  0.5813 -0.6572 -0.0456
  140OSM    O1415271   2.472   4.623   6.468  0.4128  0.1760 -0.2580
  140OSM    O1115272   2.269   4.465   6.467 -0.7882  0.1878 -0.3339
  140OSM    O1215273   2.249   4.726   6.472 -0.8108 -0.1050 -0.0867
  140OSM    C1S15274   2.299   4.431   6.604  0.1443 -0.1892  0.0930
  140OSM    H1S15275   2.302   4.521   6.670 -1.4674  0.5264 -0.7436
  140OSM    H1T15276   2.392   4.372   6.617 -0.9066 -2.0936 -0.6141
  140OSM     NF15277   2.196   4.342   6.806  0.6198  0.0845 -0.1935
  140OSM    HNF15278   2.211   4.248   6.834 -0.1167 -0.0974 -0.3992
  140OSM    C2S15279   2.170   4.362   6.669  0.4347  0.5905  0.0470
  140OSM    H2S15280   2.081   4.427   6.654  0.1704 -0.0753 -1.4672
  140OSM    C3S15281   2.117   4.239   6.595 -0.1609 -0.9491 -0.8668
  140OSM    H3S15282   2.172   4.151   6.635 -0.8761 -1.0502 -0.0855
  140OSM     O315283   2.128   4.236   6.455 -0.2472  0.6128  0.6755
  140OSM    HO315284   2.175   4.316   6.429 -0.1066 -0.1154 -1.5600
  140OSM    C4S15285   1.972   4.210   6.644 -0.0255 -0.7284 -0.1036
  140OSM    H4S15286   1.972   4.142   6.730  0.1233 -0.8493 -0.1986
  140OSM    C5S15287   1.847   4.250   6.596 -0.3359 -0.4016 -0.5282
  140OSM    H5S15288   1.841   4.325   6.515 -1.4503 -0.6306 -0.6742
  140OSM    C6S15289   1.707   4.214   6.639  0.4498 -0.5910 -0.0691
  140OSM    H6S15290   1.661   4.132   6.581  0.2452 -0.6776  0.2146
  140OSM    H6T15291   1.642   4.303   6.623  2.1779  1.0979  1.6863
  140OSM    C7S15292   1.705   4.170   6.786 -0.5722  0.1922 -0.3987
  140OSM    H7S15293   1.749   4.254   6.843 -0.5598  0.2330 -0.4686
  140OSM    H7T15294   1.768   4.079   6.772 -0.1151  0.1352  1.7965
  140OSM    C8S15295   1.562   4.133   6.833 -0.5651 -0.3517 -0.0906
  140OSM    H8S15296   1.522   4.054   6.766  0.5585 -0.9748 -0.0539
  140OSM    H8T15297   1.499   4.224   6.834 -1.4071 -0.9252  1.3759
  140OSM    C9S15298   1.553   4.071   6.982 -0.7362 -0.3247 -0.0829
  140OSM    H9S15299   1.603   3.973   6.973 -0.0356  0.0565 -0.4904
  140OSM    H9T15300   1.443   4.054   6.989 -0.7226 -1.2906 -1.6713
  140OSM   C10S15301   1.603   4.160   7.097  0.7484  0.2210 -0.1559
  140OSM   H10S15302   1.534   4.236   7.138  0.0492 -1.3424  1.7590
  140OSM   H10T15303   1.705   4.197   7.073  0.1805  1.5286 -0.6011
  140OSM   C11S15304   1.628   4.069   7.224 -0.1039  0.7710 -0.5632
  140OSM   H11S15305   1.696   4.116   7.299  0.4507 -0.2753 -0.3946
  140OSM   H11T15306   1.686   3.982   7.186  1.8460  1.5908  0.3606
  140OSM   C12S15307   1.514   4.003   7.298  0.2136  0.4463 -0.6149
  140OSM   H12S15308   1.568   3.927   7.360  0.3362 -0.0874 -1.3548
  140OSM   H12T15309   1.452   3.954   7.220 -3.6891  2.9510  0.6422
  140OSM   C13S15310   1.430   4.094   7.392  0.8120 -0.4681  0.3245
  140OSM   H13S15311   1.338   4.044   7.430  0.7469 -0.8348 -0.2975
  140OSM   H13T15312   1.395   4.171   7.320 -2.7364 -0.6137  1.6613
  140OSM   C14S15313   1.510   4.149   7.505  0.0143  0.6724  0.3408
  140OSM   H14S15314   1.454   4.233   7.551 -1.0677  0.8976 -1.3104
  140OSM   H14T15315   1.608   4.195   7.479  0.5266  1.0878  2.7236
  140OSM   C15S15316   1.542   4.048   7.619 -0.0145 -0.2604  0.4076
  140OSM   H15S15317   1.610   4.091   7.695  2.1939 -1.9833 -0.4985
  140OSM   H15T15318   1.589   3.954   7.583  0.7611  0.9897 -2.1588
  140OSM   C16S15319   1.414   4.019   7.704  0.0208  0.4416 -0.5550
  140OSM   H16S15320   1.333   3.966   7.650  0.3625  0.5350 -1.1670
  140OSM   H16T15321   1.370   4.114   7.740 -1.8634 -0.7406  0.4069
  140OSM   C17S15322   1.452   3.933   7.826  0.0681 -0.1827  0.1350
  140OSM   H17S15323   1.524   3.995   7.884  0.7466 -0.7149 -0.1307
  140OSM   H17T15324   1.496   3.839   7.786 -1.2879 -0.1254 -1.5868
  140OSM   C18S15325   1.338   3.902   7.915  0.2612 -0.0953 -0.0496
  140OSM   H18S15326   1.364   3.837   8.001 -0.8045 -0.4193  0.0327
  140OSM   H18T15327   1.274   3.848   7.843  1.5938 -0.7723 -0.7637
  140OSM   H18U15328   1.266   3.982   7.942  1.1975  0.3314  1.3412
  140OSM    C1F15329   2.212   4.430   6.909 -0.3567  0.3816 -0.5978
  140OSM     OF15330   2.201   4.548   6.895 -0.6204 -0.6317  0.2417
  140OSM    C2F15331   2.234   4.357   7.044 -0.7292 -0.0006  0.3221
  140OSM    H2F15332   2.327   4.386   7.097  1.6334  0.7107 -3.7619
  140OSM    H2G15333   2.253   4.248   7.027  0.7946  0.1472  0.8738
  140OSM    C3F15334   2.118   4.375   7.133  0.5603  0.1512  0.3874
  140OSM    H3F15335   2.037   4.324   7.076 -0.2658  2.7602 -0.9276
  140OSM    H3G15336   2.084   4.477   7.160 -1.2684  0.2151 -1.8844
  140OSM    C4F15337   2.156   4.312   7.268  0.6149  0.1175  0.1116
  140OSM    H4F15338   2.217   4.395   7.309  1.8834 -1.0522  0.6725
  140OSM    H4G15339   2.207   4.213   7.263 -1.1303 -0.7862 -1.0015
  140OSM    C5F15340   2.021   4.283   7.348 -0.5974  0.3287  0.1878
  140OSM    H5F15341   1.970   4.201   7.293  0.7333 -0.2422 -0.2545
  140OSM    H5G15342   1.951   4.369   7.349 -1.4268 -0.3185  1.9131
  140OSM    C6F15343   2.038   4.228   7.495  0.0025  0.2672  0.5410
  140OSM    H6F15344   2.062   4.315   7.561  1.0901  1.4502 -1.3137
  140OSM    H6G15345   2.132   4.168   7.489  1.4851  2.5509 -0.7278
  140OSM    C7F15346   1.923   4.145   7.529  0.6162  0.2219  0.5396
  140OSM    H7F15347   1.904   4.055   7.466  0.1871 -0.3483  1.4716
  140OSM    H7G15348   1.836   4.206   7.496 -0.4787 -1.2673  0.5837
  140OSM    C8F15349   1.918   4.097   7.675  0.4412 -0.0934 -0.7161
  140OSM    H8F15350   2.009   4.044   7.709 -1.8623 -2.8070  1.7316
  140OSM    H8G15351   1.826   4.036   7.684 -1.4711  2.6667 -0.2602
  140OSM    C9F15352   1.895   4.224   7.764 -0.2546  0.0954 -0.0715
  140OSM    H9F15353   1.889   4.316   7.704  1.6518  0.7630  0.6802
  140OSM   C10F15354   1.898   4.229   7.897 -0.2936  0.0250  0.1787
  140OSM   H10F15355   1.869   4.320   7.952  0.0759  0.3293 -0.1245
  140OSM   C11F15356   1.925   4.110   7.988 -0.7140  0.2446 -0.2491
  140OSM   H11F15357   1.943   4.020   7.926 -1.0019  0.2632 -0.3591
  140OSM   H11G15358   1.841   4.086   8.056 -2.1548 -1.7209 -2.5792
  140OSM   C12F15359   2.047   4.140   8.081 -0.1736  0.0235  0.1071
  140OSM   H12F15360   2.140   4.168   8.028  0.5025 -1.9962  0.1240
  140OSM   H12G15361   2.071   4.050   8.142  3.1945  0.2414 -0.7159
  140OSM   C13F15362   2.028   4.249   8.192  0.3317  0.4861 -0.2563
  140OSM   H13F15363   1.940   4.224   8.253 -0.0709 -0.4791 -1.1967
  140OSM   H13G15364   2.024   4.349   8.144 -1.3375 -0.0216 -1.2352
  140OSM   C14F15365   2.142   4.254   8.299 -0.0945  0.1957  0.2414
  140OSM   H14F15366   2.143   4.163   8.363 -0.5164  2.2748  3.4189
  140OSM   H14G15367   2.118   4.342   8.362  1.5626  0.6995  0.2211
  140OSM   C15F15368   2.279   4.262   8.233 -0.0717 -0.4350 -0.0054
  140OSM   H15F15369   2.280   4.343   8.156  2.4937  0.6582  1.0675
  140OSM   H15G15370   2.304   4.165   8.187  3.5429  0.7400 -0.8330
  140OSM   C16F15371   2.381   4.297   8.341  0.7370  0.0602  0.2397
  140OSM   H16F15372   2.334   4.378   8.401 -2.2354 -2.2315  1.2678
  140OSM   H16G15373   2.476   4.332   8.295 -0.6647  1.9595 -1.3732
  140OSM   C17F15374   2.390   4.191   8.453  0.4239 -0.3328  0.8109
  140OSM   H17F15375   2.393   4.096   8.396 -1.9530  1.7212 -3.1974
  140OSM   H17G15376   2.297   4.193   8.514 -0.3473 -1.7310 -0.2585
  140OSM   C18F15377   2.509   4.212   8.543 -0.2943 -0.1215  0.0227
  140OSM   H18F15378   2.499   4.309   8.598 -0.3427  0.8923 -1.6963
  140OSM   H18G15379   2.592   4.210   8.469  0.0767 -2.0197  0.4600
  140OSM   H18H15380   2.529   4.143   8.627  0.8647 -0.1175 -0.2384
  141OSM      N15381   3.856   6.096   6.172  0.6882  0.7899  0.0413
  141OSM    C1515382   3.862   5.958   6.108  0.0495 -0.3105  0.7251
  141OSM   H15A15383   3.772   5.903   6.134 -0.7938 -0.0877 -1.4687
  141OSM   H15B15384   3.961   5.917   6.113  2.1427  4.0784  0.0549
  141OSM   H15C15385   3.846   5.974   6.002  0.4039 -0.1993  0.6893
  141OSM    C1415386   3.921   6.083   6.309 -0.0412 -0.1696 -0.5373
  141OSM   H14A15387   3.952   6.175   6.356  2.9188 -1.1374 -0.4053
  141OSM   H14B15388   4.017   6.034   6.302  0.2155  0.0400  1.0919
  141OSM   H14C15389   3.867   6.036   6.390  0.6888  0.9883  0.6451
  141OSM    C1315390   3.933   6.190   6.087 -0.2130 -0.0730 -0.4417
  141OSM   H13A15391   3.864   6.227   6.013  1.0958 -0.2783 -1.8250
  141OSM   H13B15392   4.008   6.143   6.024 -0.3773  1.2274 -1.6598
  141OSM   H13C15393   3.983   6.273   6.134  0.5590 -0.3743 -0.7139
  141OSM    C1215394   3.706   6.140   6.200 -0.5541 -0.6048  0.1873
  141OSM   H12A15395   3.669   6.177   6.105  2.4053 -0.1088 -0.8773
  141OSM   H12B15396   3.702   6.228   6.264  0.4191  0.2963 -0.9301
  141OSM    C1115397   3.611   6.035   6.258 -0.5118  0.3937  0.5407
  141OSM   H11A15398   3.526   6.087   6.307 -1.2939 -2.9034  2.9943
  141OSM   H11B15399   3.673   5.979   6.332 -2.7257 -1.9059  0.7873
  141OSM      P15400   3.503   5.803   6.188 -0.3354 -0.0329 -0.1150
  141OSM    O1315401   3.407   5.754   6.091 -0.3123 -0.2310 -0.1754
  141OSM    O1415402   3.623   5.720   6.199 -0.1567  0.0505  0.6803
  141OSM    O1115403   3.438   5.823   6.325 -0.1304  0.6341 -0.3978
  141OSM    O1215404   3.558   5.945   6.152 -0.2115 -0.0512 -0.0503
  141OSM    C1S15405   3.311   5.887   6.345  0.1619 -0.1099  0.0753
  141OSM    H1S15406   3.233   5.849   6.275 -0.0706  1.4582 -0.5580
  141OSM    H1T15407   3.325   5.996   6.331  0.3841  0.0258  1.2186
  141OSM     NF15408   3.152   5.905   6.535  0.1261  0.6580 -0.8015
  141OSM    HNF15409   3.134   5.987   6.588  0.7322 -0.3025  0.9498
  141OSM    C2S15410   3.285   5.875   6.500 -0.7314 -0.5632 -0.1312
  141OSM    H2S15411   3.301   5.768   6.523 -0.9445 -1.1033 -2.3073
  141OSM    C3S15412   3.387   5.971   6.578 -0.2060 -0.5239  0.7809
  141OSM    H3S15413   3.374   6.074   6.540  0.3940  0.1128  2.2384
  141OSM     O315414   3.526   5.940   6.557 -0.1791 -0.5494  0.4599
  141OSM    HO315415   3.535   5.902   6.470 -2.4353  0.9759 -0.5362
  141OSM    C4S15416   3.368   5.961   6.725 -0.5083 -0.3603 -0.2005
  141OSM    H4S15417   3.385   5.860   6.766 -1.2671 -0.6537 -0.5961
  141OSM    C5S15418   3.343   6.066   6.799 -0.5986  0.3354 -0.6697
  141OSM    H5S15419   3.326   6.166   6.756  2.4672  0.5848 -1.5948
  141OSM    C6S15420   3.340   6.065   6.953  0.2211 -0.0476 -0.1244
  141OSM    H6S15421   3.251   6.118   6.992  0.7228  0.0970  0.8500
  141OSM    H6T15422   3.412   6.139   6.995 -2.1446  1.2343  1.9343
  141OSM    C7S15423   3.334   5.929   7.019 -0.0883  0.2805  0.7867
  141OSM    H7S15424   3.439   5.893   7.008 -0.4630 -0.3293 -1.1811
  141OSM    H7T15425   3.260   5.861   6.971 -0.5302  2.1558 -1.3468
  141OSM    C8S15426   3.309   5.943   7.167 -0.4632 -0.4064  0.0402
  141OSM    H8S15427   3.361   6.036   7.198 -0.2574  0.3908 -2.5112
  141OSM    H8T15428   3.356   5.858   7.222  1.5232  1.2775  1.0895
  141OSM    C9S15429   3.162   5.941   7.204  0.4298 -0.5340 -0.8701
  141OSM    H9S15430   3.125   5.838   7.188 -0.7034 -0.1702 -0.6697
  141OSM    H9T15431   3.108   6.010   7.136 -1.9896 -1.4891 -0.0114
  141OSM   C10S15432   3.137   5.994   7.343 -0.6878  0.4618 -0.2205
  141OSM   H10S15433   3.037   6.038   7.365 -0.2472  1.0042  0.7906
  141OSM   H10T15434   3.209   6.078   7.354  2.4096 -2.0466 -0.0420
  141OSM   C11S15435   3.180   5.899   7.454 -0.2188  0.0558 -0.3931
  141OSM   H11S15436   3.291   5.892   7.447 -0.2950 -0.2830 -1.3634
  141OSM   H11T15437   3.136   5.798   7.440  1.2091 -0.5388 -0.8165
  141OSM   C12S15438   3.132   5.952   7.592 -0.4563 -0.0238 -1.1279
  141OSM   H12S15439   3.026   5.983   7.598  0.3106  2.8999 -1.1323
  141OSM   H12T15440   3.193   6.042   7.611  0.6469 -1.0466  0.4611
  141OSM   C13S15441   3.154   5.847   7.704  0.1815  0.6635 -0.1774
  141OSM   H13S15442   3.263   5.826   7.712  0.2503  1.5709  1.7328
  141OSM   H13T15443   3.100   5.752   7.680  1.7400  0.1706 -1.9717
  141OSM   C14S15444   3.089   5.892   7.837 -0.0661  0.7261  0.5817
  141OSM   H14S15445   2.979   5.881   7.835  0.1843 -3.0973 -1.4187
  141OSM   H14T15446   3.113   6.000   7.845  0.2832  0.7755 -0.8213
  141OSM   C15S15447   3.155   5.820   7.958 -0.0456  0.1303 -0.2383
  141OSM   H15S15448   3.265   5.833   7.948 -0.1715 -0.2053 -2.5876
  141OSM   H15T15449   3.140   5.710   7.953  1.2586 -0.0466 -0.5452
  141OSM   C16S15450   3.107   5.865   8.098 -1.0033 -0.0395 -0.0163
  141OSM   H16S15451   3.142   5.793   8.175 -0.0028  2.2538  1.7600
  141OSM   H16T15452   2.996   5.872   8.103 -0.9237  0.2960  2.2170
  141OSM   C17S15453   3.164   6.005   8.139  0.2686  0.6102  0.0092
  141OSM   H17S15454   3.145   6.076   8.056 -0.4430 -0.1477 -0.4947
  141OSM   H17T15455   3.274   6.005   8.152  0.0926  1.1687  1.6488
  141OSM   C18S15456   3.083   6.048   8.259 -0.0947 -0.4302 -0.3594
  141OSM   H18S15457   3.096   6.153   8.292  1.7448 -0.4514 -0.9085
  141OSM   H18T15458   3.112   5.989   8.349  2.8805 -0.9227 -1.5230
  141OSM   H18U15459   2.977   6.036   8.227  0.3805  1.5517 -3.0532
  141OSM    C1F15460   3.055   5.829   6.500  0.2663 -0.1893 -0.0957
  141OSM     OF15461   3.078   5.725   6.436  0.2507 -0.6291  0.0351
  141OSM    C2F15462   2.917   5.875   6.524 -0.1766 -0.5326 -0.4197
  141OSM    H2F15463   2.870   5.885   6.424 -2.2916  0.1170  0.5696
  141OSM    H2G15464   2.913   5.983   6.548 -0.0389 -0.1360 -2.0548
  141OSM    C3F15465   2.834   5.791   6.631 -0.2381 -0.3574 -0.5154
  141OSM    H3F15466   2.834   5.683   6.605 -1.7745 -0.6897  0.7428
  141OSM    H3G15467   2.728   5.826   6.635  0.0592  0.4641  0.7309
  141OSM    C4F15468   2.894   5.819   6.775 -0.4849 -0.3925  0.5225
  141OSM    H4F15469   2.896   5.924   6.813 -3.0123 -0.0516 -0.1059
  141OSM    H4G15470   2.997   5.780   6.773 -1.0859 -2.0604 -0.8793
  141OSM    C5F15471   2.809   5.753   6.881  0.2141  0.3122 -0.0789
  141OSM    H5F15472   2.822   5.644   6.863  2.0308  0.5638 -0.4485
  141OSM    H5G15473   2.704   5.780   6.858  0.4102 -0.1876 -1.6433
  141OSM    C6F15474   2.836   5.801   7.027  0.4091  0.6256 -0.0842
  141OSM    H6F15475   2.841   5.911   7.044 -0.2183  0.7954 -0.9312
  141OSM    H6G15476   2.930   5.754   7.062 -0.4146 -0.4250  0.8069
  141OSM    C7F15477   2.735   5.736   7.123 -0.3304 -1.5437  0.4485
  141OSM    H7F15478   2.758   5.628   7.134 -1.4345 -1.8156  0.1556
  141OSM    H7G15479   2.631   5.734   7.084 -0.2330 -1.5753  0.1916
  141OSM    C8F15480   2.732   5.804   7.266  0.8567 -0.4604 -0.1351
  141OSM    H8F15481   2.635   5.775   7.312  0.1808  2.4784  0.4682
  141OSM    H8G15482   2.726   5.914   7.255 -0.0054 -0.5902 -1.2052
  141OSM    C9F15483   2.848   5.769   7.359  0.7241  0.0911  0.1481
  141OSM    H9F15484   2.927   5.845   7.357  0.4500  0.3714 -0.2383
  141OSM   C10F15485   2.866   5.665   7.436  0.4923 -0.2483 -0.6337
  141OSM   H10F15486   2.958   5.667   7.496  1.1011  1.4563 -1.5609
  141OSM   C11F15487   2.768   5.552   7.456  0.0185 -0.7644  0.5050
  141OSM   H11F15488   2.811   5.461   7.410 -0.4319 -0.8371  0.2155
  141OSM   H11G15489   2.674   5.571   7.399 -0.1232  1.8467  1.4508
  141OSM   C12F15490   2.732   5.512   7.602 -0.3971 -0.3134 -0.3284
  141OSM   H12F15491   2.831   5.492   7.649  0.3731  2.8836 -0.3951
  141OSM   H12G15492   2.666   5.422   7.603 -1.0052  0.1308 -0.3774
  141OSM   C13F15493   2.678   5.629   7.686 -0.3435 -0.4262  0.0380
  141OSM   H13F15494   2.580   5.661   7.646 -0.3870  0.6372  0.9334
  141OSM   H13G15495   2.738   5.719   7.662  0.9108 -1.1049  0.5312
  141OSM   C14F15496   2.668   5.592   7.830 -0.7131 -0.5159 -0.3221
  141OSM   H14F15497   2.769   5.562   7.866 -0.1153 -0.1788 -1.6399
  141OSM   H14G15498   2.602   5.505   7.848 -0.9716  0.1486  2.4884
  141OSM   C15F15499   2.618   5.704   7.919 -0.2834 -0.0019 -0.4944
  141OSM   H15F15500   2.576   5.662   8.012 -1.6498  0.1132 -1.0412
  141OSM   H15G15501   2.532   5.752   7.869 -0.1770  1.1169  0.3529
  141OSM   C16F15502   2.712   5.821   7.940  0.1078 -0.4620  0.5595
  141OSM   H16F15503   2.745   5.860   7.841  0.4949  0.1369  0.9198
  141OSM   H16G15504   2.805   5.796   7.995 -1.4050  1.0723  4.1288
  141OSM   C17F15505   2.649   5.941   8.019  0.5449  0.2188 -0.0656
  141OSM   H17F15506   2.553   5.967   7.969  0.0454 -1.2300  0.0975
  141OSM   H17G15507   2.717   6.027   8.002 -0.6938  1.0907 -0.7814
  141OSM   C18F15508   2.630   5.919   8.171  0.0932 -0.1248 -0.3626
  141OSM   H18F15509   2.728   5.900   8.219 -1.1629  0.4147  2.7013
  141OSM   H18G15510   2.575   5.825   8.197 -3.6334  2.3489  1.6996
  141OSM   H18H15511   2.591   6.006   8.228  0.4646 -0.0685 -0.1927
  142OSM      N15512   3.707   1.368   5.936  0.7373 -0.8047 -0.0389
  142OSM    C1515513   3.850   1.377   5.983  0.5329  0.1848  0.5113
  142OSM   H15A15514   3.917   1.416   5.908  0.3918 -2.7229 -1.2476
  142OSM   H15B15515   3.883   1.293   6.043 -2.8080 -1.0113  0.8793
  142OSM   H15C15516   3.840   1.459   6.053 -1.1250 -0.9971  1.7222
  142OSM    C1415517   3.680   1.491   5.859 -0.3366 -0.1369  0.1340
  142OSM   H14A15518   3.586   1.476   5.808  0.4238  1.1808 -1.7939
  142OSM   H14B15519   3.755   1.512   5.784  1.0864 -0.1402  1.5134
  142OSM   H14C15520   3.675   1.584   5.915  1.1485  0.8002 -1.1865
  142OSM    C1315521   3.696   1.249   5.846 -0.6288  0.2419 -0.3323
  142OSM   H13A15522   3.734   1.163   5.900  1.4303  1.2096 -0.1363
  142OSM   H13B15523   3.770   1.264   5.769  1.7558  0.2965  1.8307
  142OSM   H13C15524   3.599   1.224   5.807  0.2098 -1.4061 -1.5113
  142OSM    C1215525   3.613   1.339   6.049 -0.4587 -0.0806  0.5219
  142OSM   H12A15526   3.662   1.262   6.107 -4.5770 -2.1625  1.6375
  142OSM   H12B15527   3.521   1.291   6.018 -2.5054  3.5376  0.4896
  142OSM    C1115528   3.568   1.459   6.132  0.7126 -0.1679 -0.0248
  142OSM   H11A15529   3.486   1.425   6.198 -0.3155  2.7550  0.3375
  142OSM   H11B15530   3.524   1.535   6.064  0.1166 -1.2566 -0.8944
  142OSM      P15531   3.737   1.441   6.329  0.0551 -0.1716  0.0340
  142OSM    O1315532   3.766   1.299   6.299 -0.9630  0.7017  0.1542
  142OSM    O1415533   3.840   1.524   6.389 -0.8088 -0.0917 -0.0068
  142OSM    O1115534   3.609   1.442   6.416  0.1638 -0.6323 -0.3018
  142OSM    O1215535   3.671   1.517   6.210  0.4032  0.1916 -0.3216
  142OSM    C1S15536   3.608   1.375   6.542 -0.0043 -0.0220 -0.6058
  142OSM    H1S15537   3.680   1.436   6.601  1.0462 -0.2926 -1.5670
  142OSM    H1T15538   3.654   1.274   6.542  0.0206 -0.0122 -1.2179
  142OSM     NF15539   3.491   1.321   6.738 -0.6430 -0.4498  0.0044
  142OSM    HNF15540   3.444   1.238   6.770 -1.6291  0.2027  0.2848
  142OSM    C2S15541   3.467   1.349   6.604 -0.2196 -0.0471  0.7540
  142OSM    H2S15542   3.415   1.447   6.606  0.4703  0.3843 -0.8561
  142OSM    C3S15543   3.375   1.259   6.521 -0.4359  0.3547 -0.9006
  142OSM    H3S15544   3.428   1.162   6.508  1.3968  1.4174 -1.7122
  142OSM     O315545   3.360   1.307   6.390  0.2841  0.0301  0.0934
  142OSM    HO315546   3.434   1.368   6.386 -0.1904  0.5383 -1.9939
  142OSM    C4S15547   3.241   1.233   6.591 -0.5239  0.2820 -0.0612
  142OSM    H4S15548   3.252   1.144   6.655 -0.9383  0.0945 -0.2459
  142OSM    C5S15549   3.129   1.311   6.596 -0.6368  0.5520  0.1809
  142OSM    H5S15550   3.136   1.420   6.577  0.8526  0.4053 -0.2511
  142OSM    C6S15551   3.011   1.276   6.679  0.0310 -0.3870 -0.3331
  142OSM    H6S15552   2.991   1.166   6.676 -0.3702 -0.3183 -0.2550
  142OSM    H6T15553   2.919   1.324   6.640  0.5384  0.5032 -0.4588
  142OSM    C7S15554   3.009   1.320   6.819 -0.3450 -0.9350  0.0488
  142OSM    H7S15555   2.908   1.311   6.866  0.6131 -0.1824  2.3960
  142OSM    H7T15556   3.034   1.426   6.839 -2.0101 -0.6191  0.6030
  142OSM    C8S15557   3.102   1.224   6.899 -0.1183  1.4467  0.6962
  142OSM    H8S15558   3.205   1.231   6.859 -1.0077  1.5542 -1.7062
  142OSM    H8T15559   3.063   1.121   6.881  1.7013  0.8101  0.2529
  142OSM    C9S15560   3.089   1.251   7.053  0.3998 -0.8916 -0.0076
  142OSM    H9S15561   2.986   1.256   7.095  0.6697  2.4583  0.5527
  142OSM    H9T15562   3.133   1.347   7.089 -0.3339 -0.5647  0.0401
  142OSM   C10S15563   3.163   1.142   7.131 -0.9111  0.4260  0.2918
  142OSM   H10S15564   3.268   1.126   7.100 -1.0546  0.5686 -0.2836
  142OSM   H10T15565   3.109   1.046   7.116 -0.9589  0.6384 -0.9308
  142OSM   C11S15566   3.169   1.172   7.284 -0.4513  0.4259 -0.6557
  142OSM   H11S15567   3.073   1.220   7.310 -0.3639 -0.5528  1.7240
  142OSM   H11T15568   3.246   1.251   7.303 -2.3175  2.8025 -2.2651
  142OSM   C12S15569   3.197   1.046   7.377 -0.3024  0.6253 -0.1015
  142OSM   H12S15570   3.304   1.017   7.370 -0.3885 -0.0989  1.1626
  142OSM   H12T15571   3.124   0.964   7.356 -1.4868  1.5270  0.3576
  142OSM   C13S15572   3.181   1.096   7.523  1.0769 -0.1736  0.1444
  142OSM   H13S15573   3.078   1.134   7.544  1.1673 -0.1971  0.6338
  142OSM   H13T15574   3.246   1.184   7.541 -0.6699  1.2385 -0.1986
  142OSM   C14S15575   3.204   1.001   7.644 -0.2203 -0.0910  0.3200
  142OSM   H14S15576   3.290   0.935   7.618 -0.7143  0.0810 -1.9447
  142OSM   H14T15577   3.118   0.932   7.629 -2.4752  2.4400  0.8366
  142OSM   C15S15578   3.205   1.080   7.773 -0.0217  0.6006 -0.3614
  142OSM   H15S15579   3.100   1.092   7.809 -0.5382 -1.1881 -1.1762
  142OSM   H15T15580   3.261   1.175   7.759  0.0084  0.5299 -0.7144
  142OSM   C16S15581   3.282   0.999   7.881 -0.0531  0.0017  0.3081
  142OSM   H16S15582   3.387   0.991   7.846  1.3681 -0.3252  4.0825
  142OSM   H16T15583   3.244   0.896   7.864 -0.6686 -0.0303  1.6658
  142OSM   C17S15584   3.272   1.048   8.020  0.0663 -0.1569 -0.1825
  142OSM   H17S15585   3.356   1.023   8.088 -0.0394  0.7858  0.3184
  142OSM   H17T15586   3.185   1.005   8.074  0.1427 -0.8280 -0.5933
  142OSM   C18S15587   3.258   1.206   8.037 -0.7135 -0.0630 -0.2548
  142OSM   H18S15588   3.200   1.238   8.127  0.5771  1.5042  0.0657
  142OSM   H18T15589   3.224   1.267   7.951  2.1736 -0.3250 -1.6843
  142OSM   H18U15590   3.364   1.239   8.040 -0.1238 -1.6821 -1.8744
  142OSM    C1F15591   3.538   1.403   6.834  0.0874  0.0482 -0.2902
  142OSM     OF15592   3.557   1.520   6.810 -0.2055  0.1446  0.1215
  142OSM    C2F15593   3.558   1.345   6.978 -0.1682 -0.5277  0.1862
  142OSM    H2F15594   3.618   1.252   6.969  1.2078  0.3200  0.4529
  142OSM    H2G15595   3.459   1.325   7.026 -0.0900  0.8283  0.9499
  142OSM    C3F15596   3.628   1.448   7.067  0.2435  0.2962  0.2474
  142OSM    H3F15597   3.577   1.546   7.078  2.2751  1.5298 -0.6566
  142OSM    H3G15598   3.728   1.460   7.019  0.9372  0.5451  1.6898
  142OSM    C4F15599   3.656   1.394   7.210  0.7761 -0.7195  0.1223
  142OSM    H4F15600   3.746   1.446   7.250  0.8595  0.3358 -1.3498
  142OSM    H4G15601   3.681   1.286   7.206  1.1567 -0.6596  0.6738
  142OSM    C5F15602   3.544   1.415   7.312  0.6274  0.1452 -0.3062
  142OSM    H5F15603   3.447   1.377   7.275  0.8703 -1.7879  0.8683
  142OSM    H5G15604   3.525   1.524   7.324  0.6571  0.1707 -0.4814
  142OSM    C6F15605   3.581   1.338   7.440 -0.5743 -0.5859  0.0818
  142OSM    H6F15606   3.690   1.341   7.461 -0.9928  1.7974  2.3715
  142OSM    H6G15607   3.552   1.235   7.412 -0.1719 -0.4686 -0.7957
  142OSM    C7F15608   3.505   1.378   7.565 -0.0441  0.4877 -0.4510
  142OSM    H7F15609   3.395   1.380   7.551 -0.1896  2.9646  0.4993
  142OSM    H7G15610   3.522   1.487   7.580  1.0208  0.2466  0.1779
  142OSM    C8F15611   3.543   1.292   7.680  0.3090 -0.2205 -0.4180
  142OSM    H8F15612   3.548   1.183   7.660  0.3706 -0.3325  0.1905
  142OSM    H8G15613   3.464   1.303   7.757 -0.4944  2.0423 -1.4841
  142OSM    C9F15614   3.675   1.340   7.739 -0.1011 -0.7960  0.4365
  142OSM    H9F15615   3.723   1.420   7.681 -0.2331  0.5287  2.0613
  142OSM   C10F15616   3.735   1.291   7.844  0.2606  0.5346 -0.2862
  142OSM   H10F15617   3.831   1.324   7.887  0.2335  0.2998 -0.0485
  142OSM   C11F15618   3.666   1.179   7.916 -0.0479 -0.0772 -0.0439
  142OSM   H11F15619   3.662   1.089   7.851 -1.3631  0.0187 -0.1361
  142OSM   H11G15620   3.559   1.200   7.939  0.0337  0.8296 -0.4440
  142OSM   C12F15621   3.746   1.146   8.045  0.3849 -0.1840  0.4227
  142OSM   H12F15622   3.732   1.239   8.103  0.2320  0.1445 -0.1398
  142OSM   H12G15623   3.855   1.129   8.033  0.7870  2.1344  0.4891
  142OSM   C13F15624   3.665   1.032   8.124 -0.0600 -0.3899 -0.3370
  142OSM   H13F15625   3.682   0.940   8.065 -0.9764  0.9102 -2.7589
  142OSM   H13G15626   3.556   1.048   8.109  0.2514  1.6124 -0.7041
  142OSM   C14F15627   3.682   1.025   8.282 -0.0670  0.0526 -0.1604
  142OSM   H14F15628   3.649   1.121   8.327 -0.4205 -0.6930  1.2037
  142OSM   H14G15629   3.786   0.996   8.308 -0.5015 -1.4266  0.0232
  142OSM   C15F15630   3.592   0.925   8.349 -0.7246 -0.7160  0.2198
  142OSM   H15F15631   3.645   0.861   8.423 -3.3916 -2.2764  0.9162
  142OSM   H15G15632   3.577   0.843   8.276  3.8516 -1.0087 -0.7000
  142OSM   C16F15633   3.470   0.993   8.412  0.5686  0.1833 -0.3998
  142OSM   H16F15634   3.409   1.049   8.338 -1.5917 -0.7003  0.6352
  142OSM   H16G15635   3.499   1.063   8.493  0.2721 -0.0540 -0.0834
  142OSM   C17F15636   3.377   0.886   8.470  0.2768  0.8687 -0.3455
  142OSM   H17F15637   3.430   0.846   8.559 -1.6201 -2.2050 -0.4859
  142OSM   H17G15638   3.375   0.809   8.390 -0.2406  0.6303 -0.1064
  142OSM   C18F15639   3.245   0.961   8.505 -0.2293 -0.2217  0.5097
  142OSM   H18F15640   3.281   1.030   8.584 -1.5667  0.9225  0.1631
  142OSM   H18G15641   3.169   0.898   8.556  1.5800 -1.8564  1.3264
  142OSM   H18H15642   3.197   1.005   8.415  2.6437  2.1961 -0.0106
  143OSM      N15643   3.733   2.783   6.322  0.5067 -0.5735 -0.2592
  143OSM    C1515644   3.673   2.888   6.236 -0.7020 -0.6255 -0.1730
  143OSM   H15A15645   3.687   2.982   6.288 -0.7458 -0.8750  0.3013
  143OSM   H15B15646   3.570   2.883   6.205 -0.9197 -1.0600  0.5783
  143OSM   H15C15647   3.729   2.898   6.144  0.5896  0.9607  0.7193
  143OSM    C1415648   3.772   2.671   6.237 -0.0503  0.1316 -0.2709
  143OSM   H14A15649   3.846   2.710   6.168 -0.2648  3.7964  1.3555
  143OSM   H14B15650   3.695   2.626   6.176  1.7545 -0.5237 -2.1989
  143OSM   H14C15651   3.815   2.588   6.290 -1.7622  0.7789  2.2728
  143OSM    C1315652   3.858   2.824   6.388 -0.6046  0.3966 -0.4316
  143OSM   H13A15653   3.903   2.734   6.427 -1.3112  0.4508  0.5404
  143OSM   H13B15654   3.844   2.893   6.470  0.5041 -1.2472  1.2264
  143OSM   H13C15655   3.926   2.872   6.319  1.4441 -1.0080  0.4973
  143OSM    C1215656   3.634   2.732   6.423  0.5043 -0.4692 -0.1576
  143OSM   H12A15657   3.593   2.822   6.465  2.4528 -0.1370  1.1470
  143OSM   H12B15658   3.683   2.670   6.497  0.0292 -0.6710 -0.0074
  143OSM    C1115659   3.516   2.649   6.369 -0.3288  0.0936  0.0020
  143OSM   H11A15660   3.483   2.576   6.446  1.1719  0.1694  0.7492
  143OSM   H11B15661   3.536   2.584   6.282  1.5543 -0.4330  0.7858
  143OSM      P15662   3.314   2.811   6.431  0.0418 -0.2571 -0.2349
  143OSM    O1315663   3.384   2.926   6.494  0.2148 -0.0713  0.0494
  143OSM    O1415664   3.203   2.850   6.334  0.1486 -0.6564  0.7329
  143OSM    O1115665   3.269   2.696   6.527  0.4317 -0.2925 -0.6174
  143OSM    O1215666   3.416   2.744   6.331 -0.6847  0.1131 -0.2759
  143OSM    C1S15667   3.332   2.657   6.650 -0.3737 -0.2620  0.0443
  143OSM    H1S15668   3.431   2.702   6.668 -0.8372  0.1806  1.6651
  143OSM    H1T15669   3.344   2.546   6.650 -2.2856 -0.5333 -1.6723
  143OSM     NF15670   3.340   2.656   6.882  0.2105 -1.0657 -0.1331
  143OSM    HNF15671   3.330   2.563   6.916  2.9129 -1.7185 -0.9106
  143OSM    C2S15672   3.247   2.692   6.774  0.5909  0.2033 -0.1592
  143OSM    H2S15673   3.229   2.802   6.774 -0.1464  0.1038 -1.0698
  143OSM    C3S15674   3.109   2.617   6.770  0.3552 -0.6043 -0.3516
  143OSM    H3S15675   3.138   2.510   6.759  2.0166 -0.1261 -0.9957
  143OSM     O315676   3.039   2.656   6.651 -0.2830  0.0789  0.0093
  143OSM    HO315677   3.107   2.693   6.594  1.5063 -2.5596  0.2858
  143OSM    C4S15678   3.035   2.648   6.894 -0.3938 -0.6261  0.9186
  143OSM    H4S15679   3.086   2.609   6.984 -0.5976  0.4988  1.5404
  143OSM    C5S15680   2.922   2.710   6.925 -0.3835 -0.1173  0.4235
  143OSM    H5S15681   2.869   2.772   6.851  0.3535  2.3324  1.8255
  143OSM    C6S15682   2.873   2.717   7.065 -0.1683  0.6406 -0.7299
  143OSM    H6S15683   2.918   2.637   7.128  2.5581  0.3051 -2.8858
  143OSM    H6T15684   2.765   2.692   7.059  0.0497 -0.9119  1.0186
  143OSM    C7S15685   2.884   2.853   7.145 -0.6817  0.3386 -0.2812
  143OSM    H7S15686   2.841   2.941   7.093  1.2842  1.6726  0.2202
  143OSM    H7T15687   2.988   2.886   7.168 -0.2583 -0.2384 -1.3037
  143OSM    C8S15688   2.806   2.849   7.276  0.0338 -0.0454 -0.2209
  143OSM    H8S15689   2.865   2.774   7.332 -0.2108  0.9633  1.4648
  143OSM    H8T15690   2.704   2.811   7.254  0.7820 -2.1283 -0.3588
  143OSM    C9S15691   2.800   2.984   7.352 -0.1091  0.2343  0.2588
  143OSM    H9S15692   2.765   3.065   7.285 -2.1356 -0.6738  0.1492
  143OSM    H9T15693   2.903   2.994   7.393  0.8812 -0.3851 -1.9611
  143OSM   C10S15694   2.707   2.966   7.478  0.5095 -0.5878 -0.5427
  143OSM   H10S15695   2.604   2.932   7.454  0.1996 -1.3410  1.6212
  143OSM   H10T15696   2.708   3.066   7.526 -0.8491  0.3887 -2.4147
  143OSM   C11S15697   2.751   2.857   7.580  0.5436 -0.6626  0.5660
  143OSM   H11S15698   2.861   2.866   7.584  0.5367  0.8691 -1.2174
  143OSM   H11T15699   2.722   2.758   7.539 -1.0724  0.3730 -0.9600
  143OSM   C12S15700   2.684   2.880   7.716  0.5197 -0.5558  0.1265
  143OSM   H12S15701   2.574   2.890   7.706 -0.0962 -2.8137  3.3320
  143OSM   H12T15702   2.724   2.976   7.755  0.3278  1.2935 -3.7200
  143OSM   C13S15703   2.704   2.763   7.823 -0.4195  0.0200 -0.2066
  143OSM   H13S15704   2.794   2.788   7.883  0.3568 -0.7070 -1.0344
  143OSM   H13T15705   2.717   2.670   7.764 -1.0451 -0.6472  0.6754
  143OSM   C14S15706   2.593   2.754   7.921 -0.5417  0.4403 -0.7163
  143OSM   H14S15707   2.502   2.720   7.866 -1.3155 -0.4143  1.0279
  143OSM   H14T15708   2.571   2.845   7.980 -1.4172 -1.1004  1.4762
  143OSM   C15S15709   2.628   2.636   8.017 -0.5180  0.3499 -0.7170
  143OSM   H15S15710   2.706   2.669   8.089  0.1628 -0.2275 -1.1735
  143OSM   H15T15711   2.674   2.556   7.956  0.2285 -0.0362  0.3345
  143OSM   C16S15712   2.506   2.596   8.101 -0.3604  0.7372 -0.3830
  143OSM   H16S15713   2.437   2.538   8.035  1.4278  0.9279 -2.5549
  143OSM   H16T15714   2.460   2.685   8.147 -1.4979 -0.8327  1.6718
  143OSM   C17S15715   2.542   2.499   8.208  0.4199 -0.3978 -0.1913
  143OSM   H17S15716   2.632   2.531   8.265 -1.2050  1.1795  1.6215
  143OSM   H17T15717   2.567   2.403   8.159  1.6474  1.3071 -3.1302
  143OSM   C18S15718   2.430   2.473   8.309  0.4241 -0.7840  0.3022
  143OSM   H18S15719   2.440   2.371   8.351 -1.5182 -1.6207 -1.1002
  143OSM   H18T15720   2.333   2.475   8.253  1.5105 -1.3987 -1.7001
  143OSM   H18U15721   2.436   2.556   8.382  0.1462 -0.3838 -0.1191
  143OSM    C1F15722   3.439   2.740   6.923  0.0644 -0.5372 -0.5985
  143OSM     OF15723   3.464   2.843   6.873  0.2567 -0.7198  0.1266
  143OSM    C2F15724   3.525   2.685   7.038 -0.2593 -0.6728 -0.1828
  143OSM    H2F15725   3.563   2.584   7.013 -3.1784 -1.6868 -0.8525
  143OSM    H2G15726   3.465   2.687   7.131 -1.7623  2.0530 -1.0866
  143OSM    C3F15727   3.653   2.777   7.059 -0.0287  0.5346  1.0432
  143OSM    H3F15728   3.627   2.882   7.083 -0.3127  0.5059  0.8574
  143OSM    H3G15729   3.713   2.778   6.966  0.6294 -0.2176  1.4435
  143OSM    C4F15730   3.744   2.726   7.163  0.2702  0.1476 -0.4577
  143OSM    H4F15731   3.783   2.626   7.135 -0.3485 -0.4254  0.6315
  143OSM    H4G15732   3.681   2.710   7.253  3.2000 -1.5982  1.4499
  143OSM    C5F15733   3.853   2.828   7.203  1.0901 -0.1486 -0.0215
  143OSM    H5F15734   3.793   2.920   7.222 -0.3753 -0.9344 -0.6659
  143OSM    H5G15735   3.915   2.851   7.114  1.1323  1.5232  0.4125
  143OSM    C6F15736   3.929   2.794   7.330 -0.4826  0.0579 -0.6355
  143OSM    H6F15737   4.015   2.726   7.312 -0.0510  0.7651 -1.2801
  143OSM    H6G15738   3.863   2.747   7.406  0.2431 -0.6631 -0.4270
  143OSM    C7F15739   3.992   2.921   7.394 -0.8752  0.4409 -0.3679
  143OSM    H7F15740   3.925   3.004   7.423 -0.6278  0.6121 -0.2794
  143OSM    H7G15741   4.064   2.966   7.322 -0.5728 -0.4216 -0.6199
  143OSM    C8F15742   4.082   2.887   7.508 -0.1209 -0.2924 -0.5995
  143OSM    H8F15743   4.130   2.790   7.488 -0.1113 -0.3511 -0.3011
  143OSM    H8G15744   4.026   2.857   7.600 -1.9167 -0.7854 -1.8015
  143OSM    C9F15745   4.186   2.993   7.536  0.2632 -0.0819  0.5039
  143OSM    H9F15746   4.187   3.085   7.475  0.0431 -0.3372  0.1105
  143OSM   C10F15747   4.265   2.971   7.641  0.6928 -0.2118  0.5902
  143OSM   H10F15748   4.336   3.054   7.658 -1.9417  2.1512  0.7335
  143OSM   C11F15749   4.262   2.852   7.727  0.2920  0.2789 -0.1274
  143OSM   H11F15750   4.360   2.832   7.776 -0.5668 -0.3535  1.4331
  143OSM   H11G15751   4.249   2.756   7.672  4.3902 -1.6399  1.8215
  143OSM   C12F15752   4.170   2.855   7.851 -0.5907 -0.3333  0.2610
  143OSM   H12F15753   4.067   2.845   7.811  0.1901 -1.7623 -1.5105
  143OSM   H12G15754   4.198   2.953   7.896  0.3508 -0.3247 -0.3266
  143OSM   C13F15755   4.199   2.735   7.947 -0.4712 -0.4765  0.4531
  143OSM   H13F15756   4.303   2.767   7.971 -0.0555 -0.2134 -1.5741
  143OSM   H13G15757   4.190   2.639   7.893 -2.6713 -0.1940  0.2135
  143OSM   C14F15758   4.108   2.728   8.068  0.4095  0.1491 -0.4093
  143OSM   H14F15759   4.010   2.685   8.038  1.4057 -1.8842 -0.8530
  143OSM   H14G15760   4.093   2.825   8.121 -1.6537 -0.6896  0.6800
  143OSM   C15F15761   4.164   2.629   8.171  0.6751  0.5018 -0.2393
  143OSM   H15F15762   4.259   2.671   8.211  1.4545 -1.7620  0.4658
  143OSM   H15G15763   4.169   2.528   8.124  0.8659  0.2668  0.2745
  143OSM   C16F15764   4.065   2.621   8.289  1.1031  0.1230  0.0911
  143OSM   H16F15765   3.963   2.593   8.257  0.9731 -2.1519  2.2465
  143OSM   H16G15766   4.065   2.717   8.346 -0.5230  0.0927  0.1800
  143OSM   C17F15767   4.103   2.523   8.396  0.0367  0.2973 -0.1249
  143OSM   H17F15768   4.197   2.545   8.450 -0.8321 -0.1290  1.6265
  143OSM   H17G15769   4.102   2.425   8.344 -1.1430  1.4309 -2.3689
  143OSM   C18F15770   3.995   2.510   8.500 -0.3746  0.7414 -0.2124
  143OSM   H18F15771   4.001   2.611   8.547  1.3750  2.2215 -3.3369
  143OSM   H18G15772   4.016   2.433   8.578 -2.0338 -2.5443 -2.7713
  143OSM   H18H15773   3.898   2.483   8.453  1.2477 -3.5958 -1.4585
  144OSM      N15774   1.947   2.275   5.865  0.2714  0.5262 -0.5714
  144OSM    C1515775   1.903   2.155   5.947 -1.2751 -0.4062 -0.2541
  144OSM   H15A15776   1.975   2.076   5.933 -0.3165  0.9243 -4.2560
  144OSM   H15B15777   1.805   2.122   5.919 -1.1786 -0.9721  0.0757
  144OSM   H15C15778   1.906   2.187   6.050 -1.4299  2.3925 -1.0280
  144OSM    C1415779   1.898   2.268   5.724 -0.4077 -0.0321  0.2456
  144OSM   H14A15780   1.793   2.242   5.724 -1.2324  2.9644 -0.7687
  144OSM   H14B15781   1.951   2.197   5.661  1.7170  0.3310  1.5146
  144OSM   H14C15782   1.909   2.361   5.671 -0.6574 -0.7822 -1.1632
  144OSM    C1315783   1.876   2.392   5.921 -0.0234 -0.0255 -0.3099
  144OSM   H13A15784   1.920   2.488   5.899 -1.4913  0.8473  0.3748
  144OSM   H13B15785   1.883   2.387   6.029  1.7079 -0.8692 -0.4378
  144OSM   H13C15786   1.774   2.397   5.884 -0.4620  0.9396  0.9602
  144OSM    C1215787   2.096   2.283   5.872  0.4563 -0.3030 -0.8917
  144OSM   H12A15788   2.145   2.199   5.825 -1.0777 -0.3004 -2.6025
  144OSM   H12B15789   2.132   2.285   5.974  0.1900  0.5915 -0.8083
  144OSM    C1115790   2.153   2.410   5.800 -0.1265  0.0269 -0.2821
  144OSM   H11A15791   2.121   2.395   5.694  2.7948  0.8864 -1.4152
  144OSM   H11B15792   2.263   2.397   5.791 -0.0734 -0.5428  1.0538
  144OSM      P15793   2.189   2.609   5.966 -0.2395 -0.0184  0.1798
  144OSM    O1315794   2.319   2.646   5.911  0.1132  0.6450 -0.0437
  144OSM    O1415795   2.100   2.719   6.015 -0.1270  0.3074 -0.2817
  144OSM    O1115796   2.204   2.495   6.078 -0.1271 -0.1189  0.3116
  144OSM    O1215797   2.109   2.533   5.857 -0.5193  0.3522 -0.7126
  144OSM    C1S15798   2.293   2.500   6.187 -1.0298  0.4649 -0.2338
  144OSM    H1S15799   2.364   2.585   6.189  1.2977 -1.3742 -0.0530
  144OSM    H1T15800   2.359   2.410   6.189  0.9232  1.8429 -0.1895
  144OSM     NF15801   2.309   2.480   6.438 -0.4950  0.0662  0.6762
  144OSM    HNF15802   2.330   2.388   6.471 -0.5535 -0.3452 -0.3914
  144OSM    C2S15803   2.217   2.480   6.323 -0.7084  0.4976 -0.5651
  144OSM    H2S15804   2.159   2.573   6.341 -1.8212 -0.3108  0.1931
  144OSM    C3S15805   2.122   2.358   6.320 -0.2780 -0.6381 -0.5564
  144OSM    H3S15806   2.189   2.273   6.295  0.5896  0.1714 -1.1082
  144OSM     O315807   2.025   2.366   6.219  0.2366  0.1370  0.5462
  144OSM    HO315808   2.056   2.439   6.166  1.2239 -0.9113 -0.3838
  144OSM    C4S15809   2.056   2.344   6.454 -0.5742  0.0636  0.0001
  144OSM    H4S15810   2.120   2.316   6.539 -2.2216 -1.8728  0.6942
  144OSM    C5S15811   1.933   2.380   6.500  0.1253  0.2223 -0.0573
  144OSM    H5S15812   1.867   2.418   6.421  2.2988  0.3239 -1.9136
  144OSM    C6S15813   1.885   2.376   6.645 -0.0204 -0.3263  0.1755
  144OSM    H6S15814   1.808   2.297   6.662  0.1908 -0.4923  0.3706
  144OSM    H6T15815   1.847   2.475   6.676  1.0024 -0.2333  1.2150
  144OSM    C7S15816   1.997   2.336   6.741  0.5698 -0.0238  0.4387
  144OSM    H7S15817   2.086   2.402   6.732  0.2459  0.2093 -1.2640
  144OSM    H7T15818   2.031   2.231   6.727  0.6817 -0.0791  1.0689
  144OSM    C8S15819   1.953   2.338   6.889  0.1857  0.1783  0.0436
  144OSM    H8S15820   1.859   2.281   6.898 -1.4140  2.3538 -1.8152
  144OSM    H8T15821   1.926   2.438   6.931  0.9640  0.5432 -0.3017
  144OSM    C9S15822   2.065   2.278   6.985 -0.8267  0.2346 -0.1069
  144OSM    H9S15823   2.157   2.340   6.977  0.3352 -0.2900  5.0983
  144OSM    H9T15824   2.095   2.175   6.955 -0.0819 -0.5095  2.8364
  144OSM   C10S15825   2.019   2.293   7.130 -0.0120 -0.5277  0.3377
  144OSM   H10S15826   1.926   2.234   7.119 -0.2644  0.1591 -1.5996
  144OSM   H10T15827   2.003   2.401   7.150 -0.1263 -0.7751  1.6568
  144OSM   C11S15828   2.108   2.225   7.235 -0.4466 -0.4181 -0.0003
  144OSM   H11S15829   2.173   2.298   7.289  0.3082 -2.5034  2.1153
  144OSM   H11T15830   2.174   2.161   7.172 -1.5890  0.4753 -2.1795
  144OSM   C12S15831   2.047   2.127   7.343  0.2248 -0.7656 -0.0934
  144OSM   H12S15832   1.999   2.043   7.287  0.7440 -1.0565 -0.1125
  144OSM   H12T15833   1.970   2.189   7.393  1.1068  0.2726 -0.0005
  144OSM   C13S15834   2.156   2.081   7.433 -0.6845  0.0244  0.3155
  144OSM   H13S15835   2.223   2.157   7.479  0.9535 -1.8810  1.2156
  144OSM   H13T15836   2.220   2.010   7.375 -2.2237 -2.0477  1.0225
  144OSM   C14S15837   2.113   1.997   7.549  0.2118  0.4782  1.0154
  144OSM   H14S15838   2.211   1.963   7.590 -0.2722  0.2559  2.0265
  144OSM   H14T15839   2.058   1.902   7.533  0.7139  0.2121  0.8227
  144OSM   C15S15840   2.040   2.084   7.650 -0.7948 -0.3466 -0.6260
  144OSM   H15S15841   1.936   2.104   7.616 -0.9667  0.5530  0.3926
  144OSM   H15T15842   2.113   2.167   7.660  0.7137 -1.7763  1.0206
  144OSM   C16S15843   2.041   2.020   7.790  0.1527 -0.0495 -0.4095
  144OSM   H16S15844   2.143   1.985   7.816 -0.4205 -1.4365  0.0971
  144OSM   H16T15845   1.974   1.931   7.789 -2.4542  1.7293 -3.2094
  144OSM   C17S15846   1.990   2.122   7.892  0.3071 -0.7763 -0.1658
  144OSM   H17S15847   1.905   2.179   7.848 -2.5944 -2.7582  2.3847
  144OSM   H17T15848   2.073   2.188   7.925 -0.5033 -0.1103  0.5863
  144OSM   C18S15849   1.940   2.061   8.022 -0.2203  0.3528 -0.7362
  144OSM   H18S15850   1.853   1.994   8.003 -2.7398  2.2259  2.8745
  144OSM   H18T15851   1.906   2.133   8.100  2.6428  0.6806  0.3477
  144OSM   H18U15852   2.028   2.008   8.065  0.5060  2.8074  1.0290
  144OSM    C1F15853   2.373   2.580   6.496  0.9638  0.0454 -0.3261
  144OSM     OF15854   2.390   2.688   6.446 -0.6456 -0.3732 -0.6073
  144OSM    C2F15855   2.430   2.539   6.624  0.1432 -0.3534 -0.5391
  144OSM    H2F15856   2.527   2.486   6.606  0.4649  0.8501 -2.7537
  144OSM    H2G15857   2.357   2.474   6.677  0.9205 -1.4818 -0.7973
  144OSM    C3F15858   2.475   2.668   6.702 -0.1352  0.1121 -0.5263
  144OSM    H3F15859   2.383   2.726   6.722  0.9272  1.1225  1.7965
  144OSM    H3G15860   2.554   2.725   6.647  0.9181 -1.2497 -0.4745
  144OSM    C4F15861   2.536   2.640   6.840 -0.1305  0.4575 -0.0020
  144OSM    H4F15862   2.552   2.741   6.885  2.0001  0.5550 -0.8624
  144OSM    H4G15863   2.643   2.610   6.830 -0.2282  0.6458 -1.8885
  144OSM    C5F15864   2.455   2.550   6.941  0.7070  0.4134  0.7404
  144OSM    H5F15865   2.415   2.454   6.900  1.7229  0.0814  0.4880
  144OSM    H5G15866   2.365   2.609   6.967 -0.8817 -2.0692  1.2095
  144OSM    C6F15867   2.516   2.517   7.076 -0.2620  0.2256  0.2737
  144OSM    H6F15868   2.550   2.612   7.122 -2.2452  1.7465 -1.2375
  144OSM    H6G15869   2.607   2.456   7.058  0.4524  1.4823 -0.4939
  144OSM    C7F15870   2.429   2.443   7.182  0.4485 -1.1777  0.3005
  144OSM    H7F15871   2.382   2.353   7.137 -2.3332  0.7022 -0.8265
  144OSM    H7G15872   2.349   2.519   7.194  1.0550 -0.3360 -0.7896
  144OSM    C8F15873   2.491   2.414   7.318 -0.4244 -0.4147 -0.5853
  144OSM    H8F15874   2.593   2.381   7.289 -1.2333 -1.1323 -2.8161
  144OSM    H8G15875   2.434   2.335   7.370 -0.9544  0.5071  0.2584
  144OSM    C9F15876   2.514   2.544   7.402  0.2077 -0.3757  0.6425
  144OSM    H9F15877   2.599   2.609   7.378  1.2073 -1.5142  0.9796
  144OSM   C10F15878   2.432   2.586   7.497  0.3013  0.1826 -0.0428
  144OSM   H10F15879   2.461   2.677   7.550 -0.1520  1.5677 -2.0678
  144OSM   C11F15880   2.308   2.521   7.564 -0.4320  0.4640 -0.3053
  144OSM   H11F15881   2.273   2.433   7.505 -0.8943  1.3082 -1.3207
  144OSM   H11G15882   2.221   2.590   7.556  0.0301  1.2889  1.3674
  144OSM   C12F15883   2.316   2.499   7.714  0.5745 -0.2916  0.0546
  144OSM   H12F15884   2.223   2.456   7.756 -0.3685  1.4398 -0.1267
  144OSM   H12G15885   2.336   2.598   7.761  1.9404 -0.7183  0.4135
  144OSM   C13F15886   2.426   2.404   7.764  0.2204  0.5263  0.6764
  144OSM   H13F15887   2.464   2.432   7.864 -0.1335  1.6640  0.5016
  144OSM   H13G15888   2.516   2.410   7.699  0.5689  0.5032  1.1508
  144OSM   C14F15889   2.366   2.262   7.757  0.3755  0.0261  0.1523
  144OSM   H14F15890   2.351   2.237   7.650 -0.4126 -0.8762  0.4574
  144OSM   H14G15891   2.261   2.261   7.793 -0.0832  1.4733 -1.0692
  144OSM   C15F15892   2.456   2.158   7.810  0.1402 -0.6164 -1.3700
  144OSM   H15F15893   2.554   2.181   7.762  1.1607  4.2317  2.2219
  144OSM   H15G15894   2.428   2.055   7.780  0.7934 -0.8511 -1.1940
  144OSM   C16F15895   2.467   2.151   7.964 -0.2942  0.1340  0.2135
  144OSM   H16F15896   2.490   2.241   8.026  0.8780  1.2969 -1.8094
  144OSM   H16G15897   2.550   2.078   7.977  1.5015  2.1177  0.3533
  144OSM   C17F15898   2.334   2.090   8.029 -0.3353  0.2568  0.4841
  144OSM   H17F15899   2.313   1.987   7.992  3.4202 -0.2685 -0.6707
  144OSM   H17G15900   2.250   2.159   8.008  0.9499  1.5326 -0.6590
  144OSM   C18F15901   2.365   2.070   8.179  0.1522  0.1570  0.2961
  144OSM   H18F15902   2.288   2.003   8.223  0.6468 -1.3461 -1.0307
  144OSM   H18G15903   2.357   2.164   8.238 -0.9309 -0.7685  1.6936
  144OSM   H18H15904   2.466   2.024   8.183  0.1058  0.1207  1.2620
  145SAPE     N15905   2.182   1.497  10.499 -0.3777 -0.5419 -0.8160
  145SAPE   HN115906   2.215   1.587  10.539  0.7091  0.1324 -3.0209
  145SAPE   HN215907   2.111   1.454  10.562 -0.4019  1.0897  0.3307
  145SAPE   HN315908   2.256   1.424  10.503 -1.1747 -1.3484 -0.3786
  145SAPE   C1215909   2.130   1.543  10.367 -0.0767  0.2541 -0.2614
  145SAPE  H12A15910   2.093   1.451  10.316 -2.7956  0.1077  1.7384
  145SAPE  H12B15911   2.208   1.600  10.313  1.2788  0.0403  1.3692
  145SAPE   C1115912   2.006   1.641  10.388  0.1472 -0.0939  0.9005
  145SAPE  H11A15913   1.961   1.676  10.293 -1.1136 -1.6327  0.8994
  145SAPE  H11B15914   2.045   1.742  10.416 -0.5192  1.3256 -2.7830
  145SAPE     P15915   1.839   1.667  10.585 -0.0686 -0.4278 -0.2033
  145SAPE   O1315916   1.733   1.584  10.638  0.2017 -0.3707 -0.0115
  145SAPE   O1415917   1.931   1.713  10.688 -0.9692 -0.5352 -0.8684
  145SAPE   O1215918   1.918   1.577  10.479  0.3300 -0.6655  0.2497
  145SAPE   O1115919   1.779   1.792  10.508  0.1374  0.4416 -0.2752
  145SAPE    C115920   1.647   1.784  10.449 -0.0403 -0.6973 -0.0561
  145SAPE    HA15921   1.597   1.685  10.450  1.9381 -1.7603  0.7474
  145SAPE    HB15922   1.578   1.852  10.503  1.2575 -1.1346  2.2921
  145SAPE    C215923   1.636   1.818  10.299  0.5986 -0.2279  0.1807
  145SAPE    HS15924   1.526   1.828  10.287  0.8113  0.7981 -1.0967
  145SAPE   O2115925   1.701   1.722  10.225  0.3934  0.1110 -0.7273
  145SAPE   C2115926   1.628   1.625  10.173 -0.6542 -0.5615  0.3241
  145SAPE   O2215927   1.507   1.617  10.182 -0.3575  0.0590 -0.1251
  145SAPE   C2215928   1.717   1.544  10.083 -0.3163 -0.4224  0.3079
  145SAPE   H2R15929   1.806   1.527  10.147  1.1979  1.9693 -0.9692
  145SAPE   H2S15930   1.678   1.442  10.063 -0.4655 -0.1956 -0.6246
  145SAPE    C315931   1.688   1.963  10.266  0.0688  0.3245  0.0291
  145SAPE    HX15932   1.799   1.963  10.271  0.1546 -3.1353  2.0987
  145SAPE    HY15933   1.653   2.023  10.353  0.1376  1.1726 -0.5181
  145SAPE   O3115934   1.612   2.011  10.147 -0.0989 -1.0079 -0.3488
  145SAPE   C3115935   1.663   1.993  10.027  0.3170 -0.1071 -0.3366
  145SAPE   O3215936   1.771   1.958  10.004  0.2663  0.5182 -0.6512
  145SAPE   C3215937   1.569   2.048   9.925  0.5278  0.1782 -0.5392
  145SAPE   H2X15938   1.534   2.149   9.956  1.4174 -0.1877  1.8479
  145SAPE   H2Y15939   1.480   1.982   9.930 -0.3466  1.4136  1.0555
  145SAPE   C2315940   1.762   1.618   9.955 -0.7982 -0.4175 -0.4229
  145SAPE   H3R15941   1.840   1.558   9.904 -1.1699 -1.4096  0.1528
  145SAPE   H3S15942   1.806   1.717   9.982 -0.7152 -0.2893 -1.0203
  145SAPE   C2415943   1.648   1.642   9.840 -0.4600 -0.3003  0.1400
  145SAPE   H4R15944   1.705   1.689   9.757 -1.4385  0.0819 -0.3222
  145SAPE   H4S15945   1.571   1.712   9.878 -0.7210 -1.6374  2.2941
  145SAPE   C2515946   1.574   1.511   9.802 -0.4665 -0.4129 -0.3687
  145SAPE   H5R15947   1.517   1.466   9.885 -2.1588 -0.6287 -1.5991
  145SAPE   C2615948   1.571   1.459   9.681  0.0167  0.5068  0.5061
  145SAPE   H6R15949   1.515   1.365   9.673  1.4543 -0.3156 -0.5255
  145SAPE   C2715950   1.628   1.511   9.551 -0.2233 -0.7842 -0.0624
  145SAPE   H7R15951   1.639   1.427   9.478  0.4366  0.2376 -1.1648
  145SAPE   H7S15952   1.735   1.535   9.569 -0.4494  0.3475 -0.1920
  145SAPE   C2815953   1.556   1.632   9.490  0.4992  0.3951 -0.2574
  145SAPE   H8R15954   1.483   1.688   9.551  0.3725 -0.1279  0.0826
  145SAPE   C2915955   1.559   1.666   9.364  0.5100 -0.0765 -0.6321
  145SAPE   H9R15956   1.496   1.748   9.326 -1.1765 -1.3916 -0.8284
  145SAPE  C21015957   1.619   1.599   9.251  0.3397 -0.6324  0.0501
  145SAPE  H10R15958   1.539   1.567   9.181 -0.4216  0.2754  0.4947
  145SAPE  H10S15959   1.678   1.512   9.287  2.3714  0.4878 -0.4097
  145SAPE  C21115960   1.720   1.689   9.183 -1.2083 -0.5354  0.5920
  145SAPE  H11R15961   1.775   1.769   9.234  0.2685 -0.6222 -0.7913
  145SAPE  C21215962   1.741   1.675   9.047  0.2874  0.3355  0.6383
  145SAPE  H12R15963   1.823   1.735   9.005 -0.8954 -0.3864 -3.1373
  145SAPE  C21315964   1.696   1.559   8.955 -0.3982  0.1425 -0.1611
  145SAPE  H13R15965   1.694   1.457   9.000 -0.8653 -0.5991 -1.7650
  145SAPE  H13S15966   1.765   1.545   8.869  0.6923 -1.1692  0.8867
  145SAPE  C21415967   1.551   1.577   8.908  0.1079 -0.2707  0.2961
  145SAPE  H14R15968   1.501   1.666   8.949  0.3731 -1.0316  2.3937
  145SAPE  C21515969   1.501   1.497   8.815 -0.2461 -0.0967  0.3890
  145SAPE  H15R15970   1.411   1.532   8.763  0.1842  0.9077  0.2964
  145SAPE  C21615971   1.568   1.366   8.759  0.3105  0.4110  0.3924
  145SAPE  H16R15972   1.643   1.322   8.828 -0.6725 -1.1153  0.5365
  145SAPE  H16S15973   1.620   1.385   8.663  0.5816  1.0815  0.6676
  145SAPE  C21715974   1.466   1.249   8.734 -1.1658 -0.6538  0.6617
  145SAPE  H17R15975   1.405   1.276   8.646 -0.0052  0.0859  0.0662
  145SAPE  H17S15976   1.394   1.237   8.818 -2.4130 -1.1840 -0.4632
  145SAPE  C21815977   1.545   1.112   8.721 -0.0764 -0.1657 -0.5705
  145SAPE  H18R15978   1.614   1.099   8.808 -0.4082  0.9444 -0.1202
  145SAPE  H18S15979   1.606   1.113   8.628 -1.6502  1.2414 -1.6471
  145SAPE  C21915980   1.450   0.992   8.715  0.6234  0.3211 -0.2481
  145SAPE  H19R15981   1.371   1.017   8.640 -0.2283  1.2389  0.9038
  145SAPE  H19S15982   1.389   0.990   8.808 -1.0590  0.2680 -1.3032
  145SAPE  C22015983   1.514   0.857   8.685  0.0058  0.5578  0.2527
  145SAPE  H20R15984   1.590   0.829   8.761 -0.2678 -0.5589  0.1291
  145SAPE  H20S15985   1.564   0.869   8.587  1.0163 -4.1786 -0.0277
  145SAPE  H20T15986   1.440   0.775   8.684  0.2435  0.0634  4.6640
  145SAPE   C3315987   1.635   2.059   9.790  0.3529  0.3447 -0.0858
  145SAPE   H3X15988   1.693   1.966   9.772 -0.7780 -1.2395  3.5472
  145SAPE   H3Y15989   1.702   2.147   9.777 -1.0775  1.0146 -5.3209
  145SAPE   C3415990   1.532   2.055   9.672 -0.0222  0.4919  0.2550
  145SAPE   H4X15991   1.462   2.141   9.672 -1.9365 -1.0025  0.5730
  145SAPE   H4Y15992   1.472   1.962   9.683  1.6116 -0.5863  0.3605
  145SAPE   C3515993   1.610   2.039   9.547 -0.8762 -0.3273 -0.4692
  145SAPE   H5X15994   1.667   1.943   9.551 -1.3484 -0.5718  1.6959
  145SAPE   H5Y15995   1.682   2.123   9.540 -1.2568  0.1877  1.3099
  145SAPE   C3615996   1.524   2.033   9.422 -0.9061 -0.0750  0.0470
  145SAPE   H6X15997   1.441   2.108   9.416  0.3364  1.3477  0.1105
  145SAPE   H6Y15998   1.472   1.935   9.415 -3.1479  0.9746  0.7332
  145SAPE   C3715999   1.604   2.037   9.293 -0.4023  0.5732  0.0585
  145SAPE   H7X16000   1.682   1.958   9.282  0.5095  1.5302 -0.5724
  145SAPE   H7Y16001   1.664   2.130   9.283 -0.6591  0.9073  1.4306
  145SAPE   C3816002   1.515   2.029   9.170 -0.1773  0.5761 -0.2192
  145SAPE   H8X16003   1.449   2.116   9.190 -0.2992  0.2728  0.7256
  145SAPE   H8Y16004   1.445   1.942   9.171  0.4590  0.0604  0.3429
  145SAPE   C3916005   1.591   2.051   9.038  0.1683  0.2719 -0.3743
  145SAPE   H9X16006   1.673   1.978   9.020 -0.3212 -0.0309 -1.5026
  145SAPE   H9Y16007   1.637   2.152   9.045  0.2183  0.2472 -0.3453
  145SAPE  C31016008   1.492   2.048   8.919 -0.3493 -0.2302  0.3255
  145SAPE  H10X16009   1.426   2.138   8.918  0.5593  0.4486  0.0397
  145SAPE  H10Y16010   1.433   1.954   8.921 -1.1357  0.2145 -0.8389
  145SAPE  C31116011   1.563   2.047   8.783 -0.1431 -0.2779 -0.1060
  145SAPE  H11X16012   1.645   2.122   8.792 -1.4203  1.0507  0.8259
  145SAPE  H11Y16013   1.497   2.077   8.699 -2.4942 -2.3849  0.8709
  145SAPE  C31216014   1.617   1.903   8.750  0.4074  0.2867 -0.4066
  145SAPE  H12X16015   1.536   1.826   8.752 -1.0771  1.7999 -0.6337
  145SAPE  H12Y16016   1.703   1.869   8.812  2.4712  0.6702 -2.8824
  145SAPE  C31316017   1.674   1.898   8.608  0.3726  0.0417  0.3026
  145SAPE  H13X16018   1.764   1.963   8.601 -1.8887  3.3059 -0.2541
  145SAPE  H13Y16019   1.600   1.931   8.533 -0.1472 -1.0587  0.3148
  145SAPE  C31416020   1.733   1.763   8.566 -0.3987 -0.2333 -0.3497
  145SAPE  H14X16021   1.764   1.770   8.459  4.0304 -0.4370  0.7190
  145SAPE  H14Y16022   1.666   1.676   8.583  0.2974 -0.6320  0.4216
  145SAPE  C31516023   1.864   1.739   8.653  0.3122 -0.7089 -0.0482
  145SAPE  H15X16024   1.822   1.717   8.754 -0.4385 -1.1244 -0.4430
  145SAPE  H15Y16025   1.919   1.836   8.660  0.3488 -0.5233 -2.2217
  145SAPE  C31616026   1.953   1.630   8.607  0.1341 -0.0265  0.0048
  145SAPE  H16X16027   1.969   1.621   8.497  0.4700 -2.3373  0.2118
  145SAPE  H16Y16028   1.896   1.539   8.634 -1.6160  0.9020 -0.3806
  145SAPE  C31716029   2.079   1.648   8.683  0.4821  0.6887  0.4708
  145SAPE  H17X16030   2.052   1.677   8.787 -0.9541 -2.2035  1.0032
  145SAPE  H17Y16031   2.136   1.727   8.630 -1.4578 -0.0432 -3.0169
  145SAPE  C31816032   2.157   1.518   8.692  0.8131  0.0670 -0.4202
  145SAPE  H18X16033   2.258   1.541   8.734  0.4176  0.0452  0.5626
  145SAPE  H18Y16034   2.174   1.475   8.591 -0.4636 -0.4631 -0.4230
  145SAPE  H18Z16035   2.105   1.443   8.755 -0.6786  1.3162 -0.1101
  146SAPE     N16036   1.072   3.150  10.903  0.2231  0.2529 -0.0282
  146SAPE   HN116037   1.119   3.243  10.899 -0.6707  0.8865  2.3626
  146SAPE   HN216038   1.136   3.099  10.967  1.8284 -1.5833 -2.8971
  146SAPE   HN316039   1.074   3.104  10.810 -2.0206 -0.8851  0.4244
  146SAPE   C1216040   0.934   3.169  10.961 -0.8361 -0.0975  0.4981
  146SAPE  H12A16041   0.947   3.179  11.071 -0.5417 -0.0217  0.4555
  146SAPE  H12B16042   0.864   3.088  10.930 -2.3974  0.4923  2.3342
  146SAPE   C1116043   0.888   3.304  10.910 -0.1741  0.6396 -0.0575
  146SAPE  H11A16044   0.937   3.393  10.953 -0.3059  0.7315 -0.0970
  146SAPE  H11B16045   0.780   3.320  10.933 -0.2146  0.7613 -0.3318
  146SAPE     P16046   0.870   3.443  10.689 -0.2292 -0.0553 -0.2001
  146SAPE   O1316047   0.725   3.471  10.688 -0.2207 -0.5032 -0.6144
  146SAPE   O1416048   0.962   3.548  10.750  0.9892  0.4391  0.5792
  146SAPE   O1216049   0.902   3.307  10.764 -0.4553 -0.7414 -0.1800
  146SAPE   O1116050   0.911   3.413  10.538 -0.4178 -0.2164  0.5567
  146SAPE    C116051   1.053   3.385  10.519 -0.1552 -0.2804 -0.0018
  146SAPE    HA16052   1.123   3.470  10.534  0.0847 -0.5329  0.3149
  146SAPE    HB16053   1.097   3.310  10.588  2.0781  0.5597 -0.4152
  146SAPE    C216054   1.075   3.331  10.376  0.3531  0.1175 -0.3688
  146SAPE    HS16055   1.182   3.304  10.365  0.9905  0.9465  2.8450
  146SAPE   O2116056   1.033   3.432  10.283  0.0370 -0.0594  0.1386
  146SAPE   C2116057   1.109   3.536  10.276 -0.2773  0.1302 -0.0971
  146SAPE   O2216058   1.223   3.551  10.319 -1.0112  0.1574  0.1708
  146SAPE   C2216059   1.029   3.637  10.199  0.2617 -1.1040  0.5683
  146SAPE   H2R16060   0.947   3.678  10.263  0.3279  1.8233 -1.0444
  146SAPE   H2S16061   1.092   3.727  10.188 -3.4129  1.4815 -2.3996
  146SAPE    C316062   1.006   3.202  10.343  0.5149  0.8386 -0.2971
  146SAPE    HX16063   0.898   3.208  10.368  0.6418  0.3955  0.3768
  146SAPE    HY16064   1.056   3.120  10.398 -0.8992 -1.8521 -2.7392
  146SAPE   O3116065   1.017   3.180  10.195 -0.6020  0.5739  0.6420
  146SAPE   C3116066   0.910   3.181  10.107 -0.2198  0.1881  0.1242
  146SAPE   O3216067   0.791   3.179  10.131  0.0255 -0.7898  0.9589
  146SAPE   C3216068   0.967   3.180   9.966 -0.5501 -0.4604  0.2323
  146SAPE   H2X16069   1.078   3.182   9.973 -0.6434 -0.7693  4.6131
  146SAPE   H2Y16070   0.939   3.270   9.909 -1.3390 -0.3864  0.7181
  146SAPE   C2316071   0.973   3.597  10.061 -0.0841  0.8235 -0.0767
  146SAPE   H3R16072   0.889   3.664  10.029 -1.5575 -0.1897  1.5061
  146SAPE   H3S16073   0.933   3.493  10.064  0.7065  0.4723 -0.9679
  146SAPE   C2416074   1.077   3.617   9.952  0.2723 -0.0875  0.0842
  146SAPE   H4R16075   1.173   3.575   9.992  0.5208  0.2469 -0.1575
  146SAPE   H4S16076   1.110   3.720   9.929  0.2307 -0.2644 -0.8075
  146SAPE   C2516077   1.049   3.557   9.816  0.3595 -0.7471  1.0406
  146SAPE   H5R16078   1.027   3.450   9.833 -0.8173 -0.3377  2.3560
  146SAPE   C2616079   1.072   3.606   9.689 -0.1658 -0.0566  0.5786
  146SAPE   H6R16080   1.054   3.541   9.603  0.7135  0.3903  0.0415
  146SAPE   C2716081   1.100   3.752   9.653 -0.7513  0.6155 -0.4477
  146SAPE   H7R16082   1.135   3.806   9.743  3.7606 -0.1177 -1.5425
  146SAPE   H7S16083   1.010   3.800   9.609 -0.1803  2.2430  0.0691
  146SAPE   C2816084   1.220   3.761   9.557  0.5526  0.0869 -0.6828
  146SAPE   H8R16085   1.311   3.720   9.603 -0.4404 -0.0303  1.2987
  146SAPE   C2916086   1.220   3.816   9.431 -0.1404  0.2515 -0.5790
  146SAPE   H9R16087   1.313   3.802   9.374 -1.7183 -0.3698 -3.1414
  146SAPE  C21016088   1.107   3.890   9.364 -1.1094  0.6365 -0.0826
  146SAPE  H10R16089   1.139   3.982   9.311  0.8253  0.0526  0.0196
  146SAPE  H10S16090   1.035   3.926   9.441 -2.3434 -1.6775 -0.0674
  146SAPE  C21116091   1.035   3.786   9.280 -0.1159  0.1889  0.4913
  146SAPE  H11R16092   0.970   3.712   9.329  0.4202 -0.2248  0.5851
  146SAPE  C21216093   1.057   3.762   9.146  0.2791  0.4658 -0.6664
  146SAPE  H12R16094   1.005   3.674   9.104  2.2307 -1.6972  1.2071
  146SAPE  C21316095   1.158   3.831   9.061 -0.0830  0.0370  0.6368
  146SAPE  H13R16096   1.224   3.892   9.126 -1.9528  0.6241  2.0803
  146SAPE  H13S16097   1.108   3.901   8.990 -1.3785  0.9614  2.3629
  146SAPE  C21416098   1.237   3.723   8.993  0.3605  0.0380 -0.4416
  146SAPE  H14R16099   1.314   3.693   9.066  0.2929  1.4942  0.2849
  146SAPE  C21516100   1.228   3.670   8.868  0.2738  0.0857  0.1407
  146SAPE  H15R16101   1.296   3.586   8.852  0.2602  0.0809  0.1070
  146SAPE  C21616102   1.144   3.710   8.751 -0.1046 -0.1091  0.0102
  146SAPE  H16R16103   1.061   3.780   8.775 -0.3669 -0.1335 -0.7872
  146SAPE  H16S16104   1.106   3.620   8.696  1.2437  0.1203 -1.3442
  146SAPE  C21716105   1.214   3.792   8.636  0.9829 -0.4673 -0.7623
  146SAPE  H17R16106   1.258   3.875   8.695 -1.1063 -0.0199  0.2570
  146SAPE  H17S16107   1.124   3.832   8.585 -0.5444  0.5839  2.4586
  146SAPE  C21816108   1.311   3.721   8.543  0.4403 -0.3007 -0.2221
  146SAPE  H18R16109   1.250   3.656   8.476  2.2422 -1.3493 -0.9146
  146SAPE  H18S16110   1.377   3.663   8.610  0.2629  0.8609  1.0026
  146SAPE  C21916111   1.413   3.806   8.462 -0.2940  0.1167 -0.0189
  146SAPE  H19R16112   1.464   3.730   8.398  4.2499  1.9389  1.0462
  146SAPE  H19S16113   1.486   3.852   8.532 -1.9661 -0.4644  2.2181
  146SAPE  C22016114   1.356   3.927   8.382  0.5614 -0.3200 -0.8006
  146SAPE  H20R16115   1.297   3.895   8.294 -0.1838  4.9829 -2.5783
  146SAPE  H20S16116   1.440   3.987   8.341  0.2152  0.9930  0.3303
  146SAPE  H20T16117   1.296   3.993   8.448 -0.4166 -1.3170 -0.6669
  146SAPE   C3316118   0.905   3.065   9.874  0.4699 -0.1945  0.3589
  146SAPE   H3X16119   0.794   3.062   9.878  0.2567  2.8306 -0.8188
  146SAPE   H3Y16120   0.948   2.969   9.913 -0.2845 -0.8726 -0.4461
  146SAPE   C3416121   0.957   3.090   9.737  0.0741  0.4273 -0.2626
  146SAPE   H4X16122   0.939   2.995   9.682 -1.0340 -0.1534  1.0451
  146SAPE   H4Y16123   1.067   3.107   9.738  0.7064 -2.9590  1.7068
  146SAPE   C3516124   0.882   3.197   9.654  0.4288  1.0997 -0.5535
  146SAPE   H5X16125   0.885   3.302   9.690 -1.8060  0.7469  0.8295
  146SAPE   H5Y16126   0.774   3.173   9.649  0.6491  0.0846 -0.8241
  146SAPE   C3616127   0.938   3.186   9.509 -0.1116 -0.2620 -0.2151
  146SAPE   H6X16128   0.934   3.083   9.468  1.8088 -0.2937 -0.4316
  146SAPE   H6Y16129   1.048   3.201   9.511 -0.3251  1.5387  0.1051
  146SAPE   C3716130   0.887   3.292   9.406 -0.7582  0.4212 -0.1519
  146SAPE   H7X16131   0.937   3.385   9.440 -1.2238  0.8097 -0.5126
  146SAPE   H7Y16132   0.780   3.318   9.423 -0.3963  1.6142  0.3923
  146SAPE   C3816133   0.918   3.257   9.261  0.5433 -0.2932  0.2357
  146SAPE   H8X16134   0.877   3.163   9.220 -0.1740 -0.1114  0.5308
  146SAPE   H8Y16135   1.029   3.250   9.251  0.4824  1.1062 -1.9424
  146SAPE   C3916136   0.866   3.368   9.167 -0.6927 -0.1998 -0.4061
  146SAPE   H9X16137   0.938   3.453   9.173 -0.7439 -0.0938 -1.1669
  146SAPE   H9Y16138   0.761   3.393   9.194 -0.2768  0.7478  0.4307
  146SAPE  C31016139   0.878   3.321   9.021  0.4507 -0.0026 -0.2249
  146SAPE  H10X16140   0.818   3.232   8.992  2.6290 -1.9702  1.0244
  146SAPE  H10Y16141   0.984   3.300   8.996  0.6618  0.4190  0.3059
  146SAPE  C31116142   0.828   3.450   8.934  0.8595  0.0092  0.2981
  146SAPE  H11X16143   0.889   3.538   8.963  0.2039  1.3267 -2.0045
  146SAPE  H11Y16144   0.729   3.483   8.970 -0.1528 -1.2584 -1.1749
  146SAPE  C31216145   0.825   3.432   8.781 -0.3228 -0.4759  0.0257
  146SAPE  H12X16146   0.751   3.349   8.778 -2.8741  1.6128  1.1425
  146SAPE  H12Y16147   0.925   3.407   8.741 -0.7985 -1.9198 -0.3434
  146SAPE  C31316148   0.762   3.553   8.704 -0.2615 -0.6571  0.0058
  146SAPE  H13X16149   0.818   3.643   8.737  0.4223 -1.0733 -0.0078
  146SAPE  H13Y16150   0.658   3.571   8.737 -0.0250  0.6273  0.1162
  146SAPE  C31416151   0.776   3.552   8.546 -0.0550 -0.3074 -0.3869
  146SAPE  H14X16152   0.714   3.634   8.505 -1.3224 -1.2167 -0.3711
  146SAPE  H14Y16153   0.737   3.457   8.504  0.6550  0.3619 -2.6889
  146SAPE  C31516154   0.917   3.558   8.472 -0.1979 -0.1792  0.4897
  146SAPE  H15X16155   0.949   3.452   8.482 -2.5791 -1.0249 -0.1139
  146SAPE  H15Y16156   0.974   3.635   8.527 -2.0207  1.6658 -0.0716
  146SAPE  C31616157   0.910   3.599   8.325  0.1286  0.2826  0.0418
  146SAPE  H16X16158   0.824   3.667   8.305  0.2587 -0.3687 -3.3291
  146SAPE  H16Y16159   0.875   3.509   8.269 -0.8408 -0.3209  1.5561
  146SAPE  C31716160   1.044   3.644   8.272 -0.3600  0.5452  0.3201
  146SAPE  H17X16161   1.123   3.568   8.285  0.1908  1.1982  0.8569
  146SAPE  H17Y16162   1.076   3.735   8.326  0.9699 -0.2250  0.8583
  146SAPE  C31816163   1.043   3.677   8.124  0.3515  0.0167  1.1116
  146SAPE  H18X16164   0.946   3.724   8.095 -0.1586 -0.4944  1.9370
  146SAPE  H18Y16165   1.044   3.582   8.067  0.3530 -0.0772  1.2654
  146SAPE  H18Z16166   1.128   3.742   8.097  0.1954  0.2437  1.1619
  147SAPE     N16167   0.460   5.080  10.832 -0.2763  0.0138 -0.4508
  147SAPE   HN116168   0.558   5.078  10.868 -1.2158 -0.4451  2.3360
  147SAPE   HN216169   0.411   5.137  10.904  3.8647  3.2590  0.1995
  147SAPE   HN316170   0.416   4.986  10.824 -4.3960  1.7523 -0.7394
  147SAPE   C1216171   0.456   5.155  10.701  0.1703 -0.8477  0.2127
  147SAPE  H12A16172   0.486   5.260  10.717  0.3924 -0.8221 -0.3353
  147SAPE  H12B16173   0.356   5.146  10.654  0.1443 -2.0745  0.4596
  147SAPE   C1116174   0.556   5.099  10.605  0.0544 -0.5905  0.8165
  147SAPE  H11A16175   0.558   5.163  10.515  0.0483 -2.1704 -0.3588
  147SAPE  H11B16176   0.545   4.999  10.558  1.4302  0.3539 -1.6700
  147SAPE     P16177   0.820   5.057  10.591  0.0045  0.1524  0.0744
  147SAPE   O1316178   0.922   5.152  10.633 -0.2038 -0.3561  1.0000
  147SAPE   O1416179   0.843   4.918  10.627 -0.2774 -0.2759  0.1146
  147SAPE   O1216180   0.685   5.093  10.664 -0.9181 -0.0105 -0.4472
  147SAPE   O1116181   0.777   5.070  10.439  0.3893 -0.1734  0.0089
  147SAPE    C116182   0.797   4.960  10.350  0.0507  0.5052 -0.5612
  147SAPE    HA16183   0.888   4.903  10.380  0.4008 -0.4816 -3.1729
  147SAPE    HB16184   0.716   4.888  10.374  0.9111  0.1553  1.5732
  147SAPE    C216185   0.787   5.003  10.195 -0.2973  0.2189  0.2086
  147SAPE    HS16186   0.808   4.909  10.140  0.1891  1.0778 -1.1199
  147SAPE   O2116187   0.880   5.107  10.158  0.2656  0.5436 -0.2743
  147SAPE   C2116188   1.006   5.065  10.151  0.1497  0.7073  0.2183
  147SAPE   O2216189   1.041   4.946  10.144 -0.4761 -0.7290 -0.3746
  147SAPE   C2216190   1.098   5.187  10.172  0.3514  0.6094  0.1252
  147SAPE   H2R16191   1.047   5.281  10.144  1.6297  1.1925 -0.2937
  147SAPE   H2S16192   1.126   5.188  10.280  1.3718  0.1442 -0.1215
  147SAPE    C316193   0.649   5.046  10.162 -0.2464  0.3653  0.4231
  147SAPE    HX16194   0.627   5.129  10.233  0.2021 -0.4977  1.5989
  147SAPE    HY16195   0.575   4.968  10.192  0.0576  0.7282  2.2293
  147SAPE   O3116196   0.639   5.069  10.019  0.1347  0.3899 -0.4110
  147SAPE   C3116197   0.564   5.181   9.996 -0.1042  0.3635  0.8289
  147SAPE   O3216198   0.500   5.241  10.073  0.2012 -0.2605  0.0669
  147SAPE   C3216199   0.563   5.195   9.837  0.1467 -0.1107 -0.9247
  147SAPE   H2X16200   0.552   5.090   9.802 -1.6222  0.1440 -1.2343
  147SAPE   H2Y16201   0.661   5.239   9.808  0.3465  1.5438  1.9025
  147SAPE   C2316202   1.221   5.188  10.091  0.9866  0.0001 -0.4165
  147SAPE   H3R16203   1.279   5.094  10.085  2.5290  0.9638 -1.3377
  147SAPE   H3S16204   1.296   5.260  10.129 -0.1801  0.5632  0.9311
  147SAPE   C2416205   1.190   5.237   9.945 -0.2124  0.2286  0.5805
  147SAPE   H4R16206   1.166   5.345   9.935 -1.0984  0.2524  2.5410
  147SAPE   H4S16207   1.099   5.191   9.901 -0.4015  0.1624  1.0420
  147SAPE   C2516208   1.307   5.218   9.853 -0.2768  0.6938 -0.1502
  147SAPE   H5R16209   1.382   5.138   9.865  0.1235  1.0831 -0.0413
  147SAPE   C2616210   1.322   5.293   9.739 -0.1856  1.1326  0.3418
  147SAPE   H6R16211   1.412   5.268   9.681 -0.5460 -0.4978  0.4466
  147SAPE   C2716212   1.235   5.397   9.674  0.4215  0.0954 -0.4829
  147SAPE   H7R16213   1.131   5.385   9.711  0.4177  1.3651 -0.0488
  147SAPE   H7S16214   1.235   5.382   9.564 -0.0468 -2.0175 -0.2321
  147SAPE   C2816215   1.277   5.535   9.715  0.2676 -0.4836  0.0590
  147SAPE   H8R16216   1.251   5.557   9.819  2.5489 -1.3432  0.8615
  147SAPE   C2916217   1.321   5.633   9.638 -0.7943 -0.3180  0.3641
  147SAPE   H9R16218   1.347   5.731   9.682 -0.8203 -0.8565  1.6469
  147SAPE  C21016219   1.351   5.607   9.489 -0.4128 -0.0429  0.7056
  147SAPE  H10R16220   1.290   5.526   9.445 -0.4480  1.0004 -1.2733
  147SAPE  H10S16221   1.457   5.578   9.470 -0.6036 -0.5020  0.3380
  147SAPE  C21116222   1.315   5.739   9.420  0.6157  0.1383 -0.3763
  147SAPE  H11R16223   1.324   5.833   9.478 -1.9729  1.6294 -2.1710
  147SAPE  C21216224   1.283   5.746   9.289 -0.0826  0.1588  0.0664
  147SAPE  H12R16225   1.247   5.843   9.250  0.3461  0.4137  0.2886
  147SAPE  C21316226   1.269   5.632   9.193  0.5508  1.2427  0.0408
  147SAPE  H13R16227   1.286   5.537   9.247 -0.7659  1.3291  0.6426
  147SAPE  H13S16228   1.362   5.636   9.132  1.4572 -0.6013  1.2321
  147SAPE  C21416229   1.150   5.620   9.095 -0.0162  0.0399 -0.3887
  147SAPE  H14R16230   1.059   5.570   9.130 -1.5476  1.7179 -1.7863
  147SAPE  C21516231   1.140   5.673   8.971  0.3311 -0.5044 -0.6672
  147SAPE  H15R16232   1.053   5.651   8.907  0.6646  0.0993 -1.3511
  147SAPE  C21616233   1.230   5.775   8.899  0.3226 -0.2633 -0.0528
  147SAPE  H16R16234   1.261   5.734   8.801 -0.4369  1.2296 -0.9465
  147SAPE  H16S16235   1.325   5.784   8.956  0.3433 -3.3212  0.5653
  147SAPE  C21716236   1.165   5.915   8.877  0.1301  0.4063  0.1865
  147SAPE  H17R16237   1.245   5.986   8.849 -0.2032  0.7922  0.2120
  147SAPE  H17S16238   1.119   5.964   8.966 -0.8257  1.2455 -0.7409
  147SAPE  C21816239   1.058   5.918   8.756  0.1113  0.7315 -0.7450
  147SAPE  H18R16240   0.982   5.995   8.783  0.2363  1.1570 -1.5590
  147SAPE  H18S16241   1.010   5.817   8.757  1.0541  0.2752  0.1681
  147SAPE  C21916242   1.113   5.942   8.621 -0.0182 -0.0048  0.4027
  147SAPE  H19R16243   1.150   5.842   8.589  1.1401 -0.8725  3.9889
  147SAPE  H19S16244   1.197   6.013   8.618  0.0172  0.1392  3.1087
  147SAPE  C22016245   0.993   5.986   8.527 -0.5559 -0.3497  0.2907
  147SAPE  H20R16246   0.911   5.917   8.499 -0.6324  0.1690 -0.7791
  147SAPE  H20S16247   1.040   6.019   8.432 -0.3730  0.5661  0.6868
  147SAPE  H20T16248   0.950   6.081   8.564  0.6812 -0.7269  2.9504
  147SAPE   C3316249   0.443   5.282   9.790 -1.1201 -0.5678  0.3479
  147SAPE   H3X16250   0.486   5.384   9.782 -2.9671  0.2147 -0.1651
  147SAPE   H3Y16251   0.352   5.285   9.854 -0.8745  1.4931  0.6754
  147SAPE   C3416252   0.420   5.245   9.642 -0.0750  0.0876 -0.0745
  147SAPE   H4X16253   0.340   5.319   9.620 -0.4173 -0.0191  0.7609
  147SAPE   H4Y16254   0.390   5.139   9.638  1.5959 -0.4663  0.8555
  147SAPE   C3516255   0.547   5.266   9.559  1.0405  0.2931  0.4739
  147SAPE   H5X16256   0.616   5.184   9.591  0.7071 -0.0639  0.2816
  147SAPE   H5Y16257   0.593   5.365   9.580  1.0144  0.4906 -0.4053
  147SAPE   C3616258   0.500   5.249   9.410  0.1651 -0.4783  0.3345
  147SAPE   H6X16259   0.414   5.181   9.396  0.3508 -0.3064 -1.8678
  147SAPE   H6Y16260   0.582   5.213   9.345  1.1565 -2.0239  2.3240
  147SAPE   C3716261   0.450   5.387   9.353 -0.2442 -0.5995  0.3730
  147SAPE   H7X16262   0.537   5.427   9.296 -0.3770 -0.3475  0.3448
  147SAPE   H7Y16263   0.421   5.462   9.430 -2.8789  0.2661 -1.3256
  147SAPE   C3816264   0.332   5.363   9.253 -0.2232  0.8107 -0.1476
  147SAPE   H8X16265   0.242   5.326   9.308 -0.8140  0.4418 -1.3174
  147SAPE   H8Y16266   0.352   5.279   9.183 -2.5883  0.2620 -0.2806
  147SAPE   C3916267   0.301   5.491   9.183 -0.5082 -0.7742 -0.4139
  147SAPE   H9X16268   0.387   5.536   9.130  0.1779 -0.4887  0.8994
  147SAPE   H9Y16269   0.267   5.562   9.261  1.4521  0.9512 -1.0255
  147SAPE  C31016270   0.189   5.496   9.078  0.2346  0.5974  0.5300
  147SAPE  H10X16271   0.164   5.602   9.056 -0.7002  0.3992  0.5911
  147SAPE  H10Y16272   0.092   5.455   9.114 -0.1533  1.7208  0.7968
  147SAPE  C31116273   0.221   5.424   8.943 -0.7622 -0.3244  0.2382
  147SAPE  H11X16274   0.254   5.322   8.970 -0.3558  0.2833  2.1849
  147SAPE  H11Y16275   0.299   5.478   8.886 -0.4417  0.9279  1.7992
  147SAPE  C31216276   0.103   5.407   8.847  0.1584  0.0702  0.7548
  147SAPE  H12X16277   0.052   5.503   8.824  0.6673  0.0981 -0.2869
  147SAPE  H12Y16278   0.027   5.342   8.895 -0.1724  0.3629  0.6301
  147SAPE  C31316279   0.142   5.332   8.720  0.2117 -0.1925  0.5416
  147SAPE  H13X16280   0.194   5.241   8.758 -0.6414 -1.0667 -0.3511
  147SAPE  H13Y16281   0.219   5.389   8.663 -1.0403 -0.2395 -1.2564
  147SAPE  C31416282   0.018   5.314   8.624  1.0239  0.5171 -0.1692
  147SAPE  H14X16283  -0.002   5.405   8.565  1.8701  1.4848  0.9893
  147SAPE  H14Y16284  -0.076   5.293   8.679  1.4358  0.3465  0.4877
  147SAPE  C31516285   0.038   5.204   8.522  0.3124 -0.2781  0.5445
  147SAPE  H15X16286   0.059   5.110   8.575 -3.1305 -1.8814 -0.6372
  147SAPE  H15Y16287   0.120   5.234   8.452 -1.2720 -0.7953 -1.6228
  147SAPE  C31616288  -0.093   5.174   8.448 -1.0854 -0.0672  0.2804
  147SAPE  H16X16289  -0.125   5.261   8.388 -1.5390  0.2905  1.0235
  147SAPE  H16Y16290  -0.177   5.167   8.521 -1.4622  0.3652 -0.1113
  147SAPE  C31716291  -0.086   5.051   8.356  0.2118  1.1351 -0.1166
  147SAPE  H17X16292   0.002   5.050   8.288  0.5749 -0.6882  0.3393
  147SAPE  H17Y16293  -0.183   5.044   8.303  0.6096 -1.5982 -0.6037
  147SAPE  C31816294  -0.071   4.924   8.433 -0.4295  0.1481  0.3021
  147SAPE  H18X16295  -0.145   4.921   8.516 -0.7468  3.7191  0.3287
  147SAPE  H18Y16296   0.033   4.906   8.468  0.1081  1.7632 -0.3513
  147SAPE  H18Z16297  -0.096   4.838   8.367  1.5733 -0.7432  0.6177
  148SAPE     N16298   3.752   1.318  10.954  0.3638  0.2077  0.2333
  148SAPE   HN116299   3.776   1.369  11.041 -0.4968 -3.0229  2.5347
  148SAPE   HN216300   3.665   1.264  10.974  0.5180 -0.2006 -0.1702
  148SAPE   HN316301   3.824   1.247  10.929 -0.5751 -0.9324  0.6632
  148SAPE   C1216302   3.735   1.403  10.841  0.0872  0.0190  0.6716
  148SAPE  H12A16303   3.789   1.500  10.844  0.4524 -0.0421 -1.9611
  148SAPE  H12B16304   3.625   1.421  10.831 -0.0971 -1.3820 -0.0989
  148SAPE   C1116305   3.773   1.318  10.716 -0.4366 -0.5882  0.2218
  148SAPE  H11A16306   3.745   1.374  10.623  0.0807 -0.6312  0.0383
  148SAPE  H11B16307   3.694   1.240  10.715 -2.0334  0.8979 -2.6504
  148SAPE     P16308   3.943   1.158  10.615 -0.0315 -0.2894 -0.3173
  148SAPE   O1316309   4.079   1.186  10.566 -0.4245  0.3466 -0.1450
  148SAPE   O1416310   3.923   1.033  10.684 -0.0102  0.5871  0.0091
  148SAPE   O1216311   3.904   1.273  10.717 -0.1646  0.3552 -0.2246
  148SAPE   O1116312   3.841   1.163  10.493 -0.0530  0.4177  0.0075
  148SAPE    C116313   3.841   1.266  10.395  0.2434 -0.3616  0.0358
  148SAPE    HA16314   3.884   1.356  10.444 -1.0077  0.1278  0.2677
  148SAPE    HB16315   3.913   1.226  10.320  1.5842 -1.1172  1.6490
  148SAPE    C216316   3.707   1.284  10.335 -0.1201 -0.0440 -0.2835
  148SAPE    HS16317   3.638   1.295  10.422  0.0130 -2.1241  0.1571
  148SAPE   O2116318   3.676   1.162  10.260 -0.2776 -0.0678 -0.6592
  148SAPE   C2116319   3.554   1.113  10.268  0.8383  0.2786  0.0605
  148SAPE   O2216320   3.456   1.177  10.308  0.2156  0.1200 -0.1789
  148SAPE   C2216321   3.545   0.971  10.220 -0.8041 -0.2686  0.0395
  148SAPE   H2R16322   3.643   0.941  10.178 -0.8678 -1.6035  0.7660
  148SAPE   H2S16323   3.524   0.916  10.315  0.0267 -0.8486 -0.1007
  148SAPE    C316324   3.710   1.399  10.227 -0.4390 -0.3567 -0.6770
  148SAPE    HX16325   3.790   1.369  10.156 -1.1125 -0.8176 -1.2468
  148SAPE    HY16326   3.730   1.496  10.278 -0.6902  0.7561 -2.5874
  148SAPE   O3116327   3.587   1.412  10.151  0.2609  0.0340 -0.8069
  148SAPE   C3116328   3.492   1.493  10.204  0.2079 -0.1430  0.5847
  148SAPE   O3216329   3.507   1.561  10.301 -0.0512  0.1262 -1.0906
  148SAPE   C3216330   3.360   1.484  10.114  0.0280 -0.7520  0.5062
  148SAPE   H2X16331   3.289   1.419  10.170 -1.1618  1.4680  1.7061
  148SAPE   H2Y16332   3.394   1.450  10.014  0.8836 -2.9143  1.4596
  148SAPE   C2316333   3.429   0.946  10.125 -0.3620 -0.3622  0.7263
  148SAPE   H3R16334   3.419   1.020  10.043  0.9270  0.6854  1.4623
  148SAPE   H3S16335   3.336   0.967  10.184 -2.1222  1.1052 -2.3430
  148SAPE   C2416336   3.429   0.810  10.052 -0.8838  0.3265 -0.6234
  148SAPE   H4R16337   3.534   0.806  10.015 -0.2985  0.6937  0.9227
  148SAPE   H4S16338   3.356   0.809   9.969 -2.1120  0.8027  0.4097
  148SAPE   C2516339   3.408   0.689  10.140 -0.3772 -0.6153  0.4385
  148SAPE   H5R16340   3.499   0.672  10.199  0.0139 -1.4257 -0.3604
  148SAPE   C2616341   3.287   0.628  10.163  0.0756 -0.0470  0.4225
  148SAPE   H6R16342   3.275   0.545  10.235 -1.9267  1.1129  1.5182
  148SAPE   C2716343   3.149   0.659  10.095  0.0438 -0.2669  0.4442
  148SAPE   H7R16344   3.155   0.742  10.022  0.9965 -0.3604  0.3989
  148SAPE   H7S16345   3.083   0.715  10.164  0.3618  1.8349 -0.8656
  148SAPE   C2816346   3.091   0.529  10.038  0.4038 -0.6972 -1.0365
  148SAPE   H8R16347   3.041   0.461  10.108 -0.0104 -2.3056 -2.8180
  148SAPE   C2916348   3.077   0.508   9.907 -0.1585 -0.5661 -0.0543
  148SAPE   H9R16349   3.036   0.414   9.868 -2.4122  0.3129  0.0195
  148SAPE  C21016350   3.121   0.598   9.799 -0.2760 -0.1018 -0.6430
  148SAPE  H10R16351   3.173   0.530   9.729 -2.4162 -0.8616 -1.5534
  148SAPE  H10S16352   3.199   0.674   9.820  0.7747 -0.0902 -3.9925
  148SAPE  C21116353   3.006   0.658   9.721 -0.3384  0.4817 -0.3929
  148SAPE  H11R16354   2.924   0.700   9.781 -0.1176  3.0982 -1.7551
  148SAPE  C21216355   3.004   0.661   9.586 -0.3054  0.0687 -0.2359
  148SAPE  H12R16356   2.913   0.706   9.543 -1.4658  0.2386  2.2201
  148SAPE  C21316357   3.108   0.602   9.497 -1.0724 -0.6693 -0.2905
  148SAPE  H13R16358   3.091   0.493   9.481 -1.4715 -0.8330  1.1002
  148SAPE  H13S16359   3.211   0.613   9.537 -1.1782 -0.2401 -0.1298
  148SAPE  C21416360   3.107   0.672   9.364 -0.4555 -0.6863 -0.3854
  148SAPE  H14R16361   3.021   0.739   9.350 -1.2160 -1.6502 -0.4509
  148SAPE  C21516362   3.204   0.662   9.269 -0.0563  0.5396 -0.6424
  148SAPE  H15R16363   3.183   0.716   9.175  0.6943 -0.2003 -1.2557
  148SAPE  C21616364   3.323   0.573   9.275  0.1733 -0.4341  0.0009
  148SAPE  H16R16365   3.335   0.519   9.179 -1.4157  1.2136 -1.1875
  148SAPE  H16S16366   3.307   0.494   9.352 -0.6350 -0.7443 -0.4666
  148SAPE  C21716367   3.448   0.650   9.294 -0.9182 -0.3784 -0.3933
  148SAPE  H17R16368   3.440   0.692   9.396 -3.5646  0.9900 -1.0681
  148SAPE  H17S16369   3.444   0.739   9.228  0.8608 -0.2640 -0.3871
  148SAPE  C21816370   3.576   0.569   9.267  0.1097  0.5397  0.3239
  148SAPE  H18R16371   3.584   0.545   9.159  0.1857 -1.2108  0.6997
  148SAPE  H18S16372   3.571   0.471   9.318  0.4508  0.5339  0.3503
  148SAPE  C21916373   3.699   0.641   9.327 -0.0334  0.5695 -0.2458
  148SAPE  H19R16374   3.667   0.683   9.425 -0.7618 -2.3889  0.8680
  148SAPE  H19S16375   3.722   0.732   9.267  2.0484  0.1295 -0.1993
  148SAPE  C22016376   3.826   0.550   9.335  0.4589  0.3874 -1.3143
  148SAPE  H20R16377   3.858   0.504   9.239  2.2330  1.6736 -1.3775
  148SAPE  H20S16378   3.804   0.467   9.406  2.5160  1.9412  1.3179
  148SAPE  H20T16379   3.908   0.613   9.376  1.4682  0.1462 -2.9006
  148SAPE   C3316380   3.286   1.623  10.097 -0.4253 -0.2999 -0.1876
  148SAPE   H3X16381   3.346   1.702  10.048  0.2233 -0.4550  0.3396
  148SAPE   H3Y16382   3.255   1.660  10.197  0.7627 -0.6708  0.3350
  148SAPE   C3416383   3.152   1.628  10.024 -0.5550 -0.1672 -0.3939
  148SAPE   H4X16384   3.112   1.731  10.025  1.6098  0.7298  0.6210
  148SAPE   H4Y16385   3.082   1.572  10.090  0.1163  0.5159  0.9509
  148SAPE   C3516386   3.168   1.590   9.877 -0.1060  0.8184  0.4033
  148SAPE   H5X16387   3.189   1.481   9.880 -3.0309  0.2109  3.0430
  148SAPE   H5Y16388   3.259   1.632   9.828  1.2124 -2.7382 -0.4577
  148SAPE   C3616389   3.038   1.604   9.800  0.6653  0.1291  0.2414
  148SAPE   H6X16390   3.019   1.710   9.772 -0.2387  0.2175  1.1495
  148SAPE   H6Y16391   2.954   1.585   9.870  1.4391  1.2767  1.5258
  148SAPE   C3716392   3.030   1.519   9.672  0.2471 -0.3550 -1.2383
  148SAPE   H7X16393   2.926   1.529   9.632  0.7079  0.5748 -2.2733
  148SAPE   H7Y16394   3.066   1.416   9.692 -0.4006 -0.8014 -2.3135
  148SAPE   C3816395   3.132   1.569   9.571 -0.3168 -0.0937 -0.2171
  148SAPE   H8X16396   3.229   1.517   9.589  1.5228  2.1102 -2.8490
  148SAPE   H8Y16397   3.148   1.679   9.570  1.7844 -0.3586 -1.7223
  148SAPE   C3916398   3.090   1.530   9.423  0.9147 -0.0037  0.2562
  148SAPE   H9X16399   2.981   1.553   9.423  0.9863  0.4482 -1.2343
  148SAPE   H9Y16400   3.100   1.420   9.408 -1.2450 -0.2809  0.5879
  148SAPE  C31016401   3.158   1.606   9.308  0.2690  0.6303 -0.0013
  148SAPE  H10X16402   3.269   1.606   9.312  0.3447 -0.8314 -1.1072
  148SAPE  H10Y16403   3.134   1.713   9.325 -0.4696  0.3587  0.7321
  148SAPE  C31116404   3.114   1.551   9.166 -0.3421 -0.5069 -0.1133
  148SAPE  H11X16405   3.003   1.554   9.168 -0.3925  2.2626 -1.5157
  148SAPE  H11Y16406   3.137   1.445   9.143  0.2721 -0.4138  0.0729
  148SAPE  C31216407   3.157   1.653   9.054  0.1418  1.0722  0.7494
  148SAPE  H12X16408   3.266   1.655   9.029  0.2835 -1.4970  0.9008
  148SAPE  H12Y16409   3.124   1.754   9.085 -0.8405  1.0014 -0.0313
  148SAPE  C31316410   3.092   1.620   8.919  0.1428 -1.0670  0.6725
  148SAPE  H13X16411   3.112   1.709   8.855  0.1454 -1.0302  0.7248
  148SAPE  H13Y16412   2.982   1.608   8.922  0.1247 -1.0680  0.1256
  148SAPE  C31416413   3.163   1.502   8.840  0.2339 -0.7093 -0.7504
  148SAPE  H14X16414   3.125   1.406   8.882 -2.5258 -0.4944 -2.4891
  148SAPE  H14Y16415   3.272   1.513   8.853 -0.1361  1.6578  1.0335
  148SAPE  C31516416   3.124   1.485   8.693 -0.5004 -0.1172  0.5580
  148SAPE  H15X16417   3.192   1.557   8.644 -0.3982  0.3729  1.3933
  148SAPE  H15Y16418   3.026   1.534   8.680 -0.1155  0.8229  1.0667
  148SAPE  C31616419   3.119   1.347   8.631  0.3114  0.7206 -0.0659
  148SAPE  H16X16420   3.044   1.299   8.697  0.0956  2.5818  1.1200
  148SAPE  H16Y16421   3.216   1.294   8.648  0.3445  0.5737 -0.6925
  148SAPE  C31716422   3.070   1.340   8.489 -0.2839 -0.3979  0.3060
  148SAPE  H17X16423   2.973   1.391   8.508 -0.0976  0.5236 -1.0294
  148SAPE  H17Y16424   3.060   1.234   8.458  2.1585 -0.4228 -0.5796
  148SAPE  C31816425   3.150   1.433   8.393 -0.6496  0.8582  1.2340
  148SAPE  H18X16426   3.259   1.414   8.393 -0.6956  0.3448 -0.8641
  148SAPE  H18Y16427   3.133   1.542   8.406  1.8574  1.4561 -0.0316
  148SAPE  H18Z16428   3.117   1.416   8.288  1.0739 -0.0937  0.8109
  149SAPE     N16429   5.249   5.230  10.388 -0.2833  0.3257  0.4846
  149SAPE   HN116430   5.197   5.290  10.321 -0.8184  0.4310  0.9890
  149SAPE   HN216431   5.348   5.263  10.394 -0.5897  1.4827 -0.5000
  149SAPE   HN316432   5.244   5.141  10.335  0.2267  1.5499 -1.7637
  149SAPE   C1216433   5.185   5.221  10.521  0.0775 -0.1089 -0.1640
  149SAPE  H12A16434   5.079   5.246  10.499 -0.7768 -3.3576 -0.3109
  149SAPE  H12B16435   5.240   5.291  10.588  1.5749 -0.8875 -0.5292
  149SAPE   C1116436   5.190   5.069  10.567  0.1671  0.8009  0.4721
  149SAPE  H11A16437   5.143   5.061  10.668  0.0905  1.8937  0.5301
  149SAPE  H11B16438   5.296   5.035  10.579  0.4777  1.3951 -0.5163
  149SAPE     P16439   5.176   4.890  10.371  0.0330  0.3791  0.2104
  149SAPE   O1316440   5.242   4.985  10.279  0.2990 -0.5907 -0.6692
  149SAPE   O1416441   5.251   4.770  10.422  0.0844 -0.1392  0.6065
  149SAPE   O1216442   5.115   4.979  10.486  0.9604 -0.1240  0.1539
  149SAPE   O1116443   5.048   4.843  10.289  0.7659 -0.1930 -0.1712
  149SAPE    C116444   4.920   4.902  10.299  0.6194  0.5891 -0.0514
  149SAPE    HA16445   4.864   4.845  10.376 -1.7102  1.3504 -1.0821
  149SAPE    HB16446   4.922   5.010  10.326 -1.7490  0.3739  1.2686
  149SAPE    C216447   4.843   4.901  10.164  0.0682 -0.0154  0.9385
  149SAPE    HS16448   4.836   4.796  10.130 -2.6769  0.1308  0.7872
  149SAPE   O2116449   4.929   4.975  10.066 -0.4798 -0.1145  0.7279
  149SAPE   C2116450   4.895   4.952   9.936  0.3698 -0.2508  0.0738
  149SAPE   O2216451   4.820   4.861   9.900 -0.4363 -0.3118  1.1454
  149SAPE   C2216452   4.971   5.053   9.849 -0.0938 -0.1832  0.0314
  149SAPE   H2R16453   4.951   5.152   9.894  3.2639  0.0133  1.3686
  149SAPE   H2S16454   5.079   5.035   9.870 -0.1192 -0.1802  0.1689
  149SAPE    C316455   4.702   4.971  10.187 -0.2857 -0.3555 -0.0738
  149SAPE    HX16456   4.724   5.071  10.229  0.5333 -1.1262  1.4021
  149SAPE    HY16457   4.651   4.914  10.267  0.6736 -0.7451  0.2602
  149SAPE   O3116458   4.619   4.988  10.068 -0.6043 -0.1721  0.1836
  149SAPE   C3116459   4.559   4.874  10.035 -0.4742 -0.3214  0.2823
  149SAPE   O3216460   4.568   4.769  10.095 -0.6052 -0.0836 -0.0440
  149SAPE   C3216461   4.467   4.902   9.919  0.9108  0.2343  0.2860
  149SAPE   H2X16462   4.478   5.004   9.878 -2.1716  0.0625 -1.3108
  149SAPE   H2Y16463   4.369   4.910   9.971  0.4311 -5.5059  0.8851
  149SAPE   C2316464   4.925   5.044   9.700  0.6071  0.4342 -0.0826
  149SAPE   H3R16465   4.913   4.936   9.677  0.3252  0.2656  0.8154
  149SAPE   H3S16466   5.000   5.091   9.633  0.0027  2.0237  0.3056
  149SAPE   C2416467   4.789   5.109   9.675  0.4093  0.0034  0.7539
  149SAPE   H4R16468   4.718   5.094   9.760 -0.6695 -0.6137 -0.2141
  149SAPE   H4S16469   4.746   5.066   9.582  2.7621 -0.3730 -0.2159
  149SAPE   C2516470   4.803   5.257   9.661 -0.4259 -0.4005 -0.6097
  149SAPE   H5R16471   4.870   5.311   9.730 -0.4094 -1.4532  0.2442
  149SAPE   C2616472   4.750   5.331   9.563  0.4223 -0.3566 -0.6191
  149SAPE   H6R16473   4.790   5.431   9.544  1.0976 -0.5042 -0.0352
  149SAPE   C2716474   4.637   5.295   9.467  0.8495 -0.0466 -0.5869
  149SAPE   H7R16475   4.539   5.311   9.518  0.9595 -1.0060 -0.0550
  149SAPE   H7S16476   4.634   5.186   9.451  0.1610 -0.1267 -0.0112
  149SAPE   C2816477   4.609   5.379   9.344  0.0659  0.0531  0.4747
  149SAPE   H8R16478   4.537   5.461   9.352 -0.1482 -0.2133  1.5160
  149SAPE   C2916479   4.650   5.345   9.220  0.3860  0.3018 -0.1249
  149SAPE   H9R16480   4.630   5.416   9.138  0.0303  0.9305  0.5019
  149SAPE  C21016481   4.748   5.229   9.186 -0.3317 -0.3526  0.0048
  149SAPE  H10R16482   4.688   5.136   9.188  1.2271 -1.4219 -0.7268
  149SAPE  H10S16483   4.819   5.218   9.271 -0.5926  0.7167  0.3779
  149SAPE  C21116484   4.827   5.236   9.056 -0.8212 -1.0899  0.2081
  149SAPE  H11R16485   4.921   5.289   9.074 -1.5348 -0.2035  1.5497
  149SAPE  C21216486   4.796   5.203   8.929  0.7788 -0.6849  0.0248
  149SAPE  H12R16487   4.872   5.200   8.849 -0.1970 -2.4233 -0.9130
  149SAPE  C21316488   4.668   5.134   8.883 -0.0848  0.7354 -1.3048
  149SAPE  H13R16489   4.588   5.153   8.957 -2.2763 -0.5640 -3.2192
  149SAPE  H13S16490   4.677   5.024   8.896 -0.2225  0.9642  1.0395
  149SAPE  C21416491   4.605   5.171   8.759 -0.4510 -0.1647  0.2897
  149SAPE  H14R16492   4.653   5.246   8.695  0.8598  0.5396  2.0352
  149SAPE  C21516493   4.490   5.106   8.712  0.1672  0.5919  0.9921
  149SAPE  H15R16494   4.456   5.148   8.616  1.2737 -0.5072  0.0799
  149SAPE  C21616495   4.407   4.997   8.772 -0.0806  0.1527  0.1388
  149SAPE  H16R16496   4.301   5.030   8.764 -0.6321 -1.9936 -2.6701
  149SAPE  H16S16497   4.435   4.986   8.879 -1.4477 -0.0033  0.4894
  149SAPE  C21716498   4.419   4.871   8.684  0.2530 -0.5030 -0.1128
  149SAPE  H17R16499   4.524   4.841   8.700 -0.3160 -2.6690 -0.0832
  149SAPE  H17S16500   4.395   4.901   8.579  2.2744  1.8389  0.0154
  149SAPE  C21816501   4.329   4.757   8.724  0.6033  0.0956 -0.3703
  149SAPE  H18R16502   4.225   4.793   8.708  0.3327 -0.4151  0.1931
  149SAPE  H18S16503   4.359   4.742   8.830  1.1706 -0.5580 -0.6162
  149SAPE  C21916504   4.363   4.626   8.647 -0.2832  0.3236 -0.2728
  149SAPE  H19R16505   4.473   4.613   8.637 -0.4564 -2.2214  0.6091
  149SAPE  H19S16506   4.314   4.616   8.548 -0.2644 -1.6376 -0.1049
  149SAPE  C22016507   4.323   4.494   8.729 -0.1618 -0.1187  0.4432
  149SAPE  H20R16508   4.215   4.500   8.754  0.1359 -0.4709  1.9013
  149SAPE  H20S16509   4.373   4.483   8.827 -0.5418 -3.4832  0.3852
  149SAPE  H20T16510   4.340   4.401   8.670 -2.4056 -1.7058  2.1242
  149SAPE   C3316511   4.450   4.784   9.818 -0.1917  0.0031  0.0418
  149SAPE   H3X16512   4.346   4.799   9.782 -0.2922  0.4168  0.5033
  149SAPE   H3Y16513   4.456   4.685   9.868 -1.7481 -1.4103 -2.3812
  149SAPE   C3416514   4.541   4.799   9.699 -0.1244 -0.0467  1.1051
  149SAPE   H4X16515   4.644   4.768   9.728  0.0828 -0.5226 -0.0830
  149SAPE   H4Y16516   4.537   4.906   9.670 -0.5631 -0.4563 -0.4526
  149SAPE   C3516517   4.513   4.709   9.577 -0.3522 -0.2150 -0.4518
  149SAPE   H5X16518   4.402   4.707   9.564 -0.4529 -1.2203  0.3857
  149SAPE   H5Y16519   4.529   4.601   9.598 -2.4826 -0.4789  0.0961
  149SAPE   C3616520   4.581   4.770   9.452  0.5896 -0.1874  0.4639
  149SAPE   H6X16521   4.687   4.790   9.477  0.6675 -1.4809  1.2560
  149SAPE   H6Y16522   4.537   4.871   9.437 -0.6593 -0.9028 -1.0076
  149SAPE   C3716523   4.553   4.690   9.330  0.2301  0.1518 -0.0723
  149SAPE   H7X16524   4.448   4.658   9.315  0.6938 -0.9120 -1.2079
  149SAPE   H7Y16525   4.604   4.593   9.350  1.0037  0.5044 -0.2974
  149SAPE   C3816526   4.596   4.758   9.198 -0.3457  0.7215  0.1374
  149SAPE   H8X16527   4.699   4.799   9.205  0.7977 -1.5776 -1.9724
  149SAPE   H8Y16528   4.525   4.843   9.185 -0.6129  0.7801  1.7733
  149SAPE   C3916529   4.599   4.659   9.085  0.7643  0.5127 -0.4057
  149SAPE   H9X16530   4.493   4.627   9.087  0.9573 -0.1578 -0.5051
  149SAPE   H9Y16531   4.652   4.565   9.113 -1.4144 -0.6929 -0.1888
  149SAPE  C31016532   4.635   4.701   8.945  0.3443 -0.5704  0.3573
  149SAPE  H10X16533   4.603   4.805   8.926  2.9483  0.0055 -1.4093
  149SAPE  H10Y16534   4.582   4.638   8.870  0.3790  1.3346 -1.3551
  149SAPE  C31116535   4.782   4.690   8.918 -0.8483 -0.2981  0.3077
  149SAPE  H11X16536   4.822   4.588   8.936  0.4731  0.2444  0.4900
  149SAPE  H11Y16537   4.830   4.765   8.984 -2.4474  1.8791 -0.8347
  149SAPE  C31216538   4.832   4.716   8.775 -0.4856 -0.2130  0.3328
  149SAPE  H12X16539   4.787   4.649   8.699  0.8780  1.4620 -2.1139
  149SAPE  H12Y16540   4.940   4.688   8.771 -0.9411 -1.9827 -0.3150
  149SAPE  C31316541   4.822   4.854   8.725 -0.7480  0.3161 -0.2042
  149SAPE  H13X16542   4.881   4.916   8.796  0.7084 -0.1308 -0.9800
  149SAPE  H13Y16543   4.717   4.889   8.725 -0.8621  0.3416 -3.6984
  149SAPE  C31416544   4.873   4.874   8.578  0.0349  0.3973 -0.4684
  149SAPE  H14X16545   4.847   4.776   8.533  0.8124  0.4856 -1.1089
  149SAPE  H14Y16546   4.983   4.880   8.576  0.0095  1.0213 -0.1897
  149SAPE  C31516547   4.809   4.989   8.498  0.3025 -0.1127 -0.3791
  149SAPE  H15X16548   4.794   5.083   8.556 -2.1145  0.7829 -2.3036
  149SAPE  H15Y16549   4.704   4.962   8.477 -0.1315  0.4801  0.9259
  149SAPE  C31616550   4.886   5.024   8.371  0.2119 -0.0595 -0.0186
  149SAPE  H16X16551   4.888   4.937   8.302  0.4568 -0.6560  0.7229
  149SAPE  H16Y16552   4.994   5.039   8.394 -0.3150  1.6548  1.5423
  149SAPE  C31716553   4.824   5.152   8.304 -0.4499  0.2027 -0.7029
  149SAPE  H17X16554   4.830   5.245   8.364 -2.4586 -1.5954  2.5753
  149SAPE  H17Y16555   4.718   5.130   8.280 -0.8253 -1.0908  1.8530
  149SAPE  C31816556   4.890   5.192   8.172 -0.7160  0.6256  0.1258
  149SAPE  H18X16557   4.850   5.294   8.153  0.8924  1.4676  0.9645
  149SAPE  H18Y16558   4.857   5.127   8.089 -0.9072 -0.7313  1.2354
  149SAPE  H18Z16559   5.001   5.178   8.174 -0.8731 -0.6261  1.0125
  150SAPE     N16560   2.855   2.335  10.250 -0.0530 -0.3950  0.1417
  150SAPE   HN116561   2.864   2.360  10.350  2.2238  3.1512 -0.7803
  150SAPE   HN216562   2.875   2.233  10.237 -0.2955 -0.7275  2.0979
  150SAPE   HN316563   2.919   2.397  10.197  1.2411 -0.3007  1.7195
  150SAPE   C1216564   2.720   2.381  10.198  0.1751 -0.0621 -0.0210
  150SAPE  H12A16565   2.661   2.341  10.283 -0.9389 -0.0100 -0.7476
  150SAPE  H12B16566   2.696   2.316  10.111  1.1534 -0.2879 -0.1335
  150SAPE   C1116567   2.688   2.529  10.173  0.3944  0.1366  0.9248
  150SAPE  H11A16568   2.581   2.535  10.144  0.1612 -0.8515  1.5297
  150SAPE  H11B16569   2.752   2.573  10.093  1.4712  1.4647  2.4375
  150SAPE     P16570   2.614   2.647  10.397  0.0615 -0.3319  0.2761
  150SAPE   O1316571   2.552   2.523  10.441 -0.4166  1.4731 -0.5759
  150SAPE   O1416572   2.666   2.737  10.497 -0.1150  0.3618 -0.2548
  150SAPE   O1216573   2.725   2.604  10.289  0.1811  0.1049 -0.1371
  150SAPE   O1116574   2.499   2.724  10.321  0.0914 -0.0630  0.5110
  150SAPE    C116575   2.528   2.824  10.224  0.3304  0.2511  0.0257
  150SAPE    HA16576   2.548   2.923  10.271  2.7937  1.4174 -3.1106
  150SAPE    HB16577   2.608   2.797  10.152 -0.7050 -1.0495 -0.6735
  150SAPE    C216578   2.401   2.843  10.131  0.4306  0.0125 -0.4094
  150SAPE    HS16579   2.312   2.831  10.197  0.1467 -1.7229 -1.0601
  150SAPE   O2116580   2.406   2.745  10.030  0.3260  0.8308 -0.1617
  150SAPE   C2116581   2.288   2.694   9.999 -0.1462 -0.1786 -0.7033
  150SAPE   O2216582   2.177   2.731  10.030 -0.1823  0.4788 -1.0099
  150SAPE   C2216583   2.306   2.580   9.897  0.4840  0.2672 -0.0410
  150SAPE   H2R16584   2.402   2.591   9.843  1.5963 -0.5115  1.7121
  150SAPE   H2S16585   2.307   2.485   9.955 -3.0763 -0.6114 -1.1220
  150SAPE    C316586   2.390   2.988  10.068 -0.6092  0.0682  0.5625
  150SAPE    HX16587   2.284   3.010  10.044  0.3186  3.0778 -1.3720
  150SAPE    HY16588   2.446   2.981   9.973 -0.2832  2.6981  0.5049
  150SAPE   O3116589   2.423   3.108  10.146 -0.2087  0.3244  0.1542
  150SAPE   C3116590   2.549   3.154  10.118 -0.2133  0.4625  0.1515
  150SAPE   O3216591   2.635   3.103  10.051  0.0011  0.1764 -0.0565
  150SAPE   C3216592   2.572   3.268  10.215  0.2657 -0.6346 -0.2657
  150SAPE   H2X16593   2.560   3.213  10.310  1.7730 -3.1810 -1.4417
  150SAPE   H2Y16594   2.494   3.347  10.204  0.1704 -0.3151  2.1483
  150SAPE   C2316595   2.194   2.566   9.795 -0.0655  0.6225  0.9325
  150SAPE   H3R16596   2.098   2.556   9.849  0.5791 -0.0536  2.0001
  150SAPE   H3S16597   2.208   2.463   9.756 -1.4226  0.2178  1.4632
  150SAPE   C2416598   2.203   2.665   9.680  0.2857 -0.1425  1.0209
  150SAPE   H4R16599   2.237   2.762   9.724 -0.5298  0.3633  0.5636
  150SAPE   H4S16600   2.100   2.687   9.643  0.5477  0.1576  0.4583
  150SAPE   C2516601   2.295   2.635   9.563  0.8066 -0.1668 -0.7829
  150SAPE   H5R16602   2.398   2.618   9.599  1.3649  1.1328 -1.6825
  150SAPE   C2616603   2.276   2.609   9.431  0.6064  0.1749  0.0584
  150SAPE   H6R16604   2.359   2.578   9.366 -0.4562 -0.0791 -1.2177
  150SAPE   C2716605   2.142   2.627   9.361 -0.5161  0.1386 -0.3368
  150SAPE   H7R16606   2.064   2.678   9.423  0.1350 -2.5096  2.9847
  150SAPE   H7S16607   2.098   2.527   9.342  1.2037 -0.9257  0.9745
  150SAPE   C2816608   2.151   2.684   9.217 -0.1383 -0.1599 -0.2387
  150SAPE   H8R16609   2.149   2.617   9.129 -0.5361 -0.3331 -0.1005
  150SAPE   C2916610   2.173   2.813   9.190  1.0737  0.0047 -0.0124
  150SAPE   H9R16611   2.162   2.850   9.086 -1.6046  0.0889  0.2323
  150SAPE  C21016612   2.201   2.920   9.296  0.5364  0.5204 -0.9088
  150SAPE  H10R16613   2.308   2.904   9.320  1.0366  2.3988 -1.7067
  150SAPE  H10S16614   2.148   2.892   9.389 -0.4115  0.3255 -1.4860
  150SAPE  C21116615   2.179   3.061   9.260  0.8533  0.1537 -0.4652
  150SAPE  H11R16616   2.089   3.108   9.304  1.6941  0.6981  0.7541
  150SAPE  C21216617   2.236   3.132   9.158  0.7379  0.6889 -0.0523
  150SAPE  H12R16618   2.197   3.231   9.130 -0.4443  0.4987  0.8218
  150SAPE  C21316619   2.344   3.088   9.069  0.4836  0.2357  0.9888
  150SAPE  H13R16620   2.352   3.156   8.982  0.2008 -0.6250  0.2772
  150SAPE  H13S16621   2.323   2.990   9.022  1.7083  0.7331 -0.6530
  150SAPE  C21416622   2.484   3.083   9.132  0.4319  0.6990  0.5907
  150SAPE  H14R16623   2.512   2.984   9.170 -3.1983 -0.7708 -0.1290
  150SAPE  C21516624   2.582   3.175   9.150 -0.3777  0.0907 -0.3890
  150SAPE  H15R16625   2.663   3.135   9.213 -0.5769 -1.8904 -1.3179
  150SAPE  C21616626   2.578   3.317   9.116 -0.2907 -0.1279  0.4032
  150SAPE  H16R16627   2.646   3.371   9.186 -0.7070  0.9497 -0.0128
  150SAPE  H16S16628   2.478   3.361   9.101  0.9472  2.0714 -2.3546
  150SAPE  C21716629   2.645   3.366   8.986 -0.2563  0.0855  0.4215
  150SAPE  H17R16630   2.752   3.340   8.999 -0.1432 -0.3195 -1.1069
  150SAPE  H17S16631   2.625   3.474   8.971  1.8009  0.2314 -1.9496
  150SAPE  C21816632   2.609   3.282   8.862  0.7013 -0.3714  0.0422
  150SAPE  H18R16633   2.504   3.287   8.825  1.3573  0.1396 -1.8338
  150SAPE  H18S16634   2.624   3.173   8.877 -2.4623 -1.2264 -1.9595
  150SAPE  C21916635   2.696   3.335   8.747  0.0507 -0.3180 -0.5136
  150SAPE  H19R16636   2.801   3.325   8.782 -0.1143 -0.8457 -0.1616
  150SAPE  H19S16637   2.671   3.443   8.748  3.4288  0.5680 -0.3095
  150SAPE  C22016638   2.667   3.264   8.610  0.4619 -0.6372  0.4706
  150SAPE  H20R16639   2.741   3.281   8.529 -1.3708 -0.6692 -1.3275
  150SAPE  H20S16640   2.562   3.291   8.584  0.0664  0.4602  2.9537
  150SAPE  H20T16641   2.670   3.155   8.632 -2.4784 -0.3465  3.1014
  150SAPE   C3316642   2.708   3.334  10.216 -0.2348 -0.8542  0.0658
  150SAPE   H3X16643   2.792   3.261  10.216  1.0413  0.5438 -0.7097
  150SAPE   H3Y16644   2.712   3.377  10.318  0.1067 -1.1026  0.1611
  150SAPE   C3416645   2.720   3.453  10.116 -0.4732 -0.7746  0.0049
  150SAPE   H4X16646   2.649   3.533  10.146  0.3197 -0.5984  1.5470
  150SAPE   H4Y16647   2.705   3.408  10.016  1.2594 -1.3626 -0.0304
  150SAPE   C3516648   2.868   3.501  10.113 -0.2300 -0.0057 -0.0187
  150SAPE   H5X16649   2.922   3.423  10.055  1.0422  0.3352  0.6746
  150SAPE   H5Y16650   2.906   3.507  10.217 -0.2412 -0.7175  0.0329
  150SAPE   C3616651   2.881   3.628  10.029 -0.3789 -0.3016 -0.5275
  150SAPE   H6X16652   2.969   3.684  10.068 -0.5933  0.4914 -1.1618
  150SAPE   H6Y16653   2.792   3.693  10.042  0.6707  1.0343  0.2649
  150SAPE   C3716654   2.909   3.608   9.877  0.9112 -0.0158  0.0661
  150SAPE   H7X16655   2.823   3.557   9.829  0.3854  1.2922 -0.4046
  150SAPE   H7Y16656   2.994   3.537   9.875  0.5830 -0.3839 -1.2845
  150SAPE   C3816657   2.943   3.739   9.811 -0.4358 -0.5672  0.4401
  150SAPE   H8X16658   3.022   3.798   9.861  0.4606 -0.5691 -0.9077
  150SAPE   H8Y16659   2.854   3.805   9.811  0.9166  1.4144 -1.7954
  150SAPE   C3916660   2.978   3.722   9.663  0.2374  0.3590  0.0234
  150SAPE   H9X16661   2.898   3.668   9.608  0.5727  0.3209 -0.4296
  150SAPE   H9Y16662   3.075   3.669   9.656 -0.4061 -0.7118 -1.3388
  150SAPE  C31016663   2.995   3.862   9.599  0.3184  0.7956  0.1820
  150SAPE  H10X16664   3.061   3.938   9.645 -0.7399  2.7639 -1.3994
  150SAPE  H10Y16665   2.893   3.906   9.589 -0.6607 -1.1971  0.8663
  150SAPE  C31116666   3.044   3.857   9.454 -0.0979  0.6549 -0.6244
  150SAPE  H11X16667   2.987   3.779   9.400 -0.2783 -0.2914  0.8858
  150SAPE  H11Y16668   3.148   3.819   9.463 -0.4683 -1.0620 -2.8249
  150SAPE  C31216669   3.051   3.985   9.385 -0.0732  0.4513 -0.2347
  150SAPE  H12X16670   3.091   4.069   9.445  0.3019 -1.0634  1.7230
  150SAPE  H12Y16671   2.948   4.023   9.366 -0.4141  0.2090  1.0734
  150SAPE  C31316672   3.128   3.973   9.248  0.2276 -0.2664  0.4757
  150SAPE  H13X16673   3.078   3.904   9.177 -3.9274  2.8435  0.0012
  150SAPE  H13Y16674   3.227   3.928   9.270  0.4667  0.6114  1.2744
  150SAPE  C31416675   3.151   4.113   9.179 -0.4712  0.4426 -0.0903
  150SAPE  H14X16676   3.217   4.179   9.240  1.4708  0.2344 -1.8898
  150SAPE  H14Y16677   3.064   4.182   9.172  0.1871  1.1887 -1.2449
  150SAPE  C31516678   3.215   4.100   9.040 -0.1572  0.7608  0.0082
  150SAPE  H15X16679   3.151   4.035   8.976 -1.0355  0.4358  1.1943
  150SAPE  H15Y16680   3.314   4.051   9.057 -1.2822 -0.7581  2.6911
  150SAPE  C31616681   3.245   4.242   8.978 -0.5878  0.3690  0.1327
  150SAPE  H16X16682   3.341   4.279   9.020  0.4607  0.2343 -1.9981
  150SAPE  H16Y16683   3.168   4.311   9.019 -2.2148 -1.8504  1.0295
  150SAPE  C31716684   3.247   4.243   8.824  0.4221  0.1451 -0.0605
  150SAPE  H17X16685   3.255   4.350   8.793  0.5757  0.3292  0.6032
  150SAPE  H17Y16686   3.149   4.203   8.790  0.0912  0.2273  0.7525
  150SAPE  C31816687   3.370   4.176   8.773 -0.2465 -0.2060 -0.2147
  150SAPE  H18X16688   3.388   4.198   8.665  2.3101 -0.4359  0.1124
  150SAPE  H18Y16689   3.375   4.066   8.787  1.7814 -0.1463 -0.2241
  150SAPE  H18Z16690   3.457   4.216   8.828 -0.6303  0.5188 -0.1174
  151SAPE     N16691   4.198   0.398  10.541  0.3473  0.1495 -0.2156
  151SAPE   HN116692   4.242   0.324  10.600  1.5724  0.9575 -0.0757
  151SAPE   HN216693   4.113   0.437  10.587 -0.2707  0.4881 -1.5799
  151SAPE   HN316694   4.154   0.345  10.463  2.1728 -0.5862 -0.7916
  151SAPE   C1216695   4.306   0.493  10.505  0.5933 -0.1933  0.3250
  151SAPE  H12A16696   4.268   0.591  10.469 -1.2022 -0.8125  0.4195
  151SAPE  H12B16697   4.354   0.448  10.415 -1.3440  0.9978 -1.4122
  151SAPE   C1116698   4.408   0.528  10.618 -0.8656 -0.1684  0.2015
  151SAPE  H11A16699   4.355   0.601  10.682 -1.2818 -1.7074  1.6691
  151SAPE  H11B16700   4.491   0.578  10.564 -0.5282 -0.8553  0.0674
  151SAPE     P16701   4.579   0.359  10.697  0.0376  0.4494  0.0383
  151SAPE   O1316702   4.669   0.449  10.776 -0.1523 -0.1520 -0.2164
  151SAPE   O1416703   4.567   0.225  10.752  0.5778  1.0796 -0.1123
  151SAPE   O1216704   4.439   0.416  10.697 -0.9352 -0.0960 -0.2076
  151SAPE   O1116705   4.620   0.348  10.546  0.0935 -0.6392  0.1112
  151SAPE    C116706   4.741   0.415  10.491 -0.6697  0.7494 -0.4067
  151SAPE    HA16707   4.796   0.484  10.558 -0.6735  1.1940 -0.8484
  151SAPE    HB16708   4.813   0.337  10.461  1.5309  1.7765  1.8866
  151SAPE    C216709   4.711   0.497  10.368 -0.0252 -0.2787 -0.2827
  151SAPE    HS16710   4.631   0.566  10.404 -1.9377 -2.7434  0.4670
  151SAPE   O2116711   4.664   0.409  10.263  0.3526  0.1523 -0.0138
  151SAPE   C2116712   4.561   0.456  10.205 -0.2635  0.2571  0.6720
  151SAPE   O2216713   4.508   0.562  10.223 -0.2021  0.0525  0.1108
  151SAPE   C2216714   4.514   0.356  10.105 -1.0002  0.3518 -0.4360
  151SAPE   H2R16715   4.588   0.346  10.023 -1.4417  0.8500 -0.9022
  151SAPE   H2S16716   4.509   0.261  10.162 -0.2728  0.0262 -0.8999
  151SAPE    C316717   4.839   0.572  10.313  0.4921  0.4844 -0.6158
  151SAPE    HX16718   4.914   0.494  10.289 -0.2605  0.2993 -2.5210
  151SAPE    HY16719   4.872   0.632  10.401 -1.4212 -1.5493  1.6208
  151SAPE   O3116720   4.817   0.663  10.206 -0.5861  0.2747  0.0331
  151SAPE   C3116721   4.840   0.607  10.086  0.3265 -0.2635 -0.1534
  151SAPE   O3216722   4.883   0.499  10.065 -0.2679  0.3683  0.1456
  151SAPE   C3216723   4.794   0.702   9.984 -0.0981 -0.3811 -0.2512
  151SAPE   H2X16724   4.818   0.638   9.896  0.2919  0.0031 -0.4283
  151SAPE   H2Y16725   4.859   0.792   9.978 -0.0832 -0.4760 -2.5181
  151SAPE   C2316726   4.372   0.381  10.063 -0.1920  0.2085  0.1690
  151SAPE   H3R16727   4.368   0.475  10.005  0.2873  1.2210  1.7286
  151SAPE   H3S16728   4.301   0.396  10.147 -2.0432  2.1937 -1.6379
  151SAPE   C2416729   4.325   0.281   9.956 -0.4206 -0.2838  0.0208
  151SAPE   H4R16730   4.336   0.175   9.985  0.0983 -0.5865 -1.2184
  151SAPE   H4S16731   4.391   0.293   9.868 -0.7685 -1.1250 -0.3574
  151SAPE   C2516732   4.177   0.308   9.927  0.1072 -0.4232  0.0911
  151SAPE   H5R16733   4.106   0.268  10.000 -0.5220 -2.4437 -1.5681
  151SAPE   C2616734   4.128   0.363   9.816 -0.2854  0.2453  0.0347
  151SAPE   H6R16735   4.019   0.364   9.803 -0.1865  1.2879 -0.7767
  151SAPE   C2716736   4.205   0.419   9.702  0.2850 -0.9986  0.6466
  151SAPE   H7R16737   4.298   0.360   9.688  1.1299  0.5918 -0.8203
  151SAPE   H7S16738   4.225   0.525   9.727 -0.1758 -1.1321  1.6349
  151SAPE   C2816739   4.132   0.411   9.569  0.4394 -0.0865 -0.3639
  151SAPE   H8R16740   4.049   0.484   9.565  2.1904  2.3636  2.7667
  151SAPE   C2916741   4.160   0.326   9.464 -0.1149 -0.0389 -0.1872
  151SAPE   H9R16742   4.100   0.333   9.372 -1.3312 -1.2241  0.4838
  151SAPE  C21016743   4.267   0.226   9.452 -0.3454  0.8527 -0.2420
  151SAPE  H10R16744   4.241   0.155   9.370  0.4669  1.2259 -0.8418
  151SAPE  H10S16745   4.270   0.161   9.541  1.0849 -0.5005 -1.2267
  151SAPE  C21116746   4.400   0.278   9.420 -0.1170  0.4161 -0.2768
  151SAPE  H11R16747   4.469   0.283   9.506 -1.2603  0.7801  0.6460
  151SAPE  C21216748   4.440   0.308   9.296 -0.4608  0.1509  0.1899
  151SAPE  H12R16749   4.541   0.349   9.284  0.4186 -1.7701  0.6626
  151SAPE  C21316750   4.357   0.297   9.167 -0.5331 -0.3288  0.6892
  151SAPE  H13R16751   4.327   0.403   9.150  0.0530 -0.5492 -2.3918
  151SAPE  H13S16752   4.264   0.236   9.165 -0.5673 -0.3862 -2.9171
  151SAPE  C21416753   4.435   0.261   9.045  0.7531  0.3291  0.0095
  151SAPE  H14R16754   4.540   0.243   9.071  1.0282  1.3583 -0.3501
  151SAPE  C21516755   4.386   0.224   8.923 -0.2669  0.2042 -0.7516
  151SAPE  H15R16756   4.455   0.190   8.844  2.1869  0.0304  1.3136
  151SAPE  C21616757   4.237   0.203   8.896 -0.2614  0.2455  0.4373
  151SAPE  H16R16758   4.207   0.274   8.817 -0.2128  0.4840  0.6308
  151SAPE  H16S16759   4.177   0.242   8.981  1.1404 -0.2286  1.6951
  151SAPE  C21716760   4.194   0.056   8.872 -0.8436  0.0026 -0.0154
  151SAPE  H17R16761   4.083   0.044   8.870 -0.8882  0.2811  0.5358
  151SAPE  H17S16762   4.232   0.014   8.968  0.2678  0.0943 -0.3973
  151SAPE  C21816763   4.244  -0.002   8.739 -0.2265 -0.4757 -0.6077
  151SAPE  H18R16764   4.353   0.014   8.725 -0.1981 -1.1946 -1.2799
  151SAPE  H18S16765   4.193   0.044   8.651 -0.4659 -1.2931 -0.9074
  151SAPE  C21916766   4.204  -0.148   8.729 -0.7688  0.4961  0.5251
  151SAPE  H19R16767   4.102  -0.160   8.771 -0.2105  2.0572  2.4645
  151SAPE  H19S16768   4.272  -0.203   8.796  0.1806  0.2818 -0.5799
  151SAPE  C22016769   4.216  -0.213   8.597 -0.4728 -0.0574  0.2836
  151SAPE  H20R16770   4.298  -0.181   8.529 -0.5724 -0.7822 -0.1878
  151SAPE  H20S16771   4.127  -0.189   8.535  0.7193 -0.9400 -1.8724
  151SAPE  H20T16772   4.217  -0.323   8.613 -0.8933  0.1662  2.0974
  151SAPE   C3316773   4.644   0.745  10.001 -0.0535  0.1105 -0.6039
  151SAPE   H3X16774   4.642   0.827  10.076  1.4911  0.0453 -0.4447
  151SAPE   H3Y16775   4.594   0.653  10.038  0.6332 -0.2036 -0.4308
  151SAPE   C3416776   4.571   0.797   9.884 -0.0406  0.1478  1.0050
  151SAPE   H4X16777   4.614   0.888   9.837 -0.9968 -0.3508 -0.9465
  151SAPE   H4Y16778   4.475   0.833   9.927 -0.2666  0.8494 -0.0335
  151SAPE   C3516779   4.546   0.694   9.772 -0.0044 -0.2228  0.2630
  151SAPE   H5X16780   4.477   0.619   9.818 -1.6812  0.5351 -0.8901
  151SAPE   H5Y16781   4.636   0.647   9.727 -1.1968 -0.3158 -2.1776
  151SAPE   C3616782   4.452   0.764   9.671  0.3906 -1.1612 -0.5092
  151SAPE   H6X16783   4.500   0.860   9.643 -0.0677 -0.7042  0.2449
  151SAPE   H6Y16784   4.352   0.768   9.718  1.1281 -3.8502  1.5748
  151SAPE   C3716785   4.434   0.663   9.551  0.2324 -0.2221  0.2967
  151SAPE   H7X16786   4.367   0.586   9.593 -0.3431 -0.4789 -1.0402
  151SAPE   H7Y16787   4.523   0.608   9.514 -1.4071 -3.4385  0.8428
  151SAPE   C3816788   4.380   0.737   9.431  0.6121 -0.1606  0.0085
  151SAPE   H8X16789   4.454   0.813   9.399 -0.1076  1.4570  1.9883
  151SAPE   H8Y16790   4.296   0.787   9.484  0.2164 -1.3383  0.5476
  151SAPE   C3916791   4.331   0.644   9.319  0.7353  0.4764 -0.7303
  151SAPE   H9X16792   4.281   0.553   9.356 -1.7478  0.2433 -4.1671
  151SAPE   H9Y16793   4.415   0.609   9.255  0.2403 -1.4645 -0.3559
  151SAPE  C31016794   4.234   0.714   9.224  0.1922 -0.5805 -0.5300
  151SAPE  H10X16795   4.278   0.813   9.199 -0.9444  0.0103 -0.2504
  151SAPE  H10Y16796   4.154   0.728   9.300  2.8411 -1.3185  2.6420
  151SAPE  C31116797   4.192   0.634   9.103  1.1662  0.5303 -0.1051
  151SAPE  H11X16798   4.147   0.541   9.145 -0.3138  0.6984 -1.2106
  151SAPE  H11Y16799   4.284   0.602   9.049  1.5521 -0.7762  1.2719
  151SAPE  C31216800   4.080   0.702   9.027 -0.4920  0.4126 -0.5353
  151SAPE  H12X16801   4.046   0.780   9.098  0.5233  0.3604  0.0350
  151SAPE  H12Y16802   3.998   0.629   9.011 -1.2708  0.5148  2.5227
  151SAPE  C31316803   4.122   0.760   8.892 -0.2375 -0.1664  0.0164
  151SAPE  H13X16804   4.037   0.818   8.851 -0.5721 -0.8118 -0.2170
  151SAPE  H13Y16805   4.142   0.674   8.825 -1.2913 -0.8828  0.6035
  151SAPE  C31416806   4.246   0.856   8.886  0.6791  0.0720 -1.0534
  151SAPE  H14X16807   4.329   0.822   8.952 -0.9876 -0.7836  0.6846
  151SAPE  H14Y16808   4.212   0.953   8.930  1.1052 -1.3773  2.8860
  151SAPE  C31516809   4.302   0.880   8.747 -0.9980  0.2617  0.4779
  151SAPE  H15X16810   4.226   0.933   8.685  1.1044  2.8213 -0.0835
  151SAPE  H15Y16811   4.332   0.788   8.693  0.7761  1.2571 -0.3083
  151SAPE  C31616812   4.423   0.976   8.750  0.8832  0.1277  0.3646
  151SAPE  H16X16813   4.496   0.945   8.828  0.1532 -2.3434  0.1459
  151SAPE  H16Y16814   4.402   1.083   8.774 -0.7153  0.6048 -2.6985
  151SAPE  C31716815   4.488   0.973   8.612 -0.5676  0.0982  0.2340
  151SAPE  H17X16816   4.496   0.865   8.586 -2.4092 -0.3069  1.1898
  151SAPE  H17Y16817   4.594   1.003   8.622  0.0427 -0.9350 -2.2184
  151SAPE  C31816818   4.434   1.068   8.505  0.2884  0.5326 -0.2646
  151SAPE  H18X16819   4.428   1.174   8.537 -1.8665  0.2505  0.4379
  151SAPE  H18Y16820   4.331   1.034   8.479  0.5652 -1.6870  1.2613
  151SAPE  H18Z16821   4.482   1.066   8.405 -1.7615 -1.4585 -1.3275
  152SAPE     N16822   6.016   1.729  10.807  0.4092  0.1454 -0.0881
  152SAPE   HN116823   6.069   1.765  10.725  0.4233 -2.0652 -1.1265
  152SAPE   HN216824   5.957   1.808  10.842 -2.9036 -1.3732 -1.8199
  152SAPE   HN316825   6.087   1.692  10.874 -0.3620 -1.9922 -0.3723
  152SAPE   C1216826   5.914   1.623  10.767 -0.3304  0.3216  1.2644
  152SAPE  H12A16827   5.943   1.595  10.664  0.2179 -0.5816  1.6549
  152SAPE  H12B16828   5.813   1.668  10.762  0.0311  1.0123 -0.8508
  152SAPE   C1116829   5.901   1.502  10.854 -0.1623  0.5492 -0.9385
  152SAPE  H11A16830   5.845   1.538  10.942  1.1351  0.6949 -0.1396
  152SAPE  H11B16831   5.988   1.453  10.903 -1.8627 -1.6999  0.0059
  152SAPE     P16832   5.902   1.293  10.711 -0.3307  0.2083 -0.0359
  152SAPE   O1316833   5.986   1.227  10.808 -0.4086  0.2564  0.1015
  152SAPE   O1416834   5.805   1.219  10.633  0.4118  0.3376 -0.0691
  152SAPE   O1216835   5.818   1.400  10.785 -0.3927 -0.2532 -0.1117
  152SAPE   O1116836   5.987   1.378  10.618 -0.2928  0.0049  0.3938
  152SAPE    C116837   6.106   1.326  10.544  0.4458 -0.1387  0.3862
  152SAPE    HA16838   6.169   1.416  10.532 -0.9913  0.8264 -0.2067
  152SAPE    HB16839   6.156   1.242  10.597 -0.8478 -0.4896  1.0924
  152SAPE    C216840   6.068   1.274  10.399 -0.2614 -0.1222 -0.0512
  152SAPE    HS16841   6.013   1.184  10.433  0.5457 -1.1572 -1.3515
  152SAPE   O2116842   6.194   1.247  10.340 -0.1202  0.1493  0.0677
  152SAPE   C2116843   6.229   1.123  10.314  0.8065 -0.2254 -0.2210
  152SAPE   O2216844   6.163   1.024  10.356 -0.5590 -0.6595  0.3098
  152SAPE   C2216845   6.361   1.107  10.236  0.8393  0.8280 -0.3199
  152SAPE   H2R16846   6.445   1.087  10.306  1.5446  1.2838 -1.0130
  152SAPE   H2S16847   6.348   1.016  10.174  0.4928  0.5468  0.1579
  152SAPE    C316848   5.990   1.386  10.319  0.2738  0.3173 -0.8068
  152SAPE    HX16849   6.061   1.471  10.309 -0.8085  1.3805  0.1601
  152SAPE    HY16850   5.909   1.434  10.379  0.6291  0.3715 -0.3702
  152SAPE   O3116851   5.939   1.333  10.194 -0.3421  0.0108  0.8847
  152SAPE   C3116852   5.838   1.399  10.138 -0.0616  0.0543 -0.1755
  152SAPE   O3216853   5.770   1.480  10.196 -0.4442 -0.7621 -0.2934
  152SAPE   C3216854   5.827   1.370   9.984  0.4554 -0.2127 -0.0584
  152SAPE   H2X16855   5.914   1.311   9.948 -0.1652 -0.9254 -0.4048
  152SAPE   H2Y16856   5.825   1.467   9.930  0.0209  0.7383  1.6090
  152SAPE   C2316857   6.405   1.229  10.156 -0.6046 -0.3208 -0.1218
  152SAPE   H3R16858   6.509   1.222  10.117 -0.2163 -0.4865  0.9100
  152SAPE   H3S16859   6.408   1.320  10.220  0.4200  0.2241 -0.9232
  152SAPE   C2416860   6.298   1.261  10.042  0.1890 -0.5536 -0.1840
  152SAPE   H4R16861   6.334   1.362  10.013 -1.5976 -0.1249 -1.0747
  152SAPE   H4S16862   6.193   1.279  10.073  0.7731  1.5086  0.7905
  152SAPE   C2516863   6.297   1.168   9.920  0.0572  0.5377 -0.1637
  152SAPE   H5R16864   6.302   1.061   9.943 -0.6948 -0.4080 -3.7892
  152SAPE   C2616865   6.310   1.203   9.789  0.8351 -0.3263 -0.2275
  152SAPE   H6R16866   6.327   1.118   9.722 -1.7010 -1.7687  0.8186
  152SAPE   C2716867   6.315   1.346   9.730 -0.1925  0.6990  0.4962
  152SAPE   H7R16868   6.330   1.327   9.621 -1.4836  0.8018  0.2852
  152SAPE   H7S16869   6.404   1.403   9.764 -0.1104  0.7172  0.2563
  152SAPE   C2816870   6.192   1.428   9.747  0.4547  0.1237 -0.2558
  152SAPE   H8R16871   6.210   1.498   9.830 -0.6451  0.8518 -0.6053
  152SAPE   C2916872   6.085   1.443   9.671 -0.6866 -1.3335  0.6185
  152SAPE   H9R16873   6.003   1.507   9.705  0.8583  1.2773 -0.2547
  152SAPE  C21016874   6.061   1.353   9.554 -0.9297  0.5203 -0.6346
  152SAPE  H10R16875   6.155   1.315   9.509 -1.8319 -1.5458 -0.9042
  152SAPE  H10S16876   6.019   1.416   9.472  0.7896  2.3559 -0.1928
  152SAPE  C21116877   5.968   1.241   9.568 -0.0379  0.3422 -0.5143
  152SAPE  H11R16878   5.926   1.237   9.670  1.3685 -1.1322  0.0646
  152SAPE  C21216879   5.924   1.162   9.468  0.5388  0.3718 -0.4183
  152SAPE  H12R16880   5.859   1.075   9.487  2.5648 -1.0735  0.2079
  152SAPE  C21316881   5.969   1.175   9.325 -0.1676  0.4088  0.1131
  152SAPE  H13R16882   5.987   1.283   9.307 -1.1185  0.5336 -0.1373
  152SAPE  H13S16883   5.887   1.149   9.254  0.2498 -0.5496 -0.0470
  152SAPE  C21416884   6.097   1.092   9.295  0.0275 -0.3605  0.1002
  152SAPE  H14R16885   6.165   1.088   9.381 -0.4829 -0.0983  0.5165
  152SAPE  C21516886   6.131   1.039   9.175 -0.3366 -0.3534  0.9242
  152SAPE  H15R16887   6.224   0.981   9.174 -0.8011 -1.2047  2.6481
  152SAPE  C21616888   6.051   1.031   9.041  0.4970  0.5252 -0.4903
  152SAPE  H16R16889   6.111   1.044   8.949  0.1304  1.1103 -0.6601
  152SAPE  H16S16890   5.986   1.122   9.033  1.1618  1.2524  1.7282
  152SAPE  C21716891   5.958   0.904   9.035 -0.1519  0.2706 -0.0010
  152SAPE  H17R16892   5.917   0.892   9.137 -2.1591  2.8074 -0.4003
  152SAPE  H17S16893   6.033   0.825   9.015 -0.2058  0.1518  0.2598
  152SAPE  C21816894   5.833   0.918   8.940 -0.6054 -1.1247 -0.5826
  152SAPE  H18R16895   5.864   0.980   8.854  0.2181 -0.4476  0.1792
  152SAPE  H18S16896   5.752   0.968   8.997  1.1019 -0.3126  1.2662
  152SAPE  C21916897   5.793   0.784   8.882 -0.3046 -0.5166 -0.3388
  152SAPE  H19R16898   5.761   0.723   8.969  0.5694  2.3194  2.1512
  152SAPE  H19S16899   5.881   0.738   8.832  0.4090 -1.7194  1.8830
  152SAPE  C22016900   5.676   0.801   8.784 -0.6105 -0.8233  0.2807
  152SAPE  H20R16901   5.596   0.868   8.820  0.1327 -1.1193  2.6822
  152SAPE  H20S16902   5.631   0.701   8.763 -0.8345 -0.8567  0.9057
  152SAPE  H20T16903   5.720   0.834   8.688 -1.0166  0.9951  0.6813
  152SAPE   C3316904   5.688   1.320   9.938 -1.0735  0.6938 -0.0477
  152SAPE   H3X16905   5.604   1.377   9.983 -2.7112 -0.1368 -1.8862
  152SAPE   H3Y16906   5.687   1.212   9.965 -0.1467  0.8095  0.4718
  152SAPE   C3416907   5.652   1.326   9.784 -0.7062 -0.6825  0.3124
  152SAPE   H4X16908   5.556   1.277   9.758 -0.4067 -0.6221 -0.9685
  152SAPE   H4Y16909   5.734   1.274   9.731 -1.6142 -0.4519 -1.3967
  152SAPE   C3516910   5.644   1.461   9.721  0.3517 -0.8061  0.8988
  152SAPE   H5X16911   5.741   1.504   9.688 -0.0487  0.0447  0.7889
  152SAPE   H5Y16912   5.588   1.531   9.787  0.5467 -1.8157  2.1486
  152SAPE   C3616913   5.559   1.444   9.592  0.4014 -0.1548  0.1769
  152SAPE   H6X16914   5.526   1.548   9.575  1.3220 -0.2967 -3.4082
  152SAPE   H6Y16915   5.470   1.378   9.599  1.9025 -2.6906 -2.2310
  152SAPE   C3716916   5.636   1.401   9.465  0.1784  0.2414  0.2073
  152SAPE   H7X16917   5.686   1.304   9.490  0.0273  0.3958  1.1317
  152SAPE   H7Y16918   5.718   1.475   9.451 -2.0757  2.4848 -2.1975
  152SAPE   C3816919   5.553   1.387   9.340  0.4010  0.4370  0.4205
  152SAPE   H8X16920   5.519   1.488   9.309 -1.0241 -0.4508 -1.0622
  152SAPE   H8Y16921   5.462   1.331   9.371 -2.5760  2.7847 -3.3109
  152SAPE   C3916922   5.632   1.321   9.227 -0.3920 -0.8654  0.3425
  152SAPE   H9X16923   5.639   1.214   9.255 -4.1594 -1.3441 -0.0463
  152SAPE   H9Y16924   5.735   1.362   9.211  0.0274 -2.3280 -0.9283
  152SAPE  C31016925   5.553   1.316   9.097  0.2110  0.8702 -0.1190
  152SAPE  H10X16926   5.516   1.416   9.065 -0.9296  0.1935 -0.9588
  152SAPE  H10Y16927   5.468   1.252   9.125 -0.9061  1.6638 -1.5330
  152SAPE  C31116928   5.621   1.253   8.975 -0.6848 -0.0749  0.5428
  152SAPE  H11X16929   5.666   1.159   9.014  0.2279  0.8756  1.8786
  152SAPE  H11Y16930   5.708   1.316   8.946  2.2362 -3.7610  0.5473
  152SAPE  C31216931   5.529   1.253   8.851  0.0857 -0.4623 -0.3889
  152SAPE  H12X16932   5.494   1.350   8.809 -1.5033 -0.9386 -0.2361
  152SAPE  H12Y16933   5.435   1.201   8.879  0.6193 -0.1738  2.1634
  152SAPE  C31316934   5.600   1.161   8.745  0.1723  0.6463  0.4326
  152SAPE  H13X16935   5.529   1.120   8.669 -0.1346  1.5944  0.1939
  152SAPE  H13Y16936   5.655   1.076   8.789 -2.2790 -2.4115 -1.8961
  152SAPE  C31416937   5.700   1.238   8.656  0.4940  0.6209  0.3356
  152SAPE  H14X16938   5.769   1.302   8.714 -1.0255  1.3983  1.3554
  152SAPE  H14Y16939   5.650   1.309   8.586 -0.0599 -1.7985 -1.8963
  152SAPE  C31516940   5.777   1.133   8.571 -0.2128  0.0665 -0.0783
  152SAPE  H15X16941   5.718   1.105   8.481  0.2359 -0.4856 -0.2115
  152SAPE  H15Y16942   5.782   1.038   8.629 -2.2812  1.2782  2.2506
  152SAPE  C31616943   5.914   1.174   8.522  0.3846  0.1182 -0.2466
  152SAPE  H16X16944   5.979   1.204   8.607 -2.0370  0.6512  1.4895
  152SAPE  H16Y16945   5.907   1.254   8.445 -1.5716 -0.4080 -0.6621
  152SAPE  C31716946   5.991   1.062   8.450 -0.0025  0.2403  1.1401
  152SAPE  H17X16947   6.086   1.101   8.408  0.2583  0.1434  1.6415
  152SAPE  H17Y16948   5.923   1.024   8.371  2.9435 -0.2539 -1.3511
  152SAPE  C31816949   6.040   0.946   8.530  0.0812 -0.0655  0.9393
  152SAPE  H18X16950   5.965   0.892   8.591 -0.8325  0.5805  0.4060
  152SAPE  H18Y16951   6.115   0.990   8.599  0.7415  1.8835 -0.9008
  152SAPE  H18Z16952   6.097   0.873   8.469  0.0488  0.3554  0.3872
  153SAPE     N16953   0.022   2.289  10.734 -0.4718 -0.4263  0.3264
  153SAPE   HN116954   0.033   2.231  10.819  2.0381  1.0926  1.1383
  153SAPE   HN216955   0.093   2.250  10.669  1.4226 -0.1765  2.1376
  153SAPE   HN316956   0.050   2.388  10.747  1.1064 -0.6093 -1.3234
  153SAPE   C1216957  -0.111   2.277  10.669  0.8625 -0.5144  0.2290
  153SAPE  H12A16958  -0.149   2.381  10.671  1.0526 -0.4434  0.0437
  153SAPE  H12B16959  -0.174   2.210  10.733  0.3855 -1.3026 -1.0298
  153SAPE   C1116960  -0.090   2.210  10.537  0.3328  0.0703 -0.0983
  153SAPE  H11A16961  -0.062   2.277  10.453  0.2425  0.8485  0.4836
  153SAPE  H11B16962  -0.189   2.172  10.503  0.3567  1.0215 -1.2784
  153SAPE     P16963  -0.059   1.949  10.540 -0.5168 -0.1723  0.1812
  153SAPE   O1316964   0.039   1.868  10.462  0.0535 -0.2180  0.0116
  153SAPE   O1416965  -0.083   1.911  10.681  0.0045  0.6534  0.1031
  153SAPE   O1216966  -0.006   2.098  10.546  0.1140  0.2794  0.1084
  153SAPE   O1116967  -0.194   1.955  10.465  0.0442 -0.1568 -0.2334
  153SAPE    C116968  -0.310   1.886  10.512 -0.4538 -0.8215  0.0707
  153SAPE    HA16969  -0.326   1.896  10.621 -2.0858 -1.7362 -0.0499
  153SAPE    HB16970  -0.399   1.936  10.468  0.2275  2.0219  1.6952
  153SAPE    C216971  -0.307   1.734  10.467  0.0244 -0.1491 -0.2247
  153SAPE    HS16972  -0.230   1.682  10.526 -1.0269 -0.9977  0.4426
  153SAPE   O2116973  -0.282   1.704  10.330 -0.8934  0.5068  0.1369
  153SAPE   C2116974  -0.263   1.581  10.295 -0.3802  0.0320  0.1834
  153SAPE   O2216975  -0.234   1.492  10.369  0.3914  0.0973  0.2837
  153SAPE   C2216976  -0.274   1.558  10.142  0.0293 -0.1867  0.1378
  153SAPE   H2R16977  -0.207   1.474  10.115  0.8704  0.6960 -0.6410
  153SAPE   H2S16978  -0.379   1.531  10.119  1.0317 -2.1235 -2.7908
  153SAPE    C316979  -0.437   1.662  10.517  0.0465  0.0937  0.4099
  153SAPE    HX16980  -0.450   1.697  10.621 -1.0663 -1.1481  0.7150
  153SAPE    HY16981  -0.425   1.552  10.521  0.7866  0.2038  2.4190
  153SAPE   O3116982  -0.547   1.688  10.430 -0.3820  0.2529 -0.2229
  153SAPE   C3116983  -0.650   1.762  10.482  0.0323  0.6834 -0.6189
  153SAPE   O3216984  -0.659   1.793  10.597 -0.7874 -0.1806  0.5410
  153SAPE   C3216985  -0.763   1.774  10.375  0.4285  0.2659  0.2566
  153SAPE   H2X16986  -0.839   1.851  10.401 -1.8231 -1.6965 -0.2296
  153SAPE   H2Y16987  -0.800   1.670  10.381  0.5338  0.2004 -0.2304
  153SAPE   C2316988  -0.236   1.677  10.049 -0.1647 -0.4642 -0.1702
  153SAPE   H3R16989  -0.208   1.631   9.952 -3.0957 -0.8758 -0.9105
  153SAPE   H3S16990  -0.151   1.738  10.087 -0.2958  0.8469 -1.8889
  153SAPE   C2416991  -0.350   1.764  10.024 -0.4662 -0.6853  0.6802
  153SAPE   H4R16992  -0.386   1.801  10.122  1.3761 -0.4523  1.3130
  153SAPE   H4S16993  -0.430   1.709   9.970 -0.1764  0.9394 -1.5298
  153SAPE   C2516994  -0.310   1.888   9.949  0.0027  0.3257  0.5220
  153SAPE   H5R16995  -0.239   1.956   9.999 -0.1340 -0.7026  2.1800
  153SAPE   C2616996  -0.319   1.897   9.814 -0.6549 -0.3203  0.0455
  153SAPE   H6R16997  -0.303   1.999   9.776  0.0457 -0.2895  0.4107
  153SAPE   C2716998  -0.388   1.811   9.714  0.4369  0.0014 -0.2079
  153SAPE   H7R16999  -0.498   1.822   9.724  0.3499 -1.1871  0.2885
  153SAPE   H7S17000  -0.378   1.705   9.745  1.9462 -0.0822 -0.8936
  153SAPE   C2817001  -0.357   1.823   9.565 -0.3100  0.4455 -0.2524
  153SAPE   H8R17002  -0.347   1.925   9.525 -1.3239  0.4156 -0.6049
  153SAPE   C2917003  -0.355   1.730   9.470 -0.1385  0.1650 -0.1151
  153SAPE   H9R17004  -0.315   1.751   9.370 -0.4563  1.5852  0.0425
  153SAPE  C21017005  -0.373   1.585   9.496  0.0963  0.1466  0.8743
  153SAPE  H10R17006  -0.409   1.564   9.599  0.1524 -1.2704  0.6259
  153SAPE  H10S17007  -0.285   1.527   9.460 -1.3046 -2.3380  1.2066
  153SAPE  C21117008  -0.491   1.536   9.409  0.0475 -0.4865 -0.2683
  153SAPE  H11R17009  -0.589   1.547   9.456  0.5939  1.1874  0.5705
  153SAPE  C21217010  -0.488   1.468   9.291  0.0156  0.3472 -0.0045
  153SAPE  H12R17011  -0.581   1.421   9.256  0.0696  0.1136  0.1621
  153SAPE  C21317012  -0.367   1.435   9.210 -0.2600 -0.6091  1.0430
  153SAPE  H13R17013  -0.373   1.327   9.185 -1.6470 -0.0085 -1.4888
  153SAPE  H13S17014  -0.269   1.448   9.261  1.1105 -1.1050 -1.3054
  153SAPE  C21417015  -0.361   1.510   9.074 -0.2228 -0.1634 -0.1659
  153SAPE  H14R17016  -0.459   1.523   9.025  0.1277  0.3447 -0.7461
  153SAPE  C21517017  -0.258   1.578   9.022  0.2180 -0.4501  0.2204
  153SAPE  H15R17018  -0.270   1.616   8.920  1.1424 -0.3827  0.1276
  153SAPE  C21617019  -0.122   1.594   9.083  0.2489 -0.7211 -0.1430
  153SAPE  H16R17020  -0.055   1.531   9.020  0.5093 -1.8909  1.2657
  153SAPE  H16S17021  -0.112   1.563   9.189  1.2418 -0.6858 -0.2099
  153SAPE  C21717022  -0.076   1.750   9.078 -0.2681  0.8691 -0.0166
  153SAPE  H17R17023   0.019   1.756   9.134 -0.1936 -2.0619  0.3169
  153SAPE  H17S17024  -0.154   1.811   9.130  1.0843  0.9667  1.9955
  153SAPE  C21817025  -0.046   1.793   8.938  0.5364 -0.0357 -0.0985
  153SAPE  H18R17026  -0.133   1.845   8.895  0.2875  1.0648  1.6476
  153SAPE  H18S17027  -0.049   1.698   8.881  0.1429 -0.6308  0.8854
  153SAPE  C21917028   0.086   1.869   8.918 -0.2466 -0.7131 -0.4082
  153SAPE  H19R17029   0.160   1.832   8.993 -1.9402 -1.5258  0.9261
  153SAPE  H19S17030   0.071   1.974   8.948  4.9874 -0.0195  0.8740
  153SAPE  C22017031   0.145   1.862   8.781 -0.3791  0.0528  0.7097
  153SAPE  H20R17032   0.073   1.910   8.712 -0.0571  0.1665  0.4514
  153SAPE  H20S17033   0.149   1.753   8.757  1.5810  0.5067 -1.3261
  153SAPE  H20T17034   0.248   1.902   8.770  0.6323 -2.4644  0.3176
  153SAPE   C3317035  -0.714   1.797  10.228  0.1228  0.7727 -0.0068
  153SAPE   H3X17036  -0.641   1.722  10.193 -0.6059 -0.6793  1.4574
  153SAPE   H3Y17037  -0.678   1.901  10.211  2.6328  0.1693  1.1651
  153SAPE   C3417038  -0.829   1.776  10.128 -0.3471  0.4233  0.0219
  153SAPE   H4X17039  -0.887   1.868  10.151  0.9756  1.4942 -0.7789
  153SAPE   H4Y17040  -0.895   1.689  10.151 -0.3341  0.6068  0.7785
  153SAPE   C3517041  -0.785   1.786   9.982 -0.1245 -0.7835 -0.5410
  153SAPE   H5X17042  -0.723   1.699   9.951  1.2330  0.3895 -1.2477
  153SAPE   H5Y17043  -0.713   1.870   9.988 -2.0822  0.9035  1.8565
  153SAPE   C3617044  -0.902   1.819   9.891  0.5370 -0.1703  0.7559
  153SAPE   H6X17045  -0.953   1.909   9.930 -0.5154 -0.2747 -0.3266
  153SAPE   H6Y17046  -0.978   1.738   9.891 -1.7244  1.8448  0.3832
  153SAPE   C3717047  -0.854   1.846   9.751  0.5259 -0.7151 -0.1144
  153SAPE   H7X17048  -0.813   1.747   9.724  0.1766 -1.4850  2.0263
  153SAPE   H7Y17049  -0.771   1.920   9.756  0.5168 -0.4709 -2.4032
  153SAPE   C3817050  -0.968   1.898   9.651 -0.9338  0.3620 -0.3526
  153SAPE   H8X17051  -1.009   1.993   9.690 -1.0456 -0.1778  0.8775
  153SAPE   H8Y17052  -1.046   1.818   9.650  0.4976 -1.1416  1.3495
  153SAPE   C3917053  -0.909   1.907   9.508 -0.1899 -0.3467 -0.2831
  153SAPE   H9X17054  -0.811   1.957   9.523 -1.2123  1.3087  1.2564
  153SAPE   H9Y17055  -0.975   1.972   9.447  0.9939  1.0254 -0.1445
  153SAPE  C31017056  -0.922   1.772   9.438 -0.3262  0.3123 -0.2280
  153SAPE  H10X17057  -1.027   1.743   9.458 -0.3211  0.9150  0.7672
  153SAPE  H10Y17058  -0.855   1.715   9.506  0.0397  0.6484 -0.3067
  153SAPE  C31117059  -0.882   1.774   9.294 -0.0003 -0.5020  0.5906
  153SAPE  H11X17060  -0.790   1.833   9.273 -0.7092  0.7834  0.9836
  153SAPE  H11Y17061  -0.956   1.820   9.224  2.1650 -0.2355 -1.6781
  153SAPE  C31217062  -0.870   1.628   9.249 -0.4505 -0.3657  0.3764
  153SAPE  H12X17063  -0.947   1.562   9.293 -1.3336  1.2280  1.3045
  153SAPE  H12Y17064  -0.778   1.595   9.302  0.2341  1.1377  0.1967
  153SAPE  C31317065  -0.843   1.589   9.100  0.7866 -0.1640  0.3523
  153SAPE  H13X17066  -0.809   1.484   9.112 -1.3932 -0.7391  1.9778
  153SAPE  H13Y17067  -0.763   1.648   9.049 -0.1843 -0.3984 -1.5232
  153SAPE  C31417068  -0.975   1.607   9.015  0.2166 -0.5473  0.6326
  153SAPE  H14X17069  -1.018   1.708   9.033  0.0532 -0.8142  1.8337
  153SAPE  H14Y17070  -1.057   1.538   9.046 -0.2561 -0.4410 -0.3395
  153SAPE  C31517071  -0.951   1.582   8.865 -0.4438  0.2614 -0.5886
  153SAPE  H15X17072  -0.919   1.476   8.865 -1.1854  0.0292  0.4407
  153SAPE  H15Y17073  -0.867   1.641   8.823  0.1373  0.2522  0.5462
  153SAPE  C31617074  -1.080   1.607   8.788 -0.6747 -0.0561 -0.4634
  153SAPE  H16X17075  -1.097   1.714   8.815  1.2958  0.2658 -0.3460
  153SAPE  H16Y17076  -1.156   1.534   8.823  0.9528 -1.9041 -0.6267
  153SAPE  C31717077  -1.065   1.597   8.636  0.1821  0.1132 -0.3059
  153SAPE  H17X17078  -1.160   1.586   8.579  0.3162  3.9006 -1.5164
  153SAPE  H17Y17079  -1.004   1.509   8.607 -2.9706 -1.7096 -1.9110
  153SAPE  C31817080  -0.988   1.715   8.574  0.5486  0.0753  0.1964
  153SAPE  H18X17081  -0.893   1.723   8.631  0.7780  1.9975 -0.3766
  153SAPE  H18Y17082  -1.044   1.811   8.574  2.5703  1.3164  0.5403
  153SAPE  H18Z17083  -0.973   1.683   8.469  1.3765  0.5470  0.1675
  154SAPE     N17084   0.307   1.840  10.531 -0.3470 -0.2042 -0.5377
  154SAPE   HN117085   0.356   1.755  10.497 -1.4682 -0.8184 -0.6588
  154SAPE   HN217086   0.216   1.847  10.481  0.0075 -1.2989 -1.3649
  154SAPE   HN317087   0.364   1.926  10.518  0.2462 -0.6314 -0.7945
  154SAPE   C1217088   0.263   1.832  10.675 -0.5190 -0.0840  0.8781
  154SAPE  H12A17089   0.326   1.752  10.720  1.9726  1.6241  0.5995
  154SAPE  H12B17090   0.156   1.801  10.675 -0.5140 -0.1402  2.0457
  154SAPE   C1117091   0.271   1.966  10.743  0.1881 -0.3836 -0.7983
  154SAPE  H11A17092   0.266   1.954  10.853  0.4285  0.0305 -0.7389
  154SAPE  H11B17093   0.183   2.029  10.717  0.6307  0.9686  0.8142
  154SAPE     P17094   0.401   2.197  10.744  0.0981 -0.2804 -0.0309
  154SAPE   O1317095   0.362   2.217  10.882 -0.2325  0.1802 -1.0070
  154SAPE   O1417096   0.533   2.245  10.695  0.2891 -0.1655  0.3044
  154SAPE   O1217097   0.384   2.047  10.707 -0.8645  0.8403  0.2620
  154SAPE   O1117098   0.287   2.275  10.661  0.0944 -0.1355 -0.1987
  154SAPE    C117099   0.316   2.291  10.516  0.1653 -0.2907  0.2883
  154SAPE    HA17100   0.234   2.357  10.482  0.7694  0.1472 -0.3240
  154SAPE    HB17101   0.410   2.348  10.497 -1.3956  2.1489 -0.5862
  154SAPE    C217102   0.301   2.154  10.432  0.4877 -0.0792  0.2272
  154SAPE    HS17103   0.220   2.103  10.490 -2.0652  2.4684 -0.8443
  154SAPE   O2117104   0.426   2.072  10.429  0.4708 -0.5984 -0.5333
  154SAPE   C2117105   0.532   2.123  10.395 -0.3622 -0.2537 -0.3146
  154SAPE   O2217106   0.553   2.231  10.334  0.6227  0.1330 -0.8323
  154SAPE   C2217107   0.647   2.025  10.432 -0.0587 -0.3528  0.2070
  154SAPE   H2R17108   0.734   2.056  10.369  0.4303 -0.4572  0.8194
  154SAPE   H2S17109   0.682   2.051  10.534 -1.1667  0.0689  0.4926
  154SAPE    C317110   0.243   2.170  10.287  0.7232 -0.4064  0.8691
  154SAPE    HX17111   0.324   2.222  10.232 -0.2353 -0.7417 -0.9520
  154SAPE    HY17112   0.159   2.242  10.289  2.2750  1.5068  0.0193
  154SAPE   O3117113   0.212   2.044  10.225  0.3250 -0.5122 -0.0031
  154SAPE   C3117114   0.097   2.013  10.169  0.1552 -0.2231 -0.2444
  154SAPE   O3217115   0.010   2.091  10.132  0.2161 -0.4360  0.1383
  154SAPE   C3217116   0.102   1.863  10.140 -0.1358  0.1084 -0.3993
  154SAPE   H2X17117   0.002   1.831  10.176  1.1796 -0.7139  2.8911
  154SAPE   H2Y17118   0.177   1.807  10.200 -0.8832 -0.9481 -0.4178
  154SAPE   C2317119   0.613   1.881  10.398  0.4436  0.1181  0.2599
  154SAPE   H3R17120   0.535   1.834  10.461  0.4421  0.7650  0.7650
  154SAPE   H3S17121   0.704   1.824  10.429  1.4594  2.1703  1.3003
  154SAPE   C2417122   0.568   1.859  10.253  0.0180 -0.5244 -0.0744
  154SAPE   H4R17123   0.478   1.913  10.217  0.4835  1.8895  2.1037
  154SAPE   H4S17124   0.544   1.751  10.238 -0.4070 -0.6214  1.2101
  154SAPE   C2517125   0.676   1.906  10.166 -0.4055  0.3837  0.4853
  154SAPE   H5R17126   0.730   1.999  10.191 -0.5292  0.9290 -1.1270
  154SAPE   C2617127   0.732   1.835  10.058  0.1356  0.1430 -0.8198
  154SAPE   H6R17128   0.814   1.881  10.001  1.5509 -1.5265 -0.2018
  154SAPE   C2717129   0.687   1.697  10.001  0.4797  0.5699 -0.5627
  154SAPE   H7R17130   0.672   1.723   9.894 -0.8463  1.7671 -0.1167
  154SAPE   H7S17131   0.592   1.664  10.048  2.3466 -2.7320  1.2537
  154SAPE   C2817132   0.783   1.588  10.013 -0.9704  0.2475  0.1965
  154SAPE   H8R17133   0.836   1.598  10.108 -1.0676  0.3272  0.2430
  154SAPE   C2917134   0.799   1.475   9.936  0.5318  0.8140  0.4723
  154SAPE   H9R17135   0.884   1.410   9.963  1.0181  1.4498  0.4787
  154SAPE  C21017136   0.718   1.436   9.819 -0.2663 -1.0278 -0.5178
  154SAPE  H10R17137   0.761   1.347   9.770 -0.9554 -0.7050 -1.7257
  154SAPE  H10S17138   0.727   1.510   9.737 -1.0556 -0.6441 -0.2712
  154SAPE  C21117139   0.574   1.402   9.849  0.3702  0.5069  0.0435
  154SAPE  H11R17140   0.545   1.388   9.954 -1.8614  0.6616 -0.4996
  154SAPE  C21217141   0.477   1.403   9.757  0.7588 -0.6918  0.6091
  154SAPE  H12R17142   0.374   1.397   9.794  0.6902  0.9077  0.7129
  154SAPE  C21317143   0.476   1.421   9.601 -0.1318  0.1817 -0.1120
  154SAPE  H13R17144   0.577   1.440   9.559 -0.4966 -0.1324 -1.1674
  154SAPE  H13S17145   0.422   1.516   9.582 -2.2790 -0.9198  0.2255
  154SAPE  C21417146   0.402   1.310   9.538  0.5043  0.4937 -0.1621
  154SAPE  H14R17147   0.435   1.211   9.572  1.3192 -0.1381 -2.6138
  154SAPE  C21517148   0.314   1.314   9.436  0.0798 -0.4452  0.1788
  154SAPE  H15R17149   0.270   1.220   9.401  0.7737 -0.4099 -0.8330
  154SAPE  C21617150   0.263   1.440   9.366  0.0929  0.0560 -0.6007
  154SAPE  H16R17151   0.336   1.523   9.380  0.9888 -0.8295  0.1418
  154SAPE  H16S17152   0.172   1.474   9.420  0.5337 -0.2403  0.3536
  154SAPE  C21717153   0.217   1.411   9.225  0.0664  0.5628  0.0727
  154SAPE  H17R17154   0.185   1.514   9.198  0.0022  0.5975  0.2799
  154SAPE  H17S17155   0.134   1.338   9.225  1.2157 -0.7899 -0.5176
  154SAPE  C21817156   0.323   1.369   9.116  0.1081  0.3426 -0.3621
  154SAPE  H18R17157   0.355   1.263   9.123 -1.4044 -0.4254 -3.4810
  154SAPE  H18S17158   0.402   1.448   9.108 -0.3251  0.9928  1.1971
  154SAPE  C21917159   0.250   1.368   8.981  0.2530 -0.0639 -0.1294
  154SAPE  H19R17160   0.158   1.306   8.981  0.1398  0.0734 -1.6290
  154SAPE  H19S17161   0.313   1.315   8.906 -0.5818  1.7181 -2.2029
  154SAPE  C22017162   0.218   1.506   8.918 -0.1219  0.3841  0.0233
  154SAPE  H20R17163   0.137   1.497   8.842  0.0271  0.6271 -0.1668
  154SAPE  H20S17164   0.310   1.550   8.873 -1.7182  1.5002 -2.3649
  154SAPE  H20T17165   0.188   1.584   8.991  1.6096  1.3870 -0.3007
  154SAPE   C3317166   0.097   1.822   9.992 -0.5689 -0.1241 -0.1422
  154SAPE   H3X17167   0.026   1.883   9.932 -0.9984 -0.4784  0.0044
  154SAPE   H3Y17168   0.059   1.718   9.983  0.2540 -0.6933  2.2073
  154SAPE   C3417169   0.240   1.820   9.924  0.2782  0.1763 -0.2569
  154SAPE   H4X17170   0.242   1.752   9.835 -0.0682  0.8121 -0.7585
  154SAPE   H4Y17171   0.319   1.794   9.997 -0.7008  1.3662  1.2975
  154SAPE   C3517172   0.280   1.958   9.867  0.0713  0.4065 -0.5939
  154SAPE   H5X17173   0.270   2.030   9.951 -0.2331  0.9929 -1.1290
  154SAPE   H5Y17174   0.205   1.985   9.790 -0.2887  1.7147  0.1748
  154SAPE   C3617175   0.422   1.949   9.806  0.0571  0.1858 -0.1170
  154SAPE   H6X17176   0.498   1.936   9.887  3.0235  0.1157 -2.7342
  154SAPE   H6Y17177   0.447   2.047   9.760  1.5962 -2.2344 -5.0724
  154SAPE   C3717178   0.444   1.848   9.699 -0.1474  0.1032 -0.3122
  154SAPE   H7X17179   0.383   1.860   9.607 -0.5517  0.1555 -0.0385
  154SAPE   H7Y17180   0.427   1.745   9.736 -1.2702 -0.2654 -1.7614
  154SAPE   C3817181   0.592   1.863   9.648  0.0001 -0.2254  0.0607
  154SAPE   H8X17182   0.664   1.847   9.731  0.0713  2.1351  0.5225
  154SAPE   H8Y17183   0.599   1.969   9.615 -0.9738 -0.3482 -0.5872
  154SAPE   C3917184   0.623   1.756   9.542  0.1596 -0.5216  0.5909
  154SAPE   H9X17185   0.545   1.771   9.464  0.7418 -0.1550  0.0619
  154SAPE   H9Y17186   0.617   1.652   9.579 -1.4045 -0.6178  0.1119
  154SAPE  C31017187   0.752   1.763   9.475 -0.7470 -0.6434 -0.1667
  154SAPE  H10X17188   0.830   1.733   9.548  0.3012  0.7004 -0.6928
  154SAPE  H10Y17189   0.782   1.864   9.440 -0.6446 -1.1990 -1.7873
  154SAPE  C31117190   0.758   1.665   9.355  0.8957 -0.7360  0.2540
  154SAPE  H11X17191   0.748   1.566   9.404 -1.6951 -1.1706 -0.9929
  154SAPE  H11Y17192   0.864   1.670   9.322  0.3178  0.3700 -1.6158
  154SAPE  C31217193   0.658   1.697   9.237  0.0956 -0.1341 -0.3807
  154SAPE  H12X17194   0.649   1.807   9.226 -0.0709 -0.1346 -0.2374
  154SAPE  H12Y17195   0.558   1.667   9.273  1.2974 -1.2388  2.3103
  154SAPE  C31317196   0.686   1.634   9.107 -0.8364 -0.2390 -0.1736
  154SAPE  H13X17197   0.708   1.525   9.105 -1.4411 -0.3531 -0.9691
  154SAPE  H13Y17198   0.782   1.681   9.077 -0.8647 -1.1346 -1.7400
  154SAPE  C31417199   0.581   1.669   8.990  0.0391 -0.6974 -0.0334
  154SAPE  H14X17200   0.612   1.769   8.953  2.0774 -1.3315 -0.2173
  154SAPE  H14Y17201   0.475   1.655   9.018 -0.3495 -3.0114 -2.2484
  154SAPE  C31517202   0.597   1.571   8.874 -0.1743  0.3649 -0.5866
  154SAPE  H15X17203   0.551   1.473   8.900 -1.2952  1.2223  0.8432
  154SAPE  H15Y17204   0.706   1.554   8.862  0.2234  2.5732 -0.6008
  154SAPE  C31617205   0.534   1.621   8.740 -0.1541 -0.2214  0.6550
  154SAPE  H16X17206   0.616   1.675   8.688  1.7206 -2.7383  0.7711
  154SAPE  H16Y17207   0.446   1.687   8.754 -0.6118 -0.5853 -0.3794
  154SAPE  C31717208   0.500   1.508   8.648  0.3560 -0.2496  0.3416
  154SAPE  H17X17209   0.407   1.462   8.686 -0.2009  0.2732 -0.3609
  154SAPE  H17Y17210   0.566   1.423   8.676  0.3216 -0.0565  1.0245
  154SAPE  C31817211   0.488   1.538   8.496 -0.1182  0.3510  0.4905
  154SAPE  H18X17212   0.575   1.597   8.461 -0.2581 -0.4666 -1.3447
  154SAPE  H18Y17213   0.403   1.603   8.467  0.7173  1.4587  0.4877
  154SAPE  H18Z17214   0.492   1.447   8.432  1.7439  1.0893 -0.5189
  155SAPE     N17215   2.292   2.438  10.429 -0.3136 -0.0885 -0.1729
  155SAPE   HN117216   2.390   2.474  10.424 -0.0623 -0.5379  1.1599
  155SAPE   HN217217   2.260   2.457  10.526 -0.1791  1.5158 -0.4164
  155SAPE   HN317218   2.298   2.334  10.429 -1.5009 -0.1696  0.1877
  155SAPE   C1217219   2.216   2.494  10.312 -0.4575 -0.2315 -0.6389
  155SAPE  H12A17220   2.285   2.481  10.226  1.3609 -3.8033  1.1121
  155SAPE  H12B17221   2.201   2.602  10.334  1.3605 -0.9526  6.5179
  155SAPE   C1117222   2.097   2.415  10.285 -0.1352  0.0698 -0.0013
  155SAPE  H11A17223   2.118   2.308  10.262 -1.3656 -0.5222  1.4542
  155SAPE  H11B17224   2.049   2.462  10.197 -0.2777  0.0790  0.0814
  155SAPE     P17225   1.907   2.513  10.425 -0.3007  0.4731  0.2452
  155SAPE   O1317226   1.847   2.491  10.562  0.0070  0.2833  0.1440
  155SAPE   O1417227   1.980   2.640  10.421  0.0689 -0.0860 -0.1075
  155SAPE   O1217228   2.016   2.401  10.400 -0.4604 -0.5784  1.2388
  155SAPE   O1117229   1.804   2.502  10.304 -0.1451  0.6881  0.2167
  155SAPE    C117230   1.760   2.374  10.255 -0.1113 -0.2840  0.2174
  155SAPE    HA17231   1.819   2.354  10.163 -0.2820 -2.0361  0.4367
  155SAPE    HB17232   1.767   2.285  10.321 -3.1466  0.6378  1.9928
  155SAPE    C217233   1.618   2.374  10.209 -0.2180 -0.0699 -0.5215
  155SAPE    HS17234   1.605   2.283  10.147  1.3083 -0.2316 -0.6333
  155SAPE   O2117235   1.591   2.487  10.131  0.1739 -0.5578 -0.1242
  155SAPE   C2117236   1.604   2.476  10.001 -0.3814  0.0475 -0.1742
  155SAPE   O2217237   1.626   2.375   9.945  0.4626 -0.2649  0.4879
  155SAPE   C2217238   1.588   2.604   9.923  0.0947 -0.2802  0.4084
  155SAPE   H2R17239   1.546   2.574   9.825  0.6498 -1.1701  0.4348
  155SAPE   H2S17240   1.523   2.674   9.980  1.8772  0.7236  1.3259
  155SAPE    C317241   1.518   2.350  10.317  0.2048 -0.2509 -0.2216
  155SAPE    HX17242   1.513   2.438  10.385 -0.2154 -0.9162  0.6167
  155SAPE    HY17243   1.551   2.271  10.388 -0.4258  0.5713  1.0215
  155SAPE   O3117244   1.386   2.313  10.265 -0.1579 -0.4257 -0.0149
  155SAPE   C3117245   1.343   2.188  10.293  0.3970 -0.4217 -0.3320
  155SAPE   O3217246   1.409   2.107  10.351  0.0212  0.5155 -0.3898
  155SAPE   C3217247   1.202   2.173  10.255 -0.3439 -1.0267 -0.3517
  155SAPE   H2X17248   1.147   2.265  10.285 -2.8169 -2.1927 -1.0063
  155SAPE   H2Y17249   1.166   2.089  10.318  1.9799 -1.4631  0.5052
  155SAPE   C2317250   1.723   2.684   9.894  0.1890  0.0992  0.1438
  155SAPE   H3R17251   1.813   2.619   9.884  0.8415  1.2337 -1.9484
  155SAPE   H3S17252   1.730   2.753   9.981 -0.7669  0.8928 -0.3954
  155SAPE   C2417253   1.712   2.773   9.765 -0.0560  0.1588  0.3299
  155SAPE   H4R17254   1.621   2.834   9.783 -1.0214 -0.5859 -1.7130
  155SAPE   H4S17255   1.681   2.701   9.687 -1.3438  0.0398  0.9284
  155SAPE   C2517256   1.835   2.846   9.729  0.4827  0.1666 -0.1937
  155SAPE   H5R17257   1.918   2.822   9.797  1.4379  1.5073 -0.8313
  155SAPE   C2617258   1.868   2.938   9.636 -0.3873  0.2191 -0.4920
  155SAPE   H6R17259   1.971   2.968   9.611 -0.4758  1.1393  0.1852
  155SAPE   C2717260   1.762   2.996   9.551  0.2591  0.6177  0.2606
  155SAPE   H7R17261   1.793   3.098   9.523 -0.9279  0.8117 -0.4206
  155SAPE   H7S17262   1.662   3.011   9.597 -0.6701  2.7043 -2.2105
  155SAPE   C2817263   1.735   2.908   9.427 -0.0233  0.2104 -0.1361
  155SAPE   H8R17264   1.745   2.799   9.440  0.3735  0.0249 -1.7309
  155SAPE   C2917265   1.701   2.950   9.306 -0.1288 -0.3930 -0.2110
  155SAPE   H9R17266   1.667   2.876   9.232 -0.9736  0.5963 -0.8500
  155SAPE  C21017267   1.682   3.095   9.252 -0.8212  0.9925 -0.2533
  155SAPE  H10R17268   1.671   3.165   9.338 -1.4269 -0.8878  1.2831
  155SAPE  H10S17269   1.592   3.098   9.187 -0.6989  1.4367 -0.4005
  155SAPE  C21117270   1.803   3.137   9.174  0.3179  0.3695 -0.2904
  155SAPE  H11R17271   1.843   3.234   9.208  1.2276  0.3458 -1.2465
  155SAPE  C21217272   1.859   3.079   9.067 -0.6522  0.2657 -0.3796
  155SAPE  H12R17273   1.952   3.122   9.029 -1.3707 -0.0009 -2.5766
  155SAPE  C21317274   1.829   2.955   8.986 -0.6894 -0.3530 -0.7474
  155SAPE  H13R17275   1.799   2.881   9.062  1.4296 -2.1291 -1.5561
  155SAPE  H13S17276   1.925   2.916   8.947  0.0237  0.7911 -0.1793
  155SAPE  C21417277   1.720   2.968   8.883 -0.0565 -0.8402 -0.2574
  155SAPE  H14R17278   1.628   3.010   8.925 -1.0472 -1.8247 -1.3762
  155SAPE  C21517279   1.720   2.936   8.753  0.7317 -0.1953  0.0062
  155SAPE  H15R17280   1.635   2.960   8.689  1.1302 -0.0276 -0.4646
  155SAPE  C21617281   1.837   2.883   8.674 -0.0889  0.4756 -0.7131
  155SAPE  H16R17282   1.790   2.791   8.633  1.1632 -1.2245  1.4357
  155SAPE  H16S17283   1.917   2.836   8.734 -1.1819 -0.7765 -0.1770
  155SAPE  C21717284   1.878   2.968   8.552  0.6574 -0.4093 -0.5412
  155SAPE  H17R17285   1.789   2.997   8.491  0.6125 -1.2681 -0.9035
  155SAPE  H17S17286   1.940   2.904   8.486  0.2112 -1.2102 -0.1884
  155SAPE  C21817287   1.967   3.090   8.598 -0.3270  1.1010  0.0180
  155SAPE  H18R17288   1.908   3.140   8.677 -1.2749  1.6990 -1.0342
  155SAPE  H18S17289   1.974   3.159   8.511  3.2145 -0.6240 -1.2540
  155SAPE  C21917290   2.098   3.053   8.663 -1.2745 -0.2509 -0.0348
  155SAPE  H19R17291   2.088   2.971   8.737 -0.1505  1.1583  1.7554
  155SAPE  H19S17292   2.112   3.147   8.720 -2.9071 -0.0862  0.1564
  155SAPE  C22017293   2.217   3.039   8.563 -0.4655  1.1144  0.2568
  155SAPE  H20R17294   2.217   3.129   8.497  0.3550 -0.6899 -2.3538
  155SAPE  H20S17295   2.202   2.942   8.512  1.4746  1.2290 -0.6283
  155SAPE  H20T17296   2.311   3.027   8.621  0.0634  0.3336 -0.7240
  155SAPE   C3317297   1.169   2.136  10.107 -0.1316  0.1782  0.3678
  155SAPE   H3X17298   1.059   2.117  10.102 -0.0458 -0.0859 -0.7562
  155SAPE   H3Y17299   1.220   2.040  10.084 -0.5009 -0.2890  1.4213
  155SAPE   C3417300   1.196   2.248  10.008 -0.3124 -0.7847  0.1328
  155SAPE   H4X17301   1.304   2.276  10.007 -0.5730  0.3289  1.1878
  155SAPE   H4Y17302   1.142   2.341  10.036 -0.6024 -0.9862  0.2544
  155SAPE   C3517303   1.166   2.212   9.857  0.1534  0.3254  0.3907
  155SAPE   H5X17304   1.057   2.203   9.843  0.4061 -0.4386 -1.3088
  155SAPE   H5Y17305   1.217   2.119   9.825  0.1475  0.3952  0.1725
  155SAPE   C3617306   1.212   2.325   9.758 -0.1096  0.0115  0.0207
  155SAPE   H6X17307   1.318   2.351   9.779 -0.5714 -0.6385  3.6698
  155SAPE   H6Y17308   1.150   2.412   9.788 -0.3297 -0.9686  2.6055
  155SAPE   C3717309   1.192   2.282   9.614 -0.2560 -0.2594  0.4990
  155SAPE   H7X17310   1.091   2.238   9.599  0.4174 -1.5554 -0.4849
  155SAPE   H7Y17311   1.261   2.200   9.585  0.2086  0.2525  0.1517
  155SAPE   C3817312   1.205   2.398   9.517 -0.7444  0.0960  0.0781
  155SAPE   H8X17313   1.307   2.441   9.530 -0.9210  0.3203  0.7721
  155SAPE   H8Y17314   1.139   2.487   9.530 -0.9220 -0.1588  0.9428
  155SAPE   C3917315   1.207   2.364   9.363  0.3807  0.4687 -0.3682
  155SAPE   H9X17316   1.105   2.326   9.341  1.5542 -2.9977 -0.5439
  155SAPE   H9Y17317   1.274   2.281   9.334  0.2354  0.5525 -0.9575
  155SAPE  C31017318   1.241   2.489   9.280  0.1422  0.1394  0.8317
  155SAPE  H10X17319   1.327   2.544   9.322  0.8679  0.0126 -0.4430
  155SAPE  H10Y17320   1.161   2.566   9.280  2.0235  2.3207 -2.3519
  155SAPE  C31117321   1.267   2.452   9.133  1.0425  0.4535  0.4744
  155SAPE  H11X17322   1.356   2.386   9.124 -0.9668 -2.2833 -0.6439
  155SAPE  H11Y17323   1.293   2.538   9.068  0.0830  0.6851  0.3785
  155SAPE  C31217324   1.151   2.382   9.060 -0.2821  0.4491 -0.0786
  155SAPE  H12X17325   1.055   2.435   9.071 -1.2336 -0.8330 -1.7628
  155SAPE  H12Y17326   1.128   2.279   9.096  0.4143 -0.4371 -2.0282
  155SAPE  C31317327   1.182   2.363   8.910  0.1338  0.2189  0.6830
  155SAPE  H13X17328   1.269   2.295   8.896  0.5686  0.7574  0.7034
  155SAPE  H13Y17329   1.215   2.453   8.853 -2.9413 -0.5286 -2.5700
  155SAPE  C31417330   1.057   2.309   8.839  0.7682  0.1220 -0.0435
  155SAPE  H14X17331   0.965   2.369   8.851  0.3029 -0.5989  0.0409
  155SAPE  H14Y17332   1.024   2.208   8.872 -2.6227  1.2694  0.4454
  155SAPE  C31517333   1.081   2.304   8.688  0.1746  0.0464  0.5184
  155SAPE  H15X17334   1.105   2.406   8.652 -3.0254  0.8269  0.3441
  155SAPE  H15Y17335   0.992   2.276   8.628 -1.4470 -0.0102  2.8098
  155SAPE  C31617336   1.187   2.198   8.648 -0.0176  0.2558 -0.3881
  155SAPE  H16X17337   1.190   2.109   8.715  1.7366 -0.0253 -0.8050
  155SAPE  H16Y17338   1.291   2.237   8.655 -0.0731  0.3522 -0.0789
  155SAPE  C31717339   1.163   2.136   8.511 -0.4801 -0.2051  0.4505
  155SAPE  H17X17340   1.148   2.213   8.433 -0.4797 -1.3237 -0.6932
  155SAPE  H17Y17341   1.068   2.078   8.512  0.0924 -1.1933 -0.5302
  155SAPE  C31817342   1.272   2.037   8.461 -0.1202 -0.2120  0.3072
  155SAPE  H18X17343   1.249   1.991   8.363 -3.0918 -1.4176  1.4382
  155SAPE  H18Y17344   1.312   1.967   8.538  1.1544  0.9279  0.7413
  155SAPE  H18Z17345   1.355   2.110   8.452 -0.8049  0.6336  0.7345
  156SAPE     N17346   5.718   6.776  11.006  0.1061 -0.4195 -0.5368
  156SAPE   HN117347   5.817   6.770  11.039 -0.3396  0.0568  0.9615
  156SAPE   HN217348   5.666   6.686  11.000  2.1426 -1.6318 -1.1309
  156SAPE   HN317349   5.735   6.814  10.911 -0.6996  0.2634 -0.4203
  156SAPE   C1217350   5.652   6.888  11.084  0.8674 -0.0196  0.0565
  156SAPE  H12A17351   5.696   6.874  11.185  2.3371 -0.5205 -0.6290
  156SAPE  H12B17352   5.544   6.861  11.085  0.1416  2.5997 -0.1714
  156SAPE   C1117353   5.652   7.036  11.022  0.2661  0.0216 -0.3265
  156SAPE  H11A17354   5.758   7.070  11.023  0.6003 -0.9748 -0.6062
  156SAPE  H11B17355   5.597   7.091  11.101 -1.2019 -0.8798 -0.6913
  156SAPE     P17356   5.668   7.057  10.755 -0.2501  0.0139  0.3430
  156SAPE   O1317357   5.582   7.028  10.640  0.4449  0.1461 -0.6385
  156SAPE   O1417358   5.733   7.194  10.758  0.1058 -0.2328  0.0623
  156SAPE   O1217359   5.589   7.042  10.890 -0.0028  0.0419 -1.0436
  156SAPE   O1117360   5.777   6.941  10.774 -0.0756 -0.0315  0.1113
  156SAPE    C117361   5.904   6.935  10.716 -0.2500 -0.4212  0.6413
  156SAPE    HA17362   5.944   7.034  10.688  1.8982 -1.3336  0.2667
  156SAPE    HB17363   5.974   6.892  10.790 -0.2606  0.0315  0.9118
  156SAPE    C217364   5.908   6.843  10.588  0.8168  0.0979 -0.2243
  156SAPE    HS17365   6.011   6.836  10.549  0.7262  0.0916 -0.4638
  156SAPE   O2117366   5.825   6.887  10.483  0.0962 -0.2586  0.1742
  156SAPE   C2117367   5.858   6.998  10.417  0.5978 -0.7811 -0.2852
  156SAPE   O2217368   5.953   7.069  10.436 -0.0095 -0.7576 -0.7186
  156SAPE   C2217369   5.752   7.014  10.316 -0.4165 -0.4040  0.0553
  156SAPE   H2R17370   5.733   6.914  10.271  1.8007 -1.0304  0.3726
  156SAPE   H2S17371   5.660   7.029  10.377 -0.5935 -1.2462  0.0088
  156SAPE    C317372   5.867   6.699  10.634  0.0828 -0.3960  0.0850
  156SAPE    HX17373   5.759   6.708  10.660 -0.0738  0.0538 -0.6878
  156SAPE    HY17374   5.920   6.666  10.726 -0.6217 -2.3791 -0.1819
  156SAPE   O3117375   5.895   6.595  10.526  0.0420 -0.1899 -0.8907
  156SAPE   C3117376   5.867   6.467  10.564  0.5185 -0.7347  0.8404
  156SAPE   O3217377   5.802   6.435  10.662 -0.0133 -0.2468 -0.0331
  156SAPE   C3217378   5.945   6.384  10.470 -0.3099  0.1500  0.0130
  156SAPE   H2X17379   6.051   6.387  10.504  0.4082  0.1674 -2.0662
  156SAPE   H2Y17380   5.952   6.428  10.368  1.8212  0.6119  0.3165
  156SAPE   C2317381   5.774   7.138  10.224  0.4173 -0.3482 -0.4341
  156SAPE   H3R17382   5.873   7.121  10.177  0.7228 -0.0840  0.1065
  156SAPE   H3S17383   5.783   7.226  10.291 -0.7062 -2.4914  2.8189
  156SAPE   C2417384   5.658   7.144  10.111  0.3532  0.0656 -0.4713
  156SAPE   H4R17385   5.562   7.174  10.158  1.1450  1.7261  0.1640
  156SAPE   H4S17386   5.639   7.041  10.074  1.5512 -0.3143 -0.0516
  156SAPE   C2517387   5.707   7.224   9.994 -0.0775 -0.6901 -0.6285
  156SAPE   H5R17388   5.686   7.332   9.996 -1.4031 -0.8942 -1.9953
  156SAPE   C2617389   5.758   7.177   9.880 -0.2220 -0.4847  0.1758
  156SAPE   H6R17390   5.779   7.237   9.790  0.8901 -2.2130 -0.7658
  156SAPE   C2717391   5.782   7.029   9.855 -0.2658  0.2213  0.4372
  156SAPE   H7R17392   5.689   6.984   9.815 -0.8627  0.6397  1.3329
  156SAPE   H7S17393   5.782   6.971   9.951  0.0131  1.8006  1.4247
  156SAPE   C2817394   5.895   6.977   9.764 -0.6533 -0.6155 -0.0482
  156SAPE   H8R17395   5.855   6.922   9.677 -0.8923 -0.3914 -0.0815
  156SAPE   C2917396   6.024   6.996   9.778 -0.0656  0.8030 -0.2142
  156SAPE   H9R17397   6.090   6.956   9.700 -0.7869 -3.4416  1.0641
  156SAPE  C21017398   6.097   7.066   9.887  0.2563 -0.2575 -0.2224
  156SAPE  H10R17399   6.035   7.106   9.971  0.9956  1.2247 -0.3414
  156SAPE  H10S17400   6.119   7.168   9.847 -0.6957  1.0098  2.2429
  156SAPE  C21117401   6.225   7.000   9.932 -0.0037 -0.2930  0.2272
  156SAPE  H11R17402   6.304   7.005   9.856  0.4232 -0.2275  0.6671
  156SAPE  C21217403   6.242   6.931  10.047  0.1567  0.1095  0.0119
  156SAPE  H12R17404   6.335   6.875  10.063  0.2554  0.5997  1.2416
  156SAPE  C21317405   6.138   6.910  10.157 -0.2551 -0.9787  0.7857
  156SAPE  H13R17406   6.042   6.943  10.112  0.2422 -2.2285 -1.3279
  156SAPE  H13S17407   6.145   6.978  10.244 -0.0029 -0.1112  0.0994
  156SAPE  C21417408   6.128   6.775  10.221  1.2377 -0.6197 -0.1752
  156SAPE  H14R17409   6.169   6.759  10.321 -0.8590 -0.1090  0.8087
  156SAPE  C21517410   6.053   6.669  10.173 -0.7793  0.1447  0.4424
  156SAPE  H15R17411   6.076   6.568  10.212 -0.7569 -0.6862 -1.5898
  156SAPE  C21617412   5.981   6.651  10.040  0.3234 -0.8316  0.3829
  156SAPE  H16R17413   5.963   6.758  10.017 -0.9846 -0.6309  2.0740
  156SAPE  H16S17414   5.881   6.602  10.047  1.3063 -2.8366  1.2061
  156SAPE  C21717415   6.066   6.593   9.926 -0.4549 -0.0727  0.5231
  156SAPE  H17R17416   6.155   6.534   9.957 -0.2212 -0.3010 -0.5556
  156SAPE  H17S17417   6.099   6.673   9.857 -2.9817 -1.0974 -2.0911
  156SAPE  C21817418   5.975   6.494   9.843 -0.3508 -0.0437 -0.6310
  156SAPE  H18R17419   5.920   6.426   9.912  0.3342  0.8663  0.8547
  156SAPE  H18S17420   6.044   6.429   9.784 -0.4487  1.5800 -2.6579
  156SAPE  C21917421   5.882   6.561   9.737  0.3315  0.0820  0.3126
  156SAPE  H19R17422   5.813   6.639   9.776  2.1252  1.4329  0.9118
  156SAPE  H19S17423   5.829   6.471   9.700  2.7304 -1.2861  0.0048
  156SAPE  C22017424   5.952   6.616   9.616 -0.2881  0.2470 -0.3064
  156SAPE  H20R17425   5.896   6.648   9.526  0.4610  2.2788 -0.0948
  156SAPE  H20S17426   6.032   6.555   9.569  0.4853  2.2048 -1.6862
  156SAPE  H20T17427   6.005   6.705   9.655  0.7162 -0.4028 -0.1471
  156SAPE   C3317428   5.885   6.246  10.462 -0.2152  0.2255 -0.3767
  156SAPE   H3X17429   5.874   6.203  10.564  0.5329  1.0293  0.0591
  156SAPE   H3Y17430   5.956   6.174  10.416  1.3795  1.8852 -0.6276
  156SAPE   C3417431   5.747   6.234  10.374  0.2131  1.4154  0.2462
  156SAPE   H4X17432   5.684   6.312  10.423  0.4022  1.5670  0.2528
  156SAPE   H4Y17433   5.706   6.133  10.392  0.2387  1.4114  0.2836
  156SAPE   C3517434   5.766   6.245  10.224 -0.1207 -0.3848  0.4168
  156SAPE   H5X17435   5.844   6.320  10.198  0.4498 -1.1751 -0.2300
  156SAPE   H5Y17436   5.667   6.283  10.192  0.3413  0.2465 -0.2987
  156SAPE   C3617437   5.795   6.113  10.161  0.0844  0.4532 -0.1506
  156SAPE   H6X17438   5.714   6.042  10.188 -0.3075  0.9901  0.1069
  156SAPE   H6Y17439   5.891   6.087  10.211  0.2450  1.8545  0.3236
  156SAPE   C3717440   5.811   6.129  10.008  0.2800 -0.5629 -0.2150
  156SAPE   H7X17441   5.850   6.033   9.968  0.8091  0.1389 -1.4289
  156SAPE   H7Y17442   5.886   6.207   9.981  0.4299  0.3489  2.5000
  156SAPE   C3817443   5.672   6.140   9.936 -0.5063  0.1468  0.2496
  156SAPE   H8X17444   5.626   6.241   9.946 -0.8708 -0.1910  2.5980
  156SAPE   H8Y17445   5.601   6.067   9.981 -0.0278 -0.0998  0.6079
  156SAPE   C3917446   5.694   6.127   9.782 -0.6981 -0.0037 -0.3467
  156SAPE   H9X17447   5.770   6.048   9.763  1.4457  1.4775  1.5160
  156SAPE   H9Y17448   5.748   6.216   9.743  0.8731  0.3793  2.4835
  156SAPE  C31017449   5.579   6.085   9.699 -0.0303  0.3878 -0.0842
  156SAPE  H10X17450   5.504   6.166   9.706  0.5871  0.8524  1.3995
  156SAPE  H10Y17451   5.526   6.006   9.757 -1.4950  1.4957  0.1617
  156SAPE  C31117452   5.609   6.046   9.561  0.4255  0.5694  0.2115
  156SAPE  H11X17453   5.686   5.966   9.560 -1.0933 -0.9495  0.4278
  156SAPE  H11Y17454   5.657   6.133   9.512  0.6560  1.2743  1.6336
  156SAPE  C31217455   5.481   6.011   9.490 -0.1683 -0.2719 -0.5636
  156SAPE  H12X17456   5.415   6.100   9.478  1.3879  0.9487 -0.3082
  156SAPE  H12Y17457   5.427   5.933   9.548 -0.8979  1.6812  1.5396
  156SAPE  C31317458   5.510   5.958   9.346 -0.1312 -0.1536 -0.5609
  156SAPE  H13X17459   5.418   5.926   9.294 -0.9775  0.4758  0.5025
  156SAPE  H13Y17460   5.580   5.872   9.344 -0.0708 -0.0892 -1.4941
  156SAPE  C31417461   5.590   6.055   9.258  0.6731 -1.3324  0.2970
  156SAPE  H14X17462   5.683   6.096   9.302 -0.2126  0.7794  0.3243
  156SAPE  H14Y17463   5.525   6.141   9.231  1.0884 -1.8036 -2.5517
  156SAPE  C31517464   5.619   6.000   9.115  0.1408 -0.4121  0.3199
  156SAPE  H15X17465   5.676   5.905   9.108 -2.6873 -2.1012 -1.6753
  156SAPE  H15Y17466   5.687   6.072   9.064  0.1589 -0.1839  0.6609
  156SAPE  C31617467   5.491   5.999   9.034  0.3493 -0.2749 -0.0092
  156SAPE  H16X17468   5.438   6.097   9.022  1.3174  0.3388  0.6488
  156SAPE  H16Y17469   5.419   5.926   9.076  0.5173  0.1935  1.1220
  156SAPE  C31717470   5.522   5.951   8.892 -0.3330  0.2511 -1.1825
  156SAPE  H17X17471   5.516   5.841   8.905 -2.2773  0.5342  1.0934
  156SAPE  H17Y17472   5.626   5.978   8.865 -0.7547  0.9289 -2.2038
  156SAPE  C31817473   5.424   6.006   8.789 -0.0701 -0.0097  0.5946
  156SAPE  H18X17474   5.431   6.116   8.794  2.4331 -0.0821  0.0482
  156SAPE  H18Y17475   5.319   5.982   8.816 -0.1839  2.4699  2.7709
  156SAPE  H18Z17476   5.436   5.967   8.685  1.6430 -0.6380  0.9884
  157SAPE     N17477   4.363   0.145  10.922  0.7526 -0.2729 -0.1311
  157SAPE   HN117478   4.268   0.160  10.882  1.0729  0.1645 -0.7475
  157SAPE   HN217479   4.363   0.221  10.993  1.3966  1.5101 -1.9469
  157SAPE   HN317480   4.436   0.168  10.851  1.0949 -0.7711  0.0471
  157SAPE   C1217481   4.370   0.008  10.984  0.1496  0.0858 -0.0545
  157SAPE  H12A17482   4.283   0.001  11.052  0.1479 -0.5343 -0.1195
  157SAPE  H12B17483   4.468  -0.002  11.035  2.5563 -2.0950 -4.4568
  157SAPE   C1117484   4.383  -0.113  10.887  0.1484 -0.1032 -0.6277
  157SAPE  H11A17485   4.363  -0.205  10.947 -1.5617 -0.2013 -1.2760
  157SAPE  H11B17486   4.487  -0.125  10.851 -0.0000 -3.8653 -0.2181
  157SAPE     P17487   4.258  -0.247  10.704  0.1561 -0.1722 -0.0272
  157SAPE   O1317488   4.205  -0.338  10.808 -0.7729  0.1643 -0.2148
  157SAPE   O1417489   4.163  -0.214  10.595  0.1741 -0.5408 -0.3992
  157SAPE   O1217490   4.299  -0.111  10.780  0.0327  0.4820 -0.2034
  157SAPE   O1117491   4.390  -0.301  10.629 -0.1997  0.3690 -0.2738
  157SAPE    C117492   4.477  -0.209  10.561 -0.0661  0.0792  0.0744
  157SAPE    HA17493   4.421  -0.154  10.483  2.1457  1.8836 -0.3291
  157SAPE    HB17494   4.521  -0.139  10.635 -0.8445  0.6623 -0.0060
  157SAPE    C217495   4.593  -0.280  10.488  0.2510  0.1787  0.8295
  157SAPE    HS17496   4.678  -0.209  10.481  2.2151 -2.0140  1.5379
  157SAPE   O2117497   4.555  -0.304  10.339 -0.0963  0.0093 -0.9533
  157SAPE   C2117498   4.558  -0.199  10.264 -0.5831 -0.0157  0.8008
  157SAPE   O2217499   4.590  -0.087  10.299  0.5250 -0.0459  0.2581
  157SAPE   C2217500   4.505  -0.238  10.129  0.1244 -1.1260  0.0444
  157SAPE   H2R17501   4.591  -0.277  10.072  0.4580 -0.8075  0.3187
  157SAPE   H2S17502   4.432  -0.319  10.149 -2.4497  1.4396  1.9730
  157SAPE    C317503   4.649  -0.411  10.556  0.2537  0.0250 -0.1043
  157SAPE    HX17504   4.560  -0.476  10.570  0.7645 -0.4086  1.2894
  157SAPE    HY17505   4.681  -0.395  10.661  0.7277  0.7942 -0.3612
  157SAPE   O3117506   4.748  -0.479  10.476 -0.2163  0.0547 -0.1715
  157SAPE   C3117507   4.866  -0.410  10.470  0.5164 -0.1168  0.6603
  157SAPE   O3217508   4.897  -0.305  10.523 -0.0636  0.3572 -0.3251
  157SAPE   C3217509   4.973  -0.501  10.395  0.1846  0.0940  0.1973
  157SAPE   H2X17510   4.971  -0.593  10.457  1.7732 -0.7292 -0.9280
  157SAPE   H2Y17511   5.073  -0.453  10.404  0.4116 -0.7029  3.9023
  157SAPE   C2317512   4.443  -0.115  10.044 -0.0032  0.0959  0.0956
  157SAPE   H3R17513   4.517  -0.032  10.043 -0.7502  0.8023 -1.9973
  157SAPE   H3S17514   4.355  -0.080  10.102 -0.1233  1.7596 -1.0168
  157SAPE   C2417515   4.402  -0.144   9.904  0.6120  0.0126  0.5981
  157SAPE   H4R17516   4.367  -0.048   9.861 -2.0119 -1.0148  0.2637
  157SAPE   H4S17517   4.316  -0.214   9.906  1.5549 -1.4632 -2.7216
  157SAPE   C2517518   4.512  -0.204   9.820  0.5055 -0.2822 -0.2872
  157SAPE   H5R17519   4.556  -0.294   9.866  1.4911  0.8868  1.1643
  157SAPE   C2617520   4.554  -0.160   9.700  0.0094 -0.2123  0.2408
  157SAPE   H6R17521   4.624  -0.211   9.632  0.9075  1.7110 -0.3590
  157SAPE   C2717522   4.496  -0.039   9.621  0.5079  0.0800 -0.7596
  157SAPE   H7R17523   4.577   0.028   9.585  0.4731  0.8035  0.4244
  157SAPE   H7S17524   4.436   0.027   9.688 -0.1442 -0.6276 -0.6338
  157SAPE   C2817525   4.403  -0.084   9.513 -0.4083  0.3746  0.5907
  157SAPE   H8R17526   4.297  -0.065   9.538 -1.2091 -1.0143 -1.4993
  157SAPE   C2917527   4.446  -0.124   9.396 -0.0287  0.3774 -0.6010
  157SAPE   H9R17528   4.372  -0.145   9.318 -0.7072  0.1349  0.0956
  157SAPE  C21017529   4.590  -0.145   9.357  0.2704 -0.0259 -0.2899
  157SAPE  H10R17530   4.575  -0.222   9.278 -2.5802  1.9834 -1.8684
  157SAPE  H10S17531   4.657  -0.186   9.436  1.4096  1.4518 -0.4476
  157SAPE  C21117532   4.662  -0.023   9.303 -0.4222  0.2916 -0.4468
  157SAPE  H11R17533   4.661   0.072   9.358 -1.9086  0.3121 -0.4616
  157SAPE  C21217534   4.693  -0.021   9.169 -0.2718 -0.3298 -0.4121
  157SAPE  H12R17535   4.730   0.073   9.125  1.1018 -1.3891 -1.6300
  157SAPE  C21317536   4.689  -0.125   9.058 -0.2102 -0.2401  0.4003
  157SAPE  H13R17537   4.750  -0.214   9.082  1.6833  0.4544 -1.4915
  157SAPE  H13S17538   4.731  -0.084   8.964 -1.1961 -0.9899 -0.3773
  157SAPE  C21417539   4.554  -0.185   9.017  0.3312 -0.3997  0.2548
  157SAPE  H14R17540   4.462  -0.158   9.072 -0.9796  1.1271 -2.5209
  157SAPE  C21517541   4.540  -0.265   8.908 -0.0483  0.0563  0.3693
  157SAPE  H15R17542   4.443  -0.301   8.870  0.8978 -1.3464 -0.8316
  157SAPE  C21617543   4.657  -0.313   8.824  0.3025  0.4588  0.2382
  157SAPE  H16R17544   4.659  -0.418   8.861  2.4032 -0.1816 -1.4709
  157SAPE  H16S17545   4.752  -0.268   8.858  0.0147  1.0993  0.2074
  157SAPE  C21717546   4.639  -0.312   8.674 -0.5615  0.3422 -0.6443
  157SAPE  H17R17547   4.570  -0.394   8.644 -0.3700  0.6428 -1.9664
  157SAPE  H17S17548   4.739  -0.335   8.632 -0.9832 -0.0962 -1.4418
  157SAPE  C21817549   4.594  -0.183   8.620 -0.2136 -0.1916 -0.1427
  157SAPE  H18R17550   4.658  -0.098   8.654 -0.7986  0.6014 -0.9825
  157SAPE  H18S17551   4.498  -0.164   8.673 -0.6066 -1.9669 -0.1360
  157SAPE  C21917552   4.559  -0.169   8.472 -0.1474  0.4573 -0.6909
  157SAPE  H19R17553   4.520  -0.065   8.468 -2.1803 -0.2243  0.1659
  157SAPE  H19S17554   4.471  -0.232   8.449 -2.4439  2.6491  1.5030
  157SAPE  C22017555   4.679  -0.175   8.376  0.4169  0.0757  0.4332
  157SAPE  H20R17556   4.650  -0.148   8.272  0.1699 -1.7724 -0.0273
  157SAPE  H20S17557   4.717  -0.280   8.373 -3.6014 -1.6357  1.4310
  157SAPE  H20T17558   4.751  -0.107   8.425  0.6586  1.3023 -1.5223
  157SAPE   C3317559   4.935  -0.524  10.251  0.3148  0.4173  0.3707
  157SAPE   H3X17560   4.833  -0.566  10.241  0.1146  1.3726 -2.2244
  157SAPE   H3Y17561   5.013  -0.586  10.202 -0.5278  1.0434 -1.8464
  157SAPE   C3417562   4.935  -0.393  10.179  0.2583 -0.2152  0.1885
  157SAPE   H4X17563   5.020  -0.328  10.209 -0.0812  0.9078 -1.1699
  157SAPE   H4Y17564   4.844  -0.338  10.211  0.2725 -0.3641  0.4945
  157SAPE   C3517565   4.930  -0.397  10.021 -0.1372  0.4369 -0.9394
  157SAPE   H5X17566   4.850  -0.456   9.972 -1.4944  2.8064 -1.7286
  157SAPE   H5Y17567   5.014  -0.466   9.998 -0.5198  0.2481 -1.8072
  157SAPE   C3617568   4.942  -0.274   9.938 -0.0068  0.3822 -0.2053
  157SAPE   H6X17569   5.041  -0.226   9.949 -0.2363  0.4951  1.5939
  157SAPE   H6Y17570   4.864  -0.208   9.979 -1.2730 -1.7625  1.0498
  157SAPE   C3717571   4.908  -0.290   9.787 -0.5397 -0.0361  0.0015
  157SAPE   H7X17572   4.803  -0.327   9.782 -0.4499 -0.5493  1.4827
  157SAPE   H7Y17573   4.972  -0.368   9.740 -1.8511 -1.1813  0.0515
  157SAPE   C3817574   4.942  -0.170   9.696 -0.5454 -0.3686 -0.0038
  157SAPE   H8X17575   5.030  -0.123   9.743 -0.7473  1.1344 -1.0446
  157SAPE   H8Y17576   4.855  -0.101   9.693 -1.3925 -1.3366  1.1749
  157SAPE   C3917577   4.966  -0.214   9.548 -0.1685  0.9308  0.5070
  157SAPE   H9X17578   4.875  -0.265   9.510  1.4307 -2.5701  1.0276
  157SAPE   H9Y17579   5.045  -0.291   9.534 -1.8881 -0.6365 -1.2539
  157SAPE  C31017580   4.993  -0.090   9.457 -0.3942  0.1910  0.4776
  157SAPE  H10X17581   5.059  -0.013   9.504  0.1281 -0.7409  1.3023
  157SAPE  H10Y17582   4.896  -0.035   9.454 -0.4347  0.1016  0.1435
  157SAPE  C31117583   5.051  -0.109   9.312  0.1524 -0.6366  0.2044
  157SAPE  H11X17584   4.960  -0.119   9.249 -0.1625 -1.2088  0.7342
  157SAPE  H11Y17585   5.110  -0.203   9.302 -1.3362 -1.3915 -2.7703
  157SAPE  C31217586   5.125   0.012   9.259 -0.1216  0.2986 -0.6737
  157SAPE  H12X17587   5.206   0.034   9.333 -0.8343 -1.5260  0.7233
  157SAPE  H12Y17588   5.056   0.098   9.263 -1.4085 -0.7613  1.5466
  157SAPE  C31317589   5.178  -0.001   9.123 -0.7212  0.1983  0.3624
  157SAPE  H13X17590   5.246  -0.089   9.128 -2.0361 -0.8996 -0.4125
  157SAPE  H13Y17591   5.234   0.094   9.110 -0.5416  0.0075 -0.2771
  157SAPE  C31417592   5.083  -0.044   9.014 -0.5156  0.4694  0.2022
  157SAPE  H14X17593   4.986   0.008   9.031 -0.1548  0.9463  0.8738
  157SAPE  H14Y17594   5.067  -0.153   9.028 -0.5866  0.0837 -2.4801
  157SAPE  C31517595   5.135  -0.021   8.874 -0.2924 -0.4081 -0.1537
  157SAPE  H15X17596   5.235  -0.071   8.872 -0.9133 -1.8580  2.0067
  157SAPE  H15Y17597   5.130   0.088   8.849  0.2906 -0.0476  1.2239
  157SAPE  C31617598   5.048  -0.079   8.763  0.0157  0.1797  0.4233
  157SAPE  H16X17599   4.938  -0.070   8.778 -0.2980 -1.2567 -0.8382
  157SAPE  H16Y17600   5.056  -0.187   8.785 -0.9908 -0.2694 -1.2594
  157SAPE  C31717601   5.091  -0.049   8.625  0.0004 -0.8616 -0.1945
  157SAPE  H17X17602   5.200  -0.031   8.613 -0.5491  1.1153 -3.2750
  157SAPE  H17Y17603   5.052   0.050   8.596  0.5401  0.2277  2.4750
  157SAPE  C31817604   5.049  -0.165   8.536 -0.2999 -0.4987 -0.1481
  157SAPE  H18X17605   4.952  -0.209   8.570  0.0974 -0.7364  0.7276
  157SAPE  H18Y17606   5.131  -0.239   8.545  0.8158  0.7408  0.1852
  157SAPE  H18Z17607   5.054  -0.148   8.427  0.7888 -1.7735 -0.3272
  158SAPE     N17608   6.193   2.461  10.955 -0.7958  0.5245 -0.0103
  158SAPE   HN117609   6.135   2.547  10.965 -1.0006  0.1667  2.6521
  158SAPE   HN217610   6.166   2.392  11.028 -0.5565  0.3374 -0.0968
  158SAPE   HN317611   6.296   2.475  10.958 -0.3769 -1.8962 -1.0498
  158SAPE   C1217612   6.177   2.408  10.814  0.2418  0.0246 -0.3016
  158SAPE  H12A17613   6.249   2.325  10.793 -0.2970 -0.5440  0.0332
  158SAPE  H12B17614   6.197   2.488  10.740  0.0650 -1.4088 -1.9524
  158SAPE   C1117615   6.033   2.359  10.800  0.0094 -0.3108  0.3857
  158SAPE  H11A17616   6.013   2.276  10.870  0.9252  0.1309  1.1901
  158SAPE  H11B17617   6.024   2.311  10.699 -4.1381 -0.0316  0.4630
  158SAPE     P17618   5.934   2.596  10.733  0.2074 -0.0591  0.1101
  158SAPE   O1317619   5.785   2.615  10.704 -0.6535  0.3934  0.2487
  158SAPE   O1417620   6.007   2.700  10.809  0.5104  1.2592  0.6400
  158SAPE   O1217621   5.947   2.469  10.821  0.3552  0.2133 -0.0551
  158SAPE   O1117622   6.017   2.574  10.602 -0.0819  0.7277  0.2966
  158SAPE    C117623   5.959   2.571  10.471  0.3666 -0.6635 -0.6669
  158SAPE    HA17624   5.856   2.529  10.475 -0.7097  1.6535 -1.8542
  158SAPE    HB17625   5.957   2.672  10.425 -1.6345  0.4157  1.5457
  158SAPE    C217626   6.040   2.478  10.379  0.5146  0.0224  0.0720
  158SAPE    HS17627   6.057   2.540  10.288  0.2349  0.5924  0.4035
  158SAPE   O2117628   5.961   2.364  10.341  0.5530 -0.0652 -0.4875
  158SAPE   C2117629   5.852   2.392  10.273 -0.0781  0.0250  0.0476
  158SAPE   O2217630   5.827   2.501  10.224 -0.3181  0.0520  0.2052
  158SAPE   C2217631   5.766   2.269  10.263  0.4724 -0.0802  0.8770
  158SAPE   H2R17632   5.821   2.183  10.219 -0.1235 -0.2480  0.4435
  158SAPE   H2S17633   5.751   2.241  10.370  2.0014  0.1616  1.1742
  158SAPE    C317634   6.183   2.429  10.426  0.7124  0.1374  0.7353
  158SAPE    HX17635   6.177   2.358  10.512 -2.6835 -1.5525 -0.7045
  158SAPE    HY17636   6.230   2.524  10.459 -0.7133  1.8418 -1.7875
  158SAPE   O3117637   6.246   2.374  10.313 -0.0337 -0.1569 -0.2598
  158SAPE   C3117638   6.364   2.326  10.335 -0.5746 -0.6879 -0.6277
  158SAPE   O3217639   6.420   2.327  10.444 -0.8845  0.3671 -0.1729
  158SAPE   C3217640   6.412   2.276  10.209 -0.4757  0.7721  0.4502
  158SAPE   H2X17641   6.437   2.168  10.217 -1.7856  0.3231 -0.9682
  158SAPE   H2Y17642   6.509   2.327  10.195  1.1211 -0.9395  4.0020
  158SAPE   C2317643   5.627   2.303  10.198  0.5101 -0.2243 -0.6177
  158SAPE   H3R17644   5.604   2.409  10.220 -1.9970 -1.2548  2.4190
  158SAPE   H3S17645   5.553   2.235  10.245  2.3590 -2.0665 -0.2318
  158SAPE   C2417646   5.607   2.266  10.049 -0.2496 -0.6494 -1.3171
  158SAPE   H4R17647   5.505   2.285  10.012 -0.8808  0.8617  0.9820
  158SAPE   H4S17648   5.622   2.157  10.038  1.0267 -0.6384 -0.0470
  158SAPE   C2517649   5.713   2.338   9.962  0.1158 -0.4137 -0.8803
  158SAPE   H5R17650   5.805   2.356  10.020 -0.7157  1.0305  0.0578
  158SAPE   C2617651   5.699   2.365   9.835 -0.0466  0.2953 -0.4461
  158SAPE   H6R17652   5.785   2.405   9.779 -1.5739  0.3350 -2.9124
  158SAPE   C2717653   5.583   2.339   9.737  0.1421 -0.0690 -0.7205
  158SAPE   H7R17654   5.555   2.432   9.682 -0.1304  0.7400  0.7282
  158SAPE   H7S17655   5.486   2.315   9.785  1.0788 -1.8504  0.4132
  158SAPE   C2817656   5.593   2.219   9.643 -0.5121  1.0575  0.0225
  158SAPE   H8R17657   5.546   2.126   9.679  0.9160  0.7904  1.2987
  158SAPE   C2917658   5.650   2.209   9.522 -0.0112  0.7475 -0.2037
  158SAPE   H9R17659   5.632   2.122   9.456 -1.9417  0.8026  0.1746
  158SAPE  C21017660   5.711   2.336   9.450  0.8728  0.4973 -0.3364
  158SAPE  H10R17661   5.821   2.343   9.460  0.5820  1.6346  4.1085
  158SAPE  H10S17662   5.680   2.432   9.496 -0.9423  0.0783 -0.6048
  158SAPE  C21117663   5.669   2.356   9.305  0.0344 -0.0919 -1.0826
  158SAPE  H11R17664   5.565   2.391   9.295  0.3696  0.6933 -1.9443
  158SAPE  C21217665   5.730   2.328   9.196  0.0419  0.6172  0.2134
  158SAPE  H12R17666   5.675   2.339   9.101  0.9481  0.1966 -0.3755
  158SAPE  C21317667   5.861   2.244   9.182  0.3405  0.4186 -0.2550
  158SAPE  H13R17668   5.905   2.213   9.279 -1.5322  0.2731  0.5886
  158SAPE  H13S17669   5.936   2.317   9.145  0.7442  0.6338  0.9494
  158SAPE  C21417670   5.834   2.120   9.096 -0.9109 -0.4411  0.1672
  158SAPE  H14R17671   5.751   2.057   9.130 -2.1842 -0.6358 -2.9111
  158SAPE  C21517672   5.893   2.088   8.981  0.4637 -1.0528  0.3661
  158SAPE  H15R17673   5.859   1.995   8.933 -0.6856 -0.0922 -0.7779
  158SAPE  C21617674   6.004   2.151   8.901 -0.2382 -1.1199  0.3078
  158SAPE  H16R17675   6.086   2.076   8.902  0.6665 -0.1630 -0.0872
  158SAPE  H16S17676   6.042   2.247   8.943 -0.2434 -0.1249 -1.8659
  158SAPE  C21717677   5.971   2.197   8.752  0.1895 -0.9082 -1.3189
  158SAPE  H17R17678   6.063   2.247   8.713 -0.0884  1.1244  0.4286
  158SAPE  H17S17679   5.892   2.275   8.748  0.9515 -0.1741 -3.4711
  158SAPE  C21817680   5.928   2.082   8.655 -0.1841 -0.4032  0.7607
  158SAPE  H18R17681   5.826   2.047   8.680 -0.3597 -0.8348 -0.5089
  158SAPE  H18S17682   6.001   1.999   8.668 -1.2385 -1.4840 -0.0194
  158SAPE  C21917683   5.923   2.141   8.513 -0.3140 -0.2325 -0.6555
  158SAPE  H19R17684   6.030   2.163   8.494 -0.6164  0.1285 -2.0733
  158SAPE  H19S17685   5.864   2.235   8.509 -1.7606 -1.1104 -0.6884
  158SAPE  C22017686   5.876   2.042   8.403 -0.0755  0.2695 -0.4606
  158SAPE  H20R17687   5.767   2.020   8.404 -0.2511  1.0799  0.5866
  158SAPE  H20S17688   5.928   1.945   8.416 -0.0868  0.1021 -1.5841
  158SAPE  H20T17689   5.894   2.078   8.300  0.9916 -1.7032 -1.0105
  158SAPE   C3317690   6.319   2.290  10.081 -0.4239  0.7393 -0.0478
  158SAPE   H3X17691   6.381   2.282   9.989 -0.5258 -1.0235 -0.0006
  158SAPE   H3Y17692   6.274   2.391  10.071  0.6116  1.1972 -0.2454
  158SAPE   C3417693   6.212   2.186  10.061  0.1053  0.3588  0.2156
  158SAPE   H4X17694   6.140   2.197  10.145 -0.0724 -0.0262  0.1152
  158SAPE   H4Y17695   6.260   2.086  10.055 -1.4552 -0.4344  0.2342
  158SAPE   C3517696   6.136   2.192   9.927 -0.0385  0.1320  0.3782
  158SAPE   H5X17697   6.089   2.292   9.920 -0.8144 -0.3179 -1.2778
  158SAPE   H5Y17698   6.065   2.107   9.929  0.1054  0.0154  0.6383
  158SAPE   C3617699   6.231   2.166   9.807 -0.1295  0.3314  0.1503
  158SAPE   H6X17700   6.280   2.068   9.824  0.6533  0.3500 -1.7121
  158SAPE   H6Y17701   6.320   2.233   9.802  0.0785 -0.0046 -1.2062
  158SAPE   C3717702   6.155   2.168   9.676 -0.4554  0.6540  0.9109
  158SAPE   H7X17703   6.056   2.217   9.688 -1.7432 -1.0972 -1.5917
  158SAPE   H7Y17704   6.138   2.059   9.666  1.4820  0.5037 -1.8483
  158SAPE   C3817705   6.230   2.218   9.553 -0.2173 -0.0603  0.0413
  158SAPE   H8X17706   6.323   2.157   9.549 -0.7447 -0.8447 -0.5776
  158SAPE   H8Y17707   6.254   2.325   9.568  0.4724 -0.0450 -1.0995
  158SAPE   C3917708   6.141   2.202   9.429 -0.4860  0.5593  0.7997
  158SAPE   H9X17709   6.160   2.287   9.360 -0.8552  0.2223  0.2753
  158SAPE   H9Y17710   6.034   2.197   9.457 -0.3732  0.3562  1.2001
  158SAPE  C31017711   6.174   2.073   9.356  0.1278  0.5332 -0.0201
  158SAPE  H10X17712   6.107   2.060   9.269  0.0531 -1.9425  0.3146
  158SAPE  H10Y17713   6.169   1.986   9.426 -0.3790  1.2354  0.8310
  158SAPE  C31117714   6.320   2.067   9.302  0.5432 -0.1205  0.5259
  158SAPE  H11X17715   6.384   2.070   9.393  1.2097 -0.2160  0.0681
  158SAPE  H11Y17716   6.336   2.158   9.241 -1.5491  0.6698  1.0820
  158SAPE  C31217717   6.352   1.947   9.213 -0.4597 -0.4436  0.2642
  158SAPE  H12X17718   6.334   1.848   9.260  1.5194 -2.2491 -2.5024
  158SAPE  H12Y17719   6.462   1.928   9.206 -0.3580  0.3728 -0.4931
  158SAPE  C31317720   6.289   1.955   9.075 -0.3546  0.4502  0.8759
  158SAPE  H13X17721   6.310   2.054   9.029  1.9052  0.5145  1.9213
  158SAPE  H13Y17722   6.178   1.955   9.080 -0.3008  0.5903  3.1088
  158SAPE  C31417723   6.334   1.839   8.985  0.1465  0.2444  0.0921
  158SAPE  H14X17724   6.290   1.743   9.019 -0.9827  0.1866 -1.4540
  158SAPE  H14Y17725   6.445   1.846   8.990  0.0750  3.0047 -0.6226
  158SAPE  C31517726   6.283   1.862   8.830  0.2906  0.6132 -0.3766
  158SAPE  H15X17727   6.294   1.972   8.816  0.5482  0.9539  2.0626
  158SAPE  H15Y17728   6.173   1.844   8.826  0.2540  1.0855 -1.8277
  158SAPE  C31617729   6.349   1.774   8.725 -0.3999  0.9563  0.2733
  158SAPE  H16X17730   6.333   1.673   8.767  0.8945  1.5684  2.4380
  158SAPE  H16Y17731   6.459   1.788   8.724 -0.2384 -0.0015  1.6929
  158SAPE  C31717732   6.275   1.791   8.591 -0.3244 -0.7398  0.4462
  158SAPE  H17X17733   6.169   1.765   8.612 -0.1742 -1.5681  0.2176
  158SAPE  H17Y17734   6.324   1.721   8.520  0.7079 -0.0066  0.4123
  158SAPE  C31817735   6.279   1.930   8.522 -0.3698 -0.7269  0.3025
  158SAPE  H18X17736   6.242   2.012   8.587 -0.0926 -0.2597 -0.1296
  158SAPE  H18Y17737   6.216   1.933   8.431  1.2442  0.4681 -0.8172
  158SAPE  H18Z17738   6.383   1.953   8.490 -0.3584  1.7164  1.8097
  159SAPE     N17739   5.823   6.486   6.212 -0.0842 -0.3386 -0.1926
  159SAPE   HN117740   5.851   6.399   6.161  0.0246 -0.7233  0.5031
  159SAPE   HN217741   5.732   6.524   6.181  0.1535  0.6934  0.3249
  159SAPE   HN317742   5.897   6.555   6.187  1.0353 -1.7176 -0.8736
  159SAPE   C1217743   5.841   6.469   6.365 -0.3592  0.2369  1.5540
  159SAPE  H12A17744   5.826   6.569   6.411 -1.4383  1.1997 -0.7043
  159SAPE  H12B17745   5.945   6.434   6.379 -0.0562  0.5649  0.2763
  159SAPE   C1117746   5.743   6.365   6.419 -0.5262  0.0060 -0.0726
  159SAPE  H11A17747   5.638   6.397   6.404 -0.8848 -1.6266 -1.2700
  159SAPE  H11B17748   5.763   6.341   6.526  0.2882  1.0282  0.0250
  159SAPE     P17749   5.676   6.121   6.367  0.0680 -0.1101 -0.3722
  159SAPE   O1317750   5.595   6.103   6.244 -0.1781 -0.3603 -0.3325
  159SAPE   O1417751   5.763   6.012   6.404  0.3599 -0.2789 -0.1653
  159SAPE   O1217752   5.769   6.250   6.340 -0.0430  0.6006  0.1428
  159SAPE   O1117753   5.590   6.158   6.484  0.3331 -0.2215 -0.2318
  159SAPE    C117754   5.451   6.131   6.497  0.7143  0.2937 -0.2819
  159SAPE    HA17755   5.399   6.229   6.502  2.3499  1.1317  1.8280
  159SAPE    HB17756   5.397   6.078   6.415  0.6593  1.5683 -1.0896
  159SAPE    C217757   5.431   6.055   6.629 -0.2980  0.1002 -0.0128
  159SAPE    HS17758   5.463   6.128   6.707  2.3292 -2.5849  1.6808
  159SAPE   O2117759   5.511   5.940   6.628 -0.1627  0.0406  0.2531
  159SAPE   C2117760   5.533   5.906   6.756 -0.3548  0.4704 -0.7409
  159SAPE   O2217761   5.498   5.972   6.855 -0.1926  0.1142 -0.1449
  159SAPE   C2217762   5.606   5.773   6.779 -0.3304  0.2101 -0.0089
  159SAPE   H2R17763   5.541   5.692   6.816 -0.2419  1.0665  2.1627
  159SAPE   H2S17764   5.641   5.751   6.676 -0.2112  1.7006 -0.3160
  159SAPE    C317765   5.281   6.028   6.650  0.3814  0.1375 -0.0677
  159SAPE    HX17766   5.254   5.945   6.580  1.1484  0.5715 -0.9013
  159SAPE    HY17767   5.219   6.116   6.620  1.4098  0.5443 -1.0733
  159SAPE   O3117768   5.246   5.967   6.779  0.2792 -0.5694 -0.2512
  159SAPE   C3117769   5.212   6.052   6.873  0.3653 -0.1848  0.1809
  159SAPE   O3217770   5.198   6.176   6.862 -0.0191 -0.2933  0.8038
  159SAPE   C3217771   5.167   5.976   7.006 -0.1558 -0.5594  0.2283
  159SAPE   H2X17772   5.259   5.936   7.053  0.8493  0.3604 -0.9001
  159SAPE   H2Y17773   5.091   5.899   6.980 -0.0631 -0.1086 -1.5288
  159SAPE   C2317774   5.720   5.772   6.885  0.1414 -0.4969  0.1083
  159SAPE   H3R17775   5.699   5.847   6.964  1.1002 -1.0473  0.8987
  159SAPE   H3S17776   5.818   5.797   6.839 -0.2212  0.5295 -0.1287
  159SAPE   C2417777   5.740   5.634   6.944  0.4683  0.4578 -0.7786
  159SAPE   H4R17778   5.767   5.563   6.863  2.7511 -0.6089  0.8168
  159SAPE   H4S17779   5.643   5.594   6.983  0.2626 -0.7037 -2.3819
  159SAPE   C2517780   5.852   5.637   7.042  0.4840  0.6164  0.1790
  159SAPE   H5R17781   5.945   5.595   6.999  0.0377 -0.2818  0.0755
  159SAPE   C2617782   5.839   5.664   7.176 -0.2456  0.2427 -0.1263
  159SAPE   H6R17783   5.937   5.681   7.224 -0.0560 -1.9816  0.3950
  159SAPE   C2717784   5.723   5.724   7.247 -0.1892  0.7396  0.2935
  159SAPE   H7R17785   5.638   5.738   7.177 -1.2230 -1.0416  1.1097
  159SAPE   H7S17786   5.747   5.824   7.287 -1.7391  1.1045  0.3889
  159SAPE   C2817787   5.698   5.631   7.360 -0.2391 -0.2955  0.8047
  159SAPE   H8R17788   5.684   5.528   7.324  1.8902 -0.4272  0.2155
  159SAPE   C2917789   5.679   5.646   7.485  0.2196 -0.6272  0.1070
  159SAPE   H9R17790   5.665   5.556   7.547  0.5234 -0.6498  0.1457
  159SAPE  C21017791   5.696   5.774   7.568  0.7332  0.3912  0.2082
  159SAPE  H10R17792   5.593   5.809   7.593  0.8403  1.1435 -0.3762
  159SAPE  H10S17793   5.750   5.850   7.509 -0.6661 -0.6615 -2.5820
  159SAPE  C21117794   5.771   5.752   7.700 -0.4341 -0.0511 -0.5809
  159SAPE  H11R17795   5.876   5.782   7.686 -0.4344  1.0562  1.3842
  159SAPE  C21217796   5.729   5.698   7.820 -0.1176  0.1815 -0.0623
  159SAPE  H12R17797   5.792   5.703   7.909  0.8498  0.9985 -0.7736
  159SAPE  C21317798   5.588   5.652   7.849 -0.0422 -0.0141  0.2775
  159SAPE  H13R17799   5.581   5.545   7.880  0.1722  0.1353  0.8490
  159SAPE  H13S17800   5.520   5.660   7.762  0.6188 -2.5567 -0.5685
  159SAPE  C21417801   5.520   5.732   7.959 -0.7697  0.2658  0.9305
  159SAPE  H14R17802   5.453   5.811   7.922  1.4041  1.3835 -0.9460
  159SAPE  C21517803   5.540   5.711   8.090 -0.1055  0.1514  0.5271
  159SAPE  H15R17804   5.505   5.788   8.160  0.6724  0.4582  0.5865
  159SAPE  C21617805   5.622   5.598   8.144  0.9489  0.6511  0.4625
  159SAPE  H16R17806   5.730   5.621   8.136  1.3903 -1.6449 -1.4324
  159SAPE  H16S17807   5.593   5.503   8.094  2.5256  0.1228  0.5306
  159SAPE  C21717808   5.607   5.560   8.293  0.5244 -0.1358  0.2895
  159SAPE  H17R17809   5.500   5.542   8.313  0.2539 -0.6915 -1.4307
  159SAPE  H17S17810   5.620   5.654   8.350 -1.2519  1.3977 -1.6794
  159SAPE  C21817811   5.708   5.446   8.335 -0.2610 -0.1837 -0.2867
  159SAPE  H18R17812   5.689   5.364   8.262  1.6965 -0.9600  0.0112
  159SAPE  H18S17813   5.676   5.409   8.435  0.4784 -0.1978 -0.0481
  159SAPE  C21917814   5.852   5.488   8.332 -0.7765 -0.1487 -0.2705
  159SAPE  H19R17815   5.862   5.593   8.366 -0.5945 -0.7653  1.7141
  159SAPE  H19S17816   5.884   5.489   8.226 -0.7537 -0.6363 -0.2701
  159SAPE  C22017817   5.933   5.393   8.417  0.5405  0.1409 -0.3018
  159SAPE  H20R17818   5.909   5.294   8.372  0.6984 -0.7509  1.4513
  159SAPE  H20S17819   5.908   5.389   8.526 -1.7165  0.3819 -0.7489
  159SAPE  H20T17820   6.043   5.399   8.408  0.3680  0.8249 -2.3031
  159SAPE   C3317821   5.103   6.072   7.116 -0.5834  0.1695 -0.8228
  159SAPE   H3X17822   5.037   6.148   7.068  0.1450  2.1433  1.1432
  159SAPE   H3Y17823   5.182   6.132   7.166 -0.0317 -1.2949  0.1445
  159SAPE   C3417824   5.026   5.991   7.222  0.6989 -0.2695  0.7346
  159SAPE   H4X17825   5.097   5.918   7.266 -1.0129 -1.6158  1.3751
  159SAPE   H4Y17826   4.952   5.923   7.174  1.7490 -0.8891 -0.0451
  159SAPE   C3517827   4.943   6.072   7.333 -0.3181 -0.2816  0.0048
  159SAPE   H5X17828   4.908   6.168   7.288 -0.3683  0.1801  1.0120
  159SAPE   H5Y17829   5.011   6.110   7.412  1.6496  0.0429 -1.7578
  159SAPE   C3617830   4.819   5.999   7.391  0.3433  0.1728 -0.2059
  159SAPE   H6X17831   4.755   5.950   7.315 -0.3322 -1.1620  1.1715
  159SAPE   H6Y17832   4.762   6.079   7.442 -0.7450 -0.7373  0.0429
  159SAPE   C3717833   4.843   5.874   7.479  0.0033  0.0610 -0.2550
  159SAPE   H7X17834   4.919   5.897   7.557 -0.4884  1.3995 -0.1595
  159SAPE   H7Y17835   4.893   5.806   7.406  0.0165 -1.2223  0.9097
  159SAPE   C3817836   4.721   5.805   7.540 -0.9944 -0.3791  0.7897
  159SAPE   H8X17837   4.655   5.759   7.463  1.7427 -0.6301 -1.5574
  159SAPE   H8Y17838   4.670   5.873   7.611 -1.3766 -0.4499  0.5894
  159SAPE   C3917839   4.764   5.682   7.618 -0.4041  0.3766  0.2261
  159SAPE   H9X17840   4.823   5.719   7.705  1.9164  0.3374 -1.2476
  159SAPE   H9Y17841   4.830   5.624   7.550 -1.0190  1.1145 -1.0426
  159SAPE  C31017842   4.648   5.603   7.673  0.1867  0.6980 -0.4580
  159SAPE  H10X17843   4.697   5.504   7.687 -1.0906 -0.0007 -0.7613
  159SAPE  H10Y17844   4.575   5.595   7.590 -0.2452  0.1531 -0.0290
  159SAPE  C31117845   4.580   5.655   7.804  0.3224 -0.3189 -0.2193
  159SAPE  H11X17846   4.497   5.587   7.829 -0.6597  0.6023 -0.8634
  159SAPE  H11Y17847   4.531   5.751   7.775 -1.4982 -1.4735 -1.1379
  159SAPE  C31217848   4.663   5.663   7.936  0.1661  0.6481 -0.2091
  159SAPE  H12X17849   4.764   5.705   7.919  0.0044  1.3338  0.4714
  159SAPE  H12Y17850   4.666   5.562   7.983  1.2759 -0.6544 -2.8423
  159SAPE  C31317851   4.589   5.754   8.042 -0.2931  0.4468 -0.1727
  159SAPE  H13X17852   4.633   5.736   8.143 -0.2918  0.2352 -0.2099
  159SAPE  H13Y17853   4.485   5.718   8.061 -0.4362  0.6009 -0.6474
  159SAPE  C31417854   4.588   5.902   8.014 -0.7951  0.0002 -1.0139
  159SAPE  H14X17855   4.525   5.916   7.924 -0.9480  2.7992 -0.5677
  159SAPE  H14Y17856   4.688   5.941   7.983 -0.2494 -0.6597 -0.1267
  159SAPE  C31517857   4.528   5.971   8.139  0.3841  0.8355  0.6903
  159SAPE  H15X17858   4.456   5.901   8.187  1.4650 -0.1197  0.9716
  159SAPE  H15Y17859   4.463   6.054   8.105 -0.2790  0.5640  1.2588
  159SAPE  C31617860   4.637   6.007   8.240  0.3303 -0.2986 -0.0748
  159SAPE  H16X17861   4.719   6.070   8.200  1.0332 -0.5270  0.9762
  159SAPE  H16Y17862   4.687   5.923   8.293 -0.2075  0.5493  1.8734
  159SAPE  C31717863   4.573   6.089   8.354 -0.4196 -0.0483  0.9037
  159SAPE  H17X17864   4.488   6.034   8.400 -0.3860 -0.7459  0.1449
  159SAPE  H17Y17865   4.547   6.193   8.324 -1.7254 -0.5143  0.3284
  159SAPE  C31817866   4.665   6.105   8.480  0.1151  0.5144  0.0666
  159SAPE  H18X17867   4.669   6.006   8.530  1.5744  1.0948  1.1476
  159SAPE  H18Y17868   4.610   6.177   8.544  0.4082 -0.5397  1.5354
  159SAPE  H18Z17869   4.771   6.115   8.450  0.4500 -1.3401  0.5386
  160SAPE     N17870   4.552   5.817   6.269 -0.1395  0.3592  0.0778
  160SAPE   HN117871   4.624   5.810   6.344 -1.2975 -0.1071  1.1947
  160SAPE   HN217872   4.543   5.718   6.240  1.0839  0.3322 -0.2453
  160SAPE   HN317873   4.578   5.871   6.184 -0.8277  0.4643 -0.0745
  160SAPE   C1217874   4.421   5.855   6.318  0.2016 -0.0962 -0.2832
  160SAPE  H12A17875   4.348   5.888   6.240  0.1301 -1.9084 -1.0263
  160SAPE  H12B17876   4.440   5.954   6.364 -0.8265 -0.3795  0.7854
  160SAPE   C1117877   4.372   5.756   6.424  0.5842  0.0072 -0.2629
  160SAPE  H11A17878   4.264   5.770   6.443  0.6851 -0.4884  0.7939
  160SAPE  H11B17879   4.430   5.781   6.516  1.8971  0.9150 -1.2936
  160SAPE     P17880   4.286   5.508   6.380  0.0527 -0.3647  0.2436
  160SAPE   O1317881   4.170   5.560   6.300  0.4778  0.4161  0.3575
  160SAPE   O1417882   4.349   5.384   6.330  0.2149 -0.4685  0.7718
  160SAPE   O1217883   4.401   5.624   6.378 -0.1210  0.4858 -0.5119
  160SAPE   O1117884   4.262   5.478   6.531  0.4630 -1.3122 -0.6406
  160SAPE    C117885   4.154   5.391   6.562 -0.5334  0.1982 -0.1148
  160SAPE    HA17886   4.128   5.321   6.480 -3.5185  0.2662  0.6459
  160SAPE    HB17887   4.184   5.329   6.648  0.3488 -1.4265 -1.5418
  160SAPE    C217888   4.018   5.468   6.580  0.3247 -0.5917 -0.3068
  160SAPE    HS17889   3.998   5.538   6.496 -2.7678 -0.6432  0.2558
  160SAPE   O2117890   4.019   5.536   6.704  0.0995 -0.2149  0.0097
  160SAPE   C2117891   3.937   5.638   6.713 -0.6741  0.8518 -0.2042
  160SAPE   O2217892   3.882   5.696   6.621 -0.0013  0.4167 -0.2063
  160SAPE   C2217893   3.957   5.701   6.850 -0.7688 -0.4677 -0.5824
  160SAPE   H2R17894   4.052   5.660   6.889 -0.8040 -2.3477 -2.2854
  160SAPE   H2S17895   3.962   5.812   6.846 -0.2484 -0.4048  1.0724
  160SAPE    C317896   3.900   5.361   6.580  0.2881  0.1217 -0.7968
  160SAPE    HX17897   3.936   5.284   6.652  0.7941  1.2295  0.1714
  160SAPE    HY17898   3.886   5.307   6.484  1.1489  0.7422 -1.2870
  160SAPE   O3117899   3.770   5.407   6.626  0.5276  0.3281  0.2055
  160SAPE   C3117900   3.691   5.472   6.528  0.6395 -0.4288  0.7665
  160SAPE   O3217901   3.729   5.492   6.415 -0.1065 -0.3573 -0.0672
  160SAPE   C3217902   3.558   5.520   6.578  1.2730 -0.4976 -0.1250
  160SAPE   H2X17903   3.473   5.483   6.516  0.8761 -1.7863  1.1360
  160SAPE   H2Y17904   3.564   5.630   6.564  1.6904 -0.3410  1.1993
  160SAPE   C2317905   3.852   5.650   6.952  0.1017  0.2657  1.2471
  160SAPE   H3R17906   3.901   5.661   7.051 -0.3324 -1.7646  1.7308
  160SAPE   H3S17907   3.832   5.541   6.942  1.6634 -0.1537  2.3886
  160SAPE   C2417908   3.719   5.728   6.950  0.4389 -1.1168 -0.1418
  160SAPE   H4R17909   3.662   5.680   7.033  0.1208  0.8147  0.8027
  160SAPE   H4S17910   3.674   5.708   6.850 -0.4262 -1.4178  0.2967
  160SAPE   C2517911   3.740   5.875   6.978 -0.6161 -0.5559  0.1575
  160SAPE   H5R17912   3.749   5.939   6.889 -2.7655  1.1702  1.0928
  160SAPE   C2617913   3.729   5.945   7.090 -0.1444  0.5862  0.2196
  160SAPE   H6R17914   3.767   6.048   7.080  1.2240  0.2819  1.8885
  160SAPE   C2717915   3.684   5.889   7.228  0.8311 -0.0819  0.5145
  160SAPE   H7R17916   3.643   5.787   7.217  4.4598 -1.6701  0.5059
  160SAPE   H7S17917   3.602   5.949   7.272 -0.8361  0.7721 -3.3297
  160SAPE   C2817918   3.794   5.869   7.329 -0.5187  0.0104  0.2559
  160SAPE   H8R17919   3.899   5.870   7.298 -0.7841 -1.1860 -0.7794
  160SAPE   C2917920   3.783   5.837   7.467  0.5048 -0.2618 -0.3958
  160SAPE   H9R17921   3.874   5.822   7.526  0.2450 -1.8665 -0.3535
  160SAPE  C21017922   3.662   5.820   7.558  0.1334  0.0779 -0.0343
  160SAPE  H10R17923   3.655   5.714   7.589  0.5917 -0.6367 -2.1851
  160SAPE  H10S17924   3.575   5.834   7.490  0.7656  2.4280 -0.4772
  160SAPE  C21117925   3.652   5.915   7.677  0.6036 -0.4293 -0.1086
  160SAPE  H11R17926   3.674   6.021   7.661 -0.8773  0.3473  2.3936
  160SAPE  C21217927   3.623   5.889   7.809  0.1640  0.1250 -0.0980
  160SAPE  H12R17928   3.637   5.973   7.878 -0.7767  0.4478 -0.2965
  160SAPE  C21317929   3.586   5.753   7.874  0.5771 -0.0008  0.6671
  160SAPE  H13R17930   3.559   5.690   7.786  1.4372 -0.0870  0.4553
  160SAPE  H13S17931   3.489   5.748   7.928  0.4049 -2.8270  0.2752
  160SAPE  C21417932   3.703   5.700   7.955 -0.4090  0.6514 -0.6507
  160SAPE  H14R17933   3.792   5.675   7.895  0.1910  1.9187 -0.3175
  160SAPE  C21517934   3.713   5.690   8.094 -0.2543  0.0792 -0.0955
  160SAPE  H15R17935   3.810   5.657   8.135 -0.0250  0.5968 -0.2042
  160SAPE  C21617936   3.599   5.724   8.179  0.5432 -1.2033  0.6276
  160SAPE  H16R17937   3.530   5.638   8.163 -0.8185  0.2545 -2.3039
  160SAPE  H16S17938   3.544   5.814   8.144  1.4704 -0.3617  1.3230
  160SAPE  C21717939   3.636   5.727   8.325 -0.2369  0.6350  0.5453
  160SAPE  H17R17940   3.674   5.830   8.345 -3.9762  2.7098 -1.9347
  160SAPE  H17S17941   3.713   5.654   8.359  0.1386  0.3033 -0.9163
  160SAPE  C21817942   3.525   5.715   8.428  0.6072 -0.9360 -0.0123
  160SAPE  H18R17943   3.561   5.703   8.532 -0.8661 -0.2307  0.6216
  160SAPE  H18S17944   3.458   5.630   8.405 -1.6134  0.6524  0.2214
  160SAPE  C21917945   3.434   5.841   8.431  1.2501 -0.1611  0.5570
  160SAPE  H19R17946   3.388   5.851   8.330  2.0942 -1.2022  0.0438
  160SAPE  H19S17947   3.504   5.927   8.440  0.2539  0.6381  0.9153
  160SAPE  C22017948   3.329   5.832   8.543 -0.1099  0.1267  0.1868
  160SAPE  H20R17949   3.258   5.916   8.528  0.4734  0.1646 -3.1527
  160SAPE  H20S17950   3.368   5.825   8.646  0.2648 -0.3890  0.0153
  160SAPE  H20T17951   3.276   5.736   8.527 -0.2705  0.5375 -2.2541
  160SAPE   C3317952   3.521   5.475   6.719 -0.5181 -0.2955 -0.1350
  160SAPE   H3X17953   3.579   5.531   6.795  0.4163 -1.1189 -0.2188
  160SAPE   H3Y17954   3.546   5.367   6.729 -3.4256 -0.8988  1.6370
  160SAPE   C3417955   3.373   5.490   6.752  0.5753  0.0638  0.0554
  160SAPE   H4X17956   3.309   5.425   6.689  0.4753 -0.1282  0.3516
  160SAPE   H4Y17957   3.348   5.596   6.731 -0.5836 -0.1297  0.3670
  160SAPE   C3517958   3.333   5.457   6.898  0.0028 -0.7492 -0.7135
  160SAPE   H5X17959   3.366   5.351   6.907 -0.2402 -0.8886 -1.4155
  160SAPE   H5Y17960   3.223   5.462   6.915 -0.0412 -0.6077 -1.0404
  160SAPE   C3617961   3.401   5.544   7.012  0.3198 -0.2900  0.0201
  160SAPE   H6X17962   3.383   5.649   6.982 -0.0065  0.1022  1.5017
  160SAPE   H6Y17963   3.509   5.520   7.019  0.0708 -1.1390  1.1827
  160SAPE   C3717964   3.341   5.506   7.141  0.3130  0.9462  0.2983
  160SAPE   H7X17965   3.331   5.396   7.144  0.5979  0.9407  1.1448
  160SAPE   H7Y17966   3.235   5.539   7.137 -0.9126 -2.6453  0.1899
  160SAPE   C3817967   3.415   5.564   7.261  0.9261 -0.6961 -0.0191
  160SAPE   H8X17968   3.443   5.665   7.227 -1.4725 -0.4764 -1.6061
  160SAPE   H8Y17969   3.507   5.505   7.282  1.2290 -0.1162  0.2894
  160SAPE   C3917970   3.336   5.558   7.390  0.2328 -0.5063  0.1672
  160SAPE   H9X17971   3.249   5.626   7.379  1.3809  0.5706 -3.9316
  160SAPE   H9Y17972   3.390   5.593   7.480  0.0800 -2.7464  1.2067
  160SAPE  C31017973   3.283   5.412   7.430  0.2719  0.1356 -0.4573
  160SAPE  H10X17974   3.376   5.352   7.435 -0.2393 -0.5715  1.0552
  160SAPE  H10Y17975   3.217   5.378   7.347  0.4982  2.2954 -1.6067
  160SAPE  C31117976   3.225   5.406   7.572 -0.5301 -0.0684  0.2315
  160SAPE  H11X17977   3.182   5.305   7.593  1.1856 -0.7130  0.7642
  160SAPE  H11Y17978   3.146   5.484   7.573  0.6398  1.1688 -0.6776
  160SAPE  C31217979   3.326   5.432   7.684  0.6866  0.2852  0.5369
  160SAPE  H12X17980   3.364   5.536   7.677  3.0407 -0.4699  1.2123
  160SAPE  H12Y17981   3.407   5.358   7.666  0.9341  0.6073  0.3169
  160SAPE  C31317982   3.264   5.406   7.821 -0.1683 -0.7703 -0.4705
  160SAPE  H13X17983   3.215   5.308   7.842  0.6970 -1.1465 -0.1557
  160SAPE  H13Y17984   3.190   5.488   7.833  0.1133 -0.6807  0.8475
  160SAPE  C31417985   3.366   5.429   7.927 -0.0258  0.0878  0.3162
  160SAPE  H14X17986   3.417   5.527   7.912 -0.9254  0.7586  1.4894
  160SAPE  H14Y17987   3.432   5.341   7.943 -2.1358 -1.7114 -0.3985
  160SAPE  C31517988   3.310   5.452   8.062  0.0591  0.6185 -0.7267
  160SAPE  H15X17989   3.232   5.531   8.062 -1.1078 -0.4841 -1.3738
  160SAPE  H15Y17990   3.391   5.488   8.129  1.8886 -2.7324 -0.9208
  160SAPE  C31617991   3.249   5.326   8.118 -0.4293 -0.1659  0.2557
  160SAPE  H16X17992   3.321   5.245   8.096  0.3123  1.2659 -3.1551
  160SAPE  H16Y17993   3.153   5.297   8.070 -1.2767  0.1866  1.6560
  160SAPE  C31717994   3.221   5.345   8.262  0.2124 -1.0648  0.1570
  160SAPE  H17X17995   3.320   5.357   8.310 -0.2982  0.0171  0.9799
  160SAPE  H17Y17996   3.175   5.249   8.294 -3.5906  0.1854 -0.9927
  160SAPE  C31817997   3.125   5.463   8.294 -0.0856  0.6165  1.1752
  160SAPE  H18X17998   3.176   5.560   8.277 -2.0794  1.4108 -0.6175
  160SAPE  H18Y17999   3.075   5.462   8.394 -1.7172  0.7444  0.3811
  160SAPE  H18Z18000   3.050   5.458   8.213  0.3603  0.0105  0.7853
  161SAPE     N18001   5.314   4.745   6.054  0.0501 -0.3606 -0.1511
  161SAPE   HN118002   5.307   4.837   6.102  0.1823  0.3131 -1.3833
  161SAPE   HN218003   5.418   4.747   6.046 -0.0795  0.7135 -2.5769
  161SAPE   HN318004   5.274   4.761   5.960 -0.9182  2.5750  0.6499
  161SAPE   C1218005   5.273   4.616   6.114 -0.0192  0.1150  0.0262
  161SAPE  H12A18006   5.168   4.591   6.085 -0.2541 -0.5301  1.3295
  161SAPE  H12B18007   5.290   4.629   6.223 -0.7373  1.0562  0.0363
  161SAPE   C1118008   5.367   4.503   6.071 -0.0898  0.4744 -0.7308
  161SAPE  H11A18009   5.360   4.482   5.962 -2.8856  1.0690 -0.7406
  161SAPE  H11B18010   5.348   4.410   6.129  3.3031  1.1274  1.7011
  161SAPE     P18011   5.618   4.420   6.108  0.3830 -0.1116  0.1807
  161SAPE   O1318012   5.588   4.313   6.009 -0.2993  0.4664  0.4027
  161SAPE   O1418013   5.748   4.487   6.091 -0.4477 -0.0812  0.5267
  161SAPE   O1218014   5.507   4.539   6.097 -0.6398  0.6744 -0.0044
  161SAPE   O1118015   5.586   4.359   6.252  0.1081 -0.3046 -0.0994
  161SAPE    C118016   5.629   4.227   6.289  0.4007 -0.2413 -0.7016
  161SAPE    HA18017   5.548   4.151   6.285  1.3476 -1.5540  2.0478
  161SAPE    HB18018   5.708   4.191   6.219  0.0234  0.1759 -1.3483
  161SAPE    C218019   5.702   4.220   6.429  0.0914 -0.6817  0.1491
  161SAPE    HS18020   5.735   4.115   6.439  2.7666  0.1757  1.2566
  161SAPE   O2118021   5.616   4.253   6.539 -0.3180 -0.7929  1.0861
  161SAPE   C2118022   5.534   4.157   6.568  0.0714 -0.4517 -0.3355
  161SAPE   O2218023   5.528   4.043   6.517  0.3846 -0.6598  0.1184
  161SAPE   C2218024   5.441   4.210   6.684 -0.3297 -0.6743  0.5936
  161SAPE   H2R18025   5.488   4.304   6.722 -0.9773  0.0767 -0.4182
  161SAPE   H2S18026   5.339   4.227   6.645 -0.4662  1.2531  1.6232
  161SAPE    C318027   5.831   4.310   6.426  0.2998 -0.6451  1.0563
  161SAPE    HX18028   5.804   4.411   6.388 -0.2733 -1.9233 -2.2819
  161SAPE    HY18029   5.886   4.267   6.339  0.6904  0.2256  0.8640
  161SAPE   O3118030   5.907   4.302   6.548  0.0605  0.5531 -0.1379
  161SAPE   C3118031   6.020   4.377   6.546  0.4060  0.4320 -0.1525
  161SAPE   O3218032   6.054   4.455   6.459 -0.5475  0.1149 -0.2603
  161SAPE   C3218033   6.102   4.336   6.667  0.0365  0.3628 -0.3719
  161SAPE   H2X18034   6.198   4.387   6.643 -0.0506  0.6822 -0.0574
  161SAPE   H2Y18035   6.108   4.226   6.679 -2.1185  0.1634 -0.7480
  161SAPE   C2318036   5.418   4.105   6.801 -0.5960  0.0442  0.5717
  161SAPE   H3R18037   5.369   4.019   6.750  0.5046  0.5262 -1.4421
  161SAPE   H3S18038   5.347   4.153   6.871  0.0368  2.2170 -0.1852
  161SAPE   C2418039   5.546   4.068   6.879 -0.2016 -0.0241 -0.6443
  161SAPE   H4R18040   5.599   4.001   6.807  0.6547 -0.2131  0.1484
  161SAPE   H4S18041   5.510   4.008   6.965 -0.8307  0.8180 -0.3185
  161SAPE   C2518042   5.636   4.177   6.930 -0.0828 -0.3826 -0.1152
  161SAPE   H5R18043   5.693   4.228   6.851 -0.1909  0.4024  0.3069
  161SAPE   C2618044   5.656   4.223   7.052  0.4674 -0.0099  0.0815
  161SAPE   H6R18045   5.737   4.295   7.071  0.8349 -1.1730  3.9318
  161SAPE   C2718046   5.591   4.175   7.183  0.1827  0.1137  0.3011
  161SAPE   H7R18047   5.538   4.078   7.183 -0.2472  0.3019 -1.6433
  161SAPE   H7S18048   5.514   4.251   7.210  0.8388  1.0682 -0.4539
  161SAPE   C2818049   5.685   4.172   7.303  0.1170  0.5440  0.4691
  161SAPE   H8R18050   5.770   4.107   7.276 -0.8559 -0.9178  0.8359
  161SAPE   C2918051   5.678   4.229   7.428 -0.2195  0.3636  0.4824
  161SAPE   H9R18052   5.759   4.204   7.498  0.7772 -1.6687 -1.2591
  161SAPE  C21018053   5.562   4.312   7.488 -0.1279 -0.3273  0.5424
  161SAPE  H10R18054   5.525   4.250   7.573 -0.1615  0.1889  0.9050
  161SAPE  H10S18055   5.471   4.308   7.424  0.3550  0.9798 -0.2619
  161SAPE  C21118056   5.603   4.441   7.538 -0.3497  0.1238 -0.0266
  161SAPE  H11R18057   5.687   4.491   7.489  1.6867 -2.6313  0.4183
  161SAPE  C21218058   5.573   4.500   7.660 -0.1859  0.1264  0.3956
  161SAPE  H12R18059   5.625   4.594   7.685 -0.2567  1.0617 -2.5977
  161SAPE  C21318060   5.477   4.456   7.768  0.0189 -0.5829 -0.1513
  161SAPE  H13R18061   5.429   4.359   7.743 -1.4220  0.2756 -0.8653
  161SAPE  H13S18062   5.398   4.533   7.783  0.2610 -0.5383  0.9351
  161SAPE  C21418063   5.554   4.443   7.903 -0.4614 -0.4116  0.1168
  161SAPE  H14R18064   5.663   4.449   7.894 -0.4451  0.7744  0.8390
  161SAPE  C21518065   5.495   4.431   8.027 -0.5351 -0.3512  0.5756
  161SAPE  H15R18066   5.556   4.411   8.116  1.0216  1.2356 -0.0788
  161SAPE  C21618067   5.348   4.434   8.041 -0.1013  1.0209  0.3200
  161SAPE  H16R18068   5.333   4.365   8.127 -0.9093 -1.1019 -1.4315
  161SAPE  H16S18069   5.303   4.383   7.953  3.0992  0.6988 -1.3048
  161SAPE  C21718070   5.301   4.584   8.048  0.3224  0.1558  0.1212
  161SAPE  H17R18071   5.337   4.625   7.951 -1.8456 -1.2058 -1.3696
  161SAPE  H17S18072   5.349   4.637   8.132  0.6449 -1.8302  1.2637
  161SAPE  C21818073   5.151   4.619   8.072  0.0115  0.0510 -0.1719
  161SAPE  H18R18074   5.128   4.615   8.181  0.6035  2.2427  0.0764
  161SAPE  H18S18075   5.086   4.545   8.021 -1.3031  1.3402 -0.4391
  161SAPE  C21918076   5.116   4.755   8.010 -0.1911 -0.1645  0.5115
  161SAPE  H19R18077   5.128   4.731   7.903 -0.4534  0.5503  0.3142
  161SAPE  H19S18078   5.201   4.823   8.034 -0.6490  0.3615  0.6716
  161SAPE  C22018079   4.980   4.809   8.048  0.2126  0.0005 -0.6016
  161SAPE  H20R18080   4.903   4.737   8.014  1.0832 -0.0214 -2.6451
  161SAPE  H20S18081   4.951   4.895   7.983 -1.0290  1.0635  1.2585
  161SAPE  H20T18082   4.966   4.847   8.152 -2.1268  1.1419 -1.2522
  161SAPE   C3318083   6.055   4.384   6.802 -0.5021 -0.1887  0.1635
  161SAPE   H3X18084   5.949   4.349   6.806  0.1619 -2.5637 -0.9537
  161SAPE   H3Y18085   6.061   4.494   6.810  0.8051 -0.2717  0.4360
  161SAPE   C3418086   6.142   4.322   6.908  0.8263 -0.4632 -0.1662
  161SAPE   H4X18087   6.252   4.337   6.899  0.9912 -1.5621 -0.0771
  161SAPE   H4Y18088   6.138   4.212   6.901 -0.7047 -0.4340  0.1227
  161SAPE   C3518089   6.096   4.368   7.053 -0.1639 -0.7279  0.7606
  161SAPE   H5X18090   5.987   4.374   7.073  0.1315  0.0479  2.2785
  161SAPE   H5Y18091   6.134   4.472   7.064  1.9311 -1.1109 -1.9800
  161SAPE   C3618092   6.165   4.289   7.166 -0.2566 -0.1549  0.0819
  161SAPE   H6X18093   6.274   4.306   7.154 -0.4442 -0.4363 -2.6025
  161SAPE   H6Y18094   6.140   4.184   7.138 -0.9924 -0.2265  0.9713
  161SAPE   C3718095   6.113   4.328   7.299 -0.6674  0.1439 -0.8675
  161SAPE   H7X18096   6.152   4.249   7.367 -2.2495  0.9808  1.1143
  161SAPE   H7Y18097   6.004   4.310   7.299 -1.0608  2.1650 -2.3228
  161SAPE   C3818098   6.154   4.466   7.360 -0.1465 -0.4576  0.5187
  161SAPE   H8X18099   6.091   4.532   7.296 -1.2776 -0.9594  1.0746
  161SAPE   H8Y18100   6.263   4.479   7.346 -0.2220 -1.2318 -1.0214
  161SAPE   C3918101   6.085   4.497   7.499 -0.1006 -0.3875  0.4313
  161SAPE   H9X18102   5.980   4.459   7.503  0.0507 -1.2761 -2.1402
  161SAPE   H9Y18103   6.064   4.606   7.509  0.6582  0.4772 -4.8289
  161SAPE  C31018104   6.170   4.440   7.615 -0.0243  0.2570 -0.0268
  161SAPE  H10X18105   6.276   4.465   7.595 -0.1189  1.7874  1.2719
  161SAPE  H10Y18106   6.166   4.329   7.605  1.6695  0.0892  0.8312
  161SAPE  C31118107   6.125   4.487   7.758 -0.2867  0.0769  0.2913
  161SAPE  H11X18108   6.023   4.446   7.775  0.3786 -1.8948 -0.2845
  161SAPE  H11Y18109   6.138   4.597   7.767 -1.8876  0.4021 -0.9124
  161SAPE  C31218110   6.208   4.421   7.868 -1.1136  0.6596 -0.2128
  161SAPE  H12X18111   6.311   4.458   7.850 -0.2486 -0.2440  2.4229
  161SAPE  H12Y18112   6.206   4.310   7.866  0.8208  0.5698  0.5951
  161SAPE  C31318113   6.171   4.462   8.009 -0.0909 -0.7050  0.4062
  161SAPE  H13X18114   6.162   4.572   8.014 -2.7163 -0.9069  2.6388
  161SAPE  H13Y18115   6.256   4.435   8.076  1.8659  2.3609 -0.6579
  161SAPE  C31418116   6.033   4.418   8.062  0.0511  0.4327 -0.5767
  161SAPE  H14X18117   6.006   4.311   8.073 -2.0969  0.9802  0.0420
  161SAPE  H14Y18118   5.951   4.479   8.017  1.7059  2.8380 -0.5302
  161SAPE  C31518119   6.016   4.460   8.210  0.3684  0.0865 -0.5795
  161SAPE  H15X18120   6.038   4.569   8.212  1.3944 -0.1074  0.2266
  161SAPE  H15Y18121   6.095   4.419   8.277  0.8121  2.3122  0.3597
  161SAPE  C31618122   5.883   4.431   8.268  0.2856  0.0636  0.7719
  161SAPE  H16X18123   5.852   4.329   8.236  2.2054  0.2562 -2.0761
  161SAPE  H16Y18124   5.815   4.515   8.240 -0.2164 -0.7867 -0.6562
  161SAPE  C31718125   5.898   4.432   8.419  0.4648 -0.1454 -0.5545
  161SAPE  H17X18126   5.934   4.530   8.456  1.3321 -0.3399 -0.8721
  161SAPE  H17Y18127   5.973   4.358   8.453 -0.3469 -0.7136  0.0236
  161SAPE  C31818128   5.777   4.393   8.497  0.1780  1.0134  0.8587
  161SAPE  H18X18129   5.745   4.289   8.478 -2.9812  2.4362 -3.0474
  161SAPE  H18Y18130   5.689   4.457   8.473 -3.2560 -3.2119  0.9680
  161SAPE  H18Z18131   5.792   4.397   8.607 -2.6658 -0.0690  1.3670
  162SAPE     N18132   5.965   1.644   5.870 -0.1627 -0.1083  0.1015
  162SAPE   HN118133   6.031   1.648   5.790  1.8591 -0.8231  1.6132
  162SAPE   HN218134   5.888   1.576   5.853  0.0972 -1.0537  2.2535
  162SAPE   HN318135   5.927   1.740   5.879  0.8894  0.5596 -2.0649
  162SAPE   C1218136   6.041   1.599   5.992  0.1119 -0.6222  0.2581
  162SAPE  H12A18137   6.000   1.647   6.083  1.6329 -0.3175  0.8099
  162SAPE  H12B18138   6.144   1.640   5.984 -0.0751 -0.3053 -0.7070
  162SAPE   C1118139   6.032   1.451   6.024  0.3840  0.0589  0.3044
  162SAPE  H11A18140   6.067   1.426   6.127  1.8940 -1.3984 -0.5157
  162SAPE  H11B18141   6.098   1.404   5.948  0.7366  1.0751 -0.0396
  162SAPE     P18142   5.863   1.257   6.013  0.1020 -0.0403 -0.8882
  162SAPE   O1318143   5.744   1.241   5.927 -0.1062  0.3969 -0.2890
  162SAPE   O1418144   5.986   1.181   5.974  0.0095  0.1017  0.3289
  162SAPE   O1218145   5.896   1.408   6.015  0.2370  0.4498 -0.0368
  162SAPE   O1118146   5.821   1.219   6.157  0.0833  0.1958 -0.0378
  162SAPE    C118147   5.738   1.313   6.229  0.0469  0.2150 -0.0719
  162SAPE    HA18148   5.677   1.379   6.165 -2.2494 -1.4732  0.2373
  162SAPE    HB18149   5.670   1.254   6.295  2.0344 -0.9702  1.0426
  162SAPE    C218150   5.814   1.383   6.345  0.1038 -0.0961  0.4199
  162SAPE    HS18151   5.909   1.422   6.304  1.0518 -1.5028  1.1881
  162SAPE   O2118152   5.869   1.279   6.428  0.3565  0.0042 -0.4307
  162SAPE   C2118153   5.960   1.302   6.522  0.9865 -0.5526 -0.7380
  162SAPE   O2218154   6.015   1.414   6.531  0.2229  0.6934 -0.6893
  162SAPE   C2218155   5.993   1.180   6.612 -0.2350 -0.2532 -0.0564
  162SAPE   H2R18156   5.901   1.118   6.614 -1.4422  1.4784 -0.0134
  162SAPE   H2S18157   6.073   1.128   6.554  0.6431 -0.0769  0.9495
  162SAPE    C318158   5.733   1.498   6.412 -0.4433  0.0150  0.4488
  162SAPE    HX18159   5.694   1.566   6.333  1.2490  1.2567  0.6261
  162SAPE    HY18160   5.806   1.557   6.470 -0.2279 -2.0076  2.3596
  162SAPE   O3118161   5.639   1.447   6.507 -0.2482  0.1896 -0.0901
  162SAPE   C3118162   5.516   1.496   6.499 -0.8281  0.7742  0.2634
  162SAPE   O3218163   5.482   1.587   6.430 -0.1883 -0.1237  0.0847
  162SAPE   C3218164   5.434   1.425   6.598  0.8451  0.3560 -0.2369
  162SAPE   H2X18165   5.487   1.334   6.634  0.1041 -0.2177 -0.5816
  162SAPE   H2Y18166   5.338   1.396   6.551  0.8058 -0.5317  0.3577
  162SAPE   C2318167   6.037   1.229   6.751 -0.6734 -0.2835  1.0368
  162SAPE   H3R18168   5.949   1.265   6.808 -1.5066  2.2056 -1.5860
  162SAPE   H3S18169   6.111   1.308   6.727  1.0480 -2.2176 -0.4620
  162SAPE   C2418170   6.094   1.112   6.826 -0.0659 -0.0760  0.0167
  162SAPE   H4R18171   6.126   1.166   6.918  1.3756  0.9000 -1.0098
  162SAPE   H4S18172   6.186   1.072   6.777 -0.6945 -2.2199  0.4914
  162SAPE   C2518173   5.974   1.014   6.846  0.2462  0.0939  0.1832
  162SAPE   H5R18174   5.967   0.927   6.779  1.6128  1.3177 -1.6142
  162SAPE   C2618175   5.877   1.027   6.944 -0.0491  0.2916  0.1914
  162SAPE   H6R18176   5.795   0.954   6.949  0.1708  0.1251  1.8533
  162SAPE   C2718177   5.872   1.126   7.060  0.4586 -0.2765  0.7319
  162SAPE   H7R18178   5.792   1.202   7.044  1.1003  0.7005  1.9585
  162SAPE   H7S18179   5.964   1.188   7.067 -0.9195  1.8012  1.4117
  162SAPE   C2818180   5.863   1.048   7.189 -0.0172 -0.1687 -0.4319
  162SAPE   H8R18181   5.947   0.976   7.198 -1.3202 -2.2116 -3.0124
  162SAPE   C2918182   5.770   1.059   7.286  0.1091 -0.0347 -1.6279
  162SAPE   H9R18183   5.767   0.994   7.374 -2.0455  0.6080 -1.1485
  162SAPE  C21018184   5.645   1.152   7.297 -0.9356 -0.3117  0.3106
  162SAPE  H10R18185   5.611   1.131   7.400 -0.8195  1.5809  0.7668
  162SAPE  H10S18186   5.570   1.114   7.225 -1.5687  0.7129  0.4063
  162SAPE  C21118187   5.670   1.301   7.278  0.7024  0.4701  0.2602
  162SAPE  H11R18188   5.613   1.358   7.203 -2.5064 -1.7225  0.7989
  162SAPE  C21218189   5.735   1.375   7.365 -0.3973 -0.5490 -0.0752
  162SAPE  H12R18190   5.737   1.483   7.348 -1.2627 -0.7408 -1.5371
  162SAPE  C21318191   5.797   1.327   7.495  0.4321  0.9149 -0.3151
  162SAPE  H13R18192   5.906   1.349   7.492  0.7906 -0.6826 -0.1311
  162SAPE  H13S18193   5.795   1.216   7.491 -0.2394  0.9337 -0.5627
  162SAPE  C21418194   5.729   1.387   7.612 -0.4856 -0.0152 -0.0782
  162SAPE  H14R18195   5.702   1.492   7.595  3.4053  0.9976 -1.1793
  162SAPE  C21518196   5.685   1.321   7.726 -0.7708 -0.3148 -0.0047
  162SAPE  H15R18197   5.626   1.377   7.799 -2.2086  0.6513 -1.8373
  162SAPE  C21618198   5.702   1.171   7.765 -0.3269 -0.0228  0.7385
  162SAPE  H16R18199   5.764   1.123   7.686 -0.1120  0.3520  0.6738
  162SAPE  H16S18200   5.606   1.115   7.767  0.8012 -2.0481  0.5866
  162SAPE  C21718201   5.764   1.159   7.906  0.1716  0.3478  1.2123
  162SAPE  H17R18202   5.863   1.209   7.905  0.4781 -0.2396  1.4672
  162SAPE  H17S18203   5.794   1.055   7.930  1.1560  0.0795 -1.0137
  162SAPE  C21818204   5.694   1.230   8.020  0.1519  0.4350  0.1534
  162SAPE  H18R18205   5.583   1.225   8.021  0.1328  0.9243  1.0698
  162SAPE  H18S18206   5.720   1.337   8.003 -0.2043  0.6579  0.9725
  162SAPE  C21918207   5.744   1.199   8.166  0.0302 -0.7480 -0.5455
  162SAPE  H19R18208   5.853   1.197   8.184  0.1887 -0.6665 -1.4521
  162SAPE  H19S18209   5.697   1.102   8.193  0.7044 -0.3168  2.5162
  162SAPE  C22018210   5.685   1.306   8.257  0.9237 -0.8141 -0.6345
  162SAPE  H20R18211   5.696   1.289   8.367 -0.2105  0.9188 -0.2073
  162SAPE  H20S18212   5.576   1.313   8.236  0.6390 -3.8861 -0.7252
  162SAPE  H20T18213   5.720   1.406   8.223 -0.7488 -1.2746 -4.1302
  162SAPE   C3318214   5.405   1.523   6.722  0.1204 -0.3887  0.4063
  162SAPE   H3X18215   5.355   1.608   6.671  1.3542  1.3340  1.9565
  162SAPE   H3Y18216   5.497   1.553   6.777 -0.2845 -1.8877  1.9938
  162SAPE   C3418217   5.324   1.462   6.839 -0.4057  0.5582  0.1733
  162SAPE   H4X18218   5.381   1.378   6.883 -1.7388 -1.4946 -1.8024
  162SAPE   H4Y18219   5.233   1.416   6.794  0.3084  0.2813 -1.0322
  162SAPE   C3518220   5.301   1.577   6.945 -0.7015 -0.1358  0.2276
  162SAPE   H5X18221   5.246   1.657   6.890 -1.4793 -1.4139 -0.9119
  162SAPE   H5Y18222   5.403   1.600   6.981 -0.4483 -1.0055  0.0795
  162SAPE   C3618223   5.202   1.532   7.046 -0.7118  0.0737 -0.9745
  162SAPE   H6X18224   5.135   1.451   7.009 -2.8869  2.8028 -3.4199
  162SAPE   H6Y18225   5.141   1.620   7.074 -1.1464 -0.5980  0.3187
  162SAPE   C3718226   5.284   1.488   7.169  0.5150  0.0054 -0.3806
  162SAPE   H7X18227   5.367   1.559   7.192  0.4681 -0.0278 -0.1060
  162SAPE   H7Y18228   5.328   1.386   7.172 -0.3472 -0.3865  2.4840
  162SAPE   C3818229   5.196   1.488   7.299 -0.5483 -0.0528 -0.5421
  162SAPE   H8X18230   5.114   1.414   7.305  1.4033 -2.3075 -0.2357
  162SAPE   H8Y18231   5.155   1.588   7.326 -1.9735 -0.4753 -1.0414
  162SAPE   C3918232   5.276   1.434   7.434 -0.7246  0.6600  0.3457
  162SAPE   H9X18233   5.370   1.492   7.448 -1.6221  2.1457  0.3670
  162SAPE   H9Y18234   5.318   1.332   7.418  0.6229  0.9608  1.6899
  162SAPE  C31018235   5.203   1.445   7.565  0.0319  0.0546  0.5081
  162SAPE  H10X18236   5.124   1.368   7.555 -2.2168  2.4240 -1.3734
  162SAPE  H10Y18237   5.168   1.548   7.588  0.3302  0.3981 -0.4913
  162SAPE  C31118238   5.283   1.418   7.693 -0.7785  0.5712  0.4791
  162SAPE  H11X18239   5.282   1.514   7.749 -0.1989  1.2205 -0.6074
  162SAPE  H11Y18240   5.385   1.377   7.678 -0.7887  1.1692 -1.5532
  162SAPE  C31218241   5.213   1.310   7.781 -0.2217  0.5016 -0.2689
  162SAPE  H12X18242   5.214   1.211   7.731 -0.7219  0.7251 -0.7397
  162SAPE  H12Y18243   5.105   1.334   7.795  0.0537  1.6635 -0.0185
  162SAPE  C31318244   5.282   1.286   7.917 -0.5251 -0.2879  0.2801
  162SAPE  H13X18245   5.260   1.378   7.975 -1.0570 -0.2612  0.0379
  162SAPE  H13Y18246   5.392   1.270   7.910 -0.5547 -0.6087  0.5046
  162SAPE  C31418247   5.225   1.169   8.000  0.5659 -0.3570  0.4672
  162SAPE  H14X18248   5.244   1.075   7.944  0.6042 -0.6095  0.8949
  162SAPE  H14Y18249   5.115   1.177   8.015  0.6636 -0.3579  1.2089
  162SAPE  C31518250   5.279   1.169   8.140  0.3737  0.2559  0.1591
  162SAPE  H15X18251   5.256   1.262   8.196 -0.6153  0.3007 -0.2913
  162SAPE  H15Y18252   5.389   1.158   8.137  0.5900  2.3465 -2.2154
  162SAPE  C31618253   5.235   1.050   8.233  0.0397 -0.5482  0.9360
  162SAPE  H16X18254   5.272   0.956   8.185 -1.0651 -0.1437 -0.7697
  162SAPE  H16Y18255   5.124   1.043   8.231 -0.1011  0.7095  2.3336
  162SAPE  C31718256   5.286   1.056   8.377 -0.3499 -0.3117  0.8642
  162SAPE  H17X18257   5.258   0.961   8.429 -0.0985 -1.7393 -1.4697
  162SAPE  H17Y18258   5.237   1.135   8.437  0.6795 -1.2890  3.1217
  162SAPE  C31818259   5.434   1.059   8.398 -0.0147 -0.2252 -0.0964
  162SAPE  H18X18260   5.457   1.021   8.499 -0.0861 -0.9960 -0.3639
  162SAPE  H18Y18261   5.468   1.165   8.401 -0.2071 -0.1755  2.7271
  162SAPE  H18Z18262   5.475   0.987   8.324 -2.3724 -1.4010 -0.3680
  163SAPE     N18263   3.130   4.972   5.975  0.5837 -0.0075 -0.7439
  163SAPE   HN118264   3.058   5.003   6.043  0.5027 -0.5895 -0.5566
  163SAPE   HN218265   3.196   5.053   5.971  2.2117 -1.1860  0.8281
  163SAPE   HN318266   3.081   4.948   5.886  0.9062 -1.6396 -0.5173
  163SAPE   C1218267   3.222   4.863   6.018 -0.2467 -0.0259  0.3464
  163SAPE  H12A18268   3.304   4.858   5.944  1.8057 -1.4242  2.5566
  163SAPE  H12B18269   3.170   4.768   6.045 -0.2713  0.6213  2.8341
  163SAPE   C1118270   3.306   4.925   6.135 -0.0448  0.2491  0.2521
  163SAPE  H11A18271   3.365   4.851   6.193 -0.6499 -0.3991  0.0509
  163SAPE  H11B18272   3.229   4.966   6.203  0.7855  2.3566  0.0067
  163SAPE     P18273   3.533   5.039   6.097  0.4554 -0.2782  0.0626
  163SAPE   O1318274   3.590   4.919   6.039 -0.2585  0.3257 -0.3732
  163SAPE   O1418275   3.596   5.166   6.051 -0.1571  0.4458  0.1795
  163SAPE   O1218276   3.377   5.039   6.082  0.3006 -0.1171 -0.0102
  163SAPE   O1118277   3.556   5.036   6.251  0.0290 -0.5348 -0.1298
  163SAPE    C118278   3.533   5.153   6.333  0.0588  0.6022 -0.4055
  163SAPE    HA18279   3.634   5.198   6.344  1.4732 -2.5517  0.9264
  163SAPE    HB18280   3.458   5.224   6.292 -2.4956 -0.9712  1.2748
  163SAPE    C218281   3.480   5.132   6.479  0.5056  0.0279 -0.7901
  163SAPE    HS18282   3.482   5.230   6.532 -1.8706 -0.2506 -0.0485
  163SAPE   O2118283   3.553   5.022   6.544 -1.0732  0.4327  0.1341
  163SAPE   C2118284   3.559   5.037   6.679  0.8399  0.1918 -0.4312
  163SAPE   O2218285   3.516   5.123   6.744  0.5235 -0.4323  0.1806
  163SAPE   C2218286   3.621   4.911   6.739  0.2552 -0.2814 -0.1772
  163SAPE   H2R18287   3.535   4.855   6.782 -0.8887  0.9487 -0.7753
  163SAPE   H2S18288   3.677   4.847   6.668  0.7955 -1.6042  1.3818
  163SAPE    C318289   3.324   5.098   6.485  0.2485  0.0169  0.0685
  163SAPE    HX18290   3.313   4.988   6.497 -1.5300  0.2471  0.8645
  163SAPE    HY18291   3.269   5.117   6.390 -0.5959 -1.9645  0.1142
  163SAPE   O3118292   3.256   5.162   6.595 -0.3985  0.0130  0.0551
  163SAPE   C3118293   3.140   5.115   6.642 -1.1227 -0.4148  0.0322
  163SAPE   O3218294   3.064   5.042   6.584 -0.2902  0.2033 -0.1890
  163SAPE   C3218295   3.112   5.165   6.784 -0.5459 -0.0641 -0.1498
  163SAPE   H2X18296   3.018   5.224   6.795  0.2251  0.9381  1.6289
  163SAPE   H2Y18297   3.193   5.233   6.819 -0.8433 -0.1819  0.8020
  163SAPE   C2318298   3.712   4.943   6.859 -0.4078 -0.0582 -0.0321
  163SAPE   H3R18299   3.750   4.844   6.889 -0.5393 -0.2182 -0.3864
  163SAPE   H3S18300   3.662   5.015   6.928 -0.7432 -0.4421  0.1262
  163SAPE   C2418301   3.840   5.022   6.816  0.0515 -0.0079  0.0510
  163SAPE   H4R18302   3.822   5.124   6.775  0.1208  0.8900  2.1277
  163SAPE   H4S18303   3.884   4.963   6.733 -1.0861  1.3980 -1.6149
  163SAPE   C2518304   3.937   5.026   6.932  0.4532  0.2966  0.3395
  163SAPE   H5R18305   3.977   4.928   6.961 -1.0748  0.1770  2.2371
  163SAPE   C2618306   3.954   5.129   7.016  0.0875 -0.2560  0.7148
  163SAPE   H6R18307   4.027   5.112   7.096  0.2112 -0.4334  0.5663
  163SAPE   C2718308   3.896   5.273   7.015  0.7132 -0.3138 -0.7465
  163SAPE   H7R18309   3.895   5.312   6.911 -1.4590  0.4317 -0.5082
  163SAPE   H7S18310   3.957   5.344   7.075  1.8885 -0.8333 -1.3008
  163SAPE   C2818311   3.765   5.256   7.078  0.1100  0.2133 -0.5535
  163SAPE   H8R18312   3.685   5.232   7.007  1.0809 -1.2317 -1.2076
  163SAPE   C2918313   3.738   5.274   7.210  0.2208  0.0438  0.9014
  163SAPE   H9R18314   3.633   5.271   7.242 -0.2101  0.9153 -0.3374
  163SAPE  C21018315   3.834   5.293   7.324 -0.0232  0.1687  0.5516
  163SAPE  H10R18316   3.938   5.261   7.302 -0.0268 -0.9645  2.0472
  163SAPE  H10S18317   3.813   5.214   7.399  0.7878 -0.7437 -0.1579
  163SAPE  C21118318   3.860   5.431   7.372  0.5103 -0.1177  0.0145
  163SAPE  H11R18319   3.886   5.508   7.297  3.2724 -1.0419 -0.0887
  163SAPE  C21218320   3.860   5.464   7.504  0.1633 -0.2590  0.2594
  163SAPE  H12R18321   3.891   5.568   7.522 -0.6744 -0.3217  2.2928
  163SAPE  C21318322   3.854   5.368   7.622 -0.3492 -0.2678  0.2017
  163SAPE  H13R18323   3.859   5.441   7.705  2.7275 -1.8600  1.5791
  163SAPE  H13S18324   3.940   5.297   7.620 -0.3312 -0.3323  1.9325
  163SAPE  C21418325   3.726   5.295   7.657 -0.1774  0.7169 -0.0167
  163SAPE  H14R18326   3.668   5.251   7.575  2.4722 -0.9388 -1.1206
  163SAPE  C21518327   3.677   5.278   7.779 -0.1311  0.8116 -0.0007
  163SAPE  H15R18328   3.581   5.228   7.793 -0.0073  0.3229 -0.8301
  163SAPE  C21618329   3.744   5.323   7.912 -0.8086 -0.1899 -0.3377
  163SAPE  H16R18330   3.682   5.405   7.952 -1.9267 -1.8984  1.6535
  163SAPE  H16S18331   3.849   5.355   7.893 -0.7355 -2.0098 -3.7412
  163SAPE  C21718332   3.734   5.206   8.008  0.2010  0.7940 -0.8746
  163SAPE  H17R18333   3.777   5.109   7.975 -1.1573  0.3995 -1.5443
  163SAPE  H17S18334   3.627   5.183   8.027  0.1357  0.7390 -1.3059
  163SAPE  C21818335   3.796   5.245   8.145 -0.5588 -0.2625  0.4298
  163SAPE  H18R18336   3.893   5.300   8.140 -1.7954  2.0128 -0.0274
  163SAPE  H18S18337   3.829   5.152   8.196  0.2303  1.1423  2.6545
  163SAPE  C21918338   3.699   5.321   8.242 -0.6389 -0.3804  0.0686
  163SAPE  H19R18339   3.600   5.273   8.258 -0.5279 -1.0985 -1.2396
  163SAPE  H19S18340   3.680   5.418   8.191  0.5720  0.7555  1.6757
  163SAPE  C22018341   3.772   5.338   8.377  0.1406  0.1470  0.7172
  163SAPE  H20R18342   3.763   5.246   8.438  1.1826  0.7041  1.7423
  163SAPE  H20S18343   3.734   5.426   8.433  1.2548  1.5850 -0.7120
  163SAPE  H20T18344   3.883   5.346   8.374  0.2229 -1.0903 -1.1030
  163SAPE   C3318345   3.108   5.038   6.876 -0.4175  0.2621 -0.4793
  163SAPE   H3X18346   3.026   4.964   6.858 -0.1623 -0.1512  0.0219
  163SAPE   H3Y18347   3.079   5.059   6.982  1.7950 -1.2171  0.5024
  163SAPE   C3418348   3.242   4.967   6.886 -0.2029 -0.0356 -0.4920
  163SAPE   H4X18349   3.293   4.955   6.788  1.0727  0.0696  0.1359
  163SAPE   H4Y18350   3.222   4.862   6.915 -1.0293 -0.5084 -2.5735
  163SAPE   C3518351   3.328   5.026   6.998  0.3457  1.0173  0.2546
  163SAPE   H5X18352   3.327   5.137   6.998  1.2095  1.0567 -1.4576
  163SAPE   H5Y18353   3.432   4.992   6.978  0.6902 -0.9571  4.2866
  163SAPE   C3618354   3.294   4.966   7.136  0.6442 -0.4539  0.7331
  163SAPE   H6X18355   3.325   4.862   7.160  1.1607  0.2235  3.3397
  163SAPE   H6Y18356   3.187   4.975   7.165  0.4326  2.5079 -0.6136
  163SAPE   C3718357   3.379   5.046   7.243  0.4166 -0.0575  0.3968
  163SAPE   H7X18358   3.323   5.135   7.278  0.4779  0.5577 -0.9825
  163SAPE   H7Y18359   3.474   5.075   7.192 -0.8330 -0.4266 -2.3020
  163SAPE   C3818360   3.398   4.954   7.361 -0.0252  0.5340 -0.2022
  163SAPE   H8X18361   3.470   4.872   7.342 -0.9461  0.0155 -1.5859
  163SAPE   H8Y18362   3.298   4.905   7.371 -0.9218  2.3050  0.0145
  163SAPE   C3918363   3.426   5.033   7.496  0.5642 -0.0293  0.0756
  163SAPE   H9X18364   3.362   5.124   7.497 -1.3368 -1.2969 -0.7436
  163SAPE   H9Y18365   3.535   5.057   7.498  0.0871  2.5432 -0.7956
  163SAPE  C31018366   3.398   4.936   7.612 -0.0752 -0.2113  0.8634
  163SAPE  H10X18367   3.461   4.846   7.596 -0.8906 -0.3801 -1.8035
  163SAPE  H10Y18368   3.294   4.900   7.595 -0.1259  0.5049 -0.4283
  163SAPE  C31118369   3.418   5.005   7.741 -0.0792 -0.1144 -0.3077
  163SAPE  H11X18370   3.353   5.095   7.745 -0.5613 -0.5011  1.5268
  163SAPE  H11Y18371   3.519   5.046   7.724 -0.7507  1.4206 -0.7973
  163SAPE  C31218372   3.393   4.919   7.860  0.1833 -0.4641  0.4033
  163SAPE  H12X18373   3.479   4.850   7.856  0.4414 -0.1399  0.2684
  163SAPE  H12Y18374   3.309   4.850   7.841  1.9462 -2.6581  0.2183
  163SAPE  C31318375   3.387   5.000   7.991  0.5463  0.5316 -0.8704
  163SAPE  H13X18376   3.279   5.026   7.997  0.3308 -0.2616 -1.1240
  163SAPE  H13Y18377   3.437   5.098   7.972 -2.4464  2.1946 -0.8278
  163SAPE  C31418378   3.430   4.921   8.115 -0.2449  0.3212 -1.0061
  163SAPE  H14X18379   3.534   4.886   8.101 -0.3780 -0.3972 -0.2839
  163SAPE  H14Y18380   3.372   4.826   8.120 -0.6952  0.6703  1.5542
  163SAPE  C31518381   3.418   5.005   8.246 -0.1393 -0.4622 -0.6141
  163SAPE  H15X18382   3.320   5.057   8.253  0.0641 -0.3265  2.8872
  163SAPE  H15Y18383   3.489   5.091   8.244 -0.4297 -0.1982  0.1676
  163SAPE  C31618384   3.437   4.917   8.368 -0.5427  0.0184 -0.3440
  163SAPE  H16X18385   3.520   4.851   8.334 -2.6427 -2.3207 -1.2372
  163SAPE  H16Y18386   3.360   4.844   8.402 -0.5110  0.2567  0.2517
  163SAPE  C31718387   3.502   4.986   8.491 -0.0669 -0.2117  0.5927
  163SAPE  H17X18388   3.581   5.061   8.469 -0.8319  0.2600 -0.6213
  163SAPE  H17Y18389   3.548   4.902   8.547  1.7472  0.7476  0.5962
  163SAPE  C31818390   3.389   5.052   8.572  0.2900 -0.2472 -0.3567
  163SAPE  H18X18391   3.295   5.004   8.540 -0.0405  0.9232 -1.2175
  163SAPE  H18Y18392   3.377   5.161   8.555 -0.2192 -0.4322 -1.2013
  163SAPE  H18Z18393   3.403   5.038   8.681 -1.1493  2.1594  0.1929
  164SAPE     N18394   0.627   2.765   5.770  0.5319  0.4486  0.1768
  164SAPE   HN118395   0.670   2.814   5.688 -0.1316 -0.0418 -0.4760
  164SAPE   HN218396   0.714   2.719   5.804 -0.5487 -0.4774  1.8387
  164SAPE   HN318397   0.571   2.693   5.721  1.4334  0.6496 -1.2137
  164SAPE   C1218398   0.555   2.854   5.858  0.0164 -0.3191 -0.0602
  164SAPE  H12A18399   0.629   2.931   5.890 -0.4807  0.4800 -0.7999
  164SAPE  H12B18400   0.524   2.802   5.950 -0.7544  1.3916  0.6984
  164SAPE   C1118401   0.436   2.936   5.791 -1.2066 -0.0661  0.1666
  164SAPE  H11A18402   0.493   3.015   5.737 -1.1871  0.1372  0.4795
  164SAPE  H11B18403   0.366   2.978   5.866 -2.9736 -0.4184 -1.2268
  164SAPE     P18404   0.233   2.775   5.747 -0.1104 -0.1919 -0.2410
  164SAPE   O1318405   0.113   2.851   5.712  0.2215  0.2425 -0.4619
  164SAPE   O1418406   0.239   2.636   5.705  0.3285  0.0999  0.8417
  164SAPE   O1218407   0.366   2.854   5.697  0.1967  0.8967  0.4403
  164SAPE   O1118408   0.240   2.774   5.904 -0.3808  0.1947  0.1684
  164SAPE    C118409   0.135   2.714   5.978  0.1050 -0.0443  0.0642
  164SAPE    HA18410   0.035   2.717   5.931 -0.1414  1.1124  0.6060
  164SAPE    HB18411   0.160   2.607   5.993 -3.9542 -1.2392 -0.5230
  164SAPE    C218412   0.092   2.792   6.112  0.9313 -0.1212  0.3266
  164SAPE    HS18413   0.033   2.884   6.093  0.8321 -0.0827  0.8271
  164SAPE   O2118414   0.206   2.800   6.192  0.0744 -0.4458 -0.3288
  164SAPE   C2118415   0.255   2.922   6.202 -0.1870  0.1630  0.7023
  164SAPE   O2218416   0.208   3.028   6.152 -0.0311  0.1677 -0.2454
  164SAPE   C2218417   0.384   2.919   6.290  0.3424 -0.1904  0.3648
  164SAPE   H2R18418   0.472   2.883   6.232  0.5677 -0.3374  0.7920
  164SAPE   H2S18419   0.414   3.024   6.313  0.0078  0.6898 -2.7450
  164SAPE    C318420  -0.001   2.692   6.177 -0.1154 -0.0373  0.0018
  164SAPE    HX18421   0.048   2.594   6.159 -0.0174  0.1467 -0.7809
  164SAPE    HY18422  -0.083   2.695   6.101  0.3123 -0.4898 -0.4821
  164SAPE   O3118423  -0.048   2.720   6.314 -0.2913  0.2547 -0.1335
  164SAPE   C3118424   0.012   2.635   6.402  0.5524 -0.2055  0.0518
  164SAPE   O3218425   0.094   2.548   6.376 -0.7955  0.2040  0.4526
  164SAPE   C3218426  -0.039   2.672   6.546  0.5652  0.2855  0.5306
  164SAPE   H2X18427  -0.128   2.611   6.571  1.1981 -1.2288 -0.7402
  164SAPE   H2Y18428  -0.053   2.782   6.555 -0.6418  0.1987 -0.0914
  164SAPE   C2318429   0.378   2.836   6.414  0.0456  0.3299 -0.5886
  164SAPE   H3R18430   0.342   2.734   6.388 -1.9313  1.5785 -3.3685
  164SAPE   H3S18431   0.285   2.870   6.465  0.0209  0.4400 -0.7047
  164SAPE   C2418432   0.501   2.849   6.501 -0.3205 -0.6920  0.4330
  164SAPE   H4R18433   0.541   2.952   6.504 -1.3802 -0.2459 -0.3675
  164SAPE   H4S18434   0.584   2.792   6.453 -1.0033 -0.9491 -0.4650
  164SAPE   C2518435   0.464   2.803   6.639  0.0824 -0.6218 -0.1489
  164SAPE   H5R18436   0.423   2.881   6.704  1.3720  0.3642 -0.4767
  164SAPE   C2618437   0.484   2.683   6.691  0.2704 -0.1825 -0.4061
  164SAPE   H6R18438   0.454   2.654   6.793  1.1281  0.9247  0.1755
  164SAPE   C2718439   0.542   2.564   6.626  0.7158 -0.0234 -0.2496
  164SAPE   H7R18440   0.651   2.575   6.640  1.0290 -0.2772 -2.1663
  164SAPE   H7S18441   0.531   2.566   6.515 -0.9452  1.0562 -0.1005
  164SAPE   C2818442   0.491   2.422   6.653 -0.6685 -0.2093 -0.7269
  164SAPE   H8R18443   0.453   2.367   6.566 -0.6871 -0.7780 -0.3677
  164SAPE   C2918444   0.506   2.366   6.769  0.4089 -0.5899  0.1804
  164SAPE   H9R18445   0.482   2.259   6.773  1.6200 -0.8428  2.2180
  164SAPE  C21018446   0.559   2.434   6.901  0.5755  0.1540 -0.1043
  164SAPE  H10R18447   0.471   2.442   6.968  1.1330  0.0883  0.6409
  164SAPE  H10S18448   0.592   2.540   6.899 -2.2304  1.1180 -1.0315
  164SAPE  C21118449   0.662   2.340   6.962  0.0867 -0.2861 -0.2883
  164SAPE  H11R18450   0.721   2.287   6.886 -0.3072 -1.7893  0.4353
  164SAPE  C21218451   0.680   2.322   7.092  0.5230 -0.6996 -0.0738
  164SAPE  H12R18452   0.771   2.274   7.131  1.1907  1.3269  0.9930
  164SAPE  C21318453   0.619   2.377   7.217  0.4764  0.2067  0.7864
  164SAPE  H13R18454   0.603   2.300   7.295 -0.9976 -1.1229 -0.7563
  164SAPE  H13S18455   0.518   2.413   7.190  1.8333  3.9833  0.0641
  164SAPE  C21418456   0.709   2.497   7.257  0.2353  0.3950 -0.1243
  164SAPE  H14R18457   0.723   2.573   7.180  0.7347  1.5336  1.0590
  164SAPE  C21518458   0.755   2.521   7.375 -0.0224 -0.9570 -0.5278
  164SAPE  H15R18459   0.822   2.607   7.388 -0.0992 -1.0123  0.3074
  164SAPE  C21618460   0.751   2.446   7.507  0.3082  0.2020  0.1544
  164SAPE  H16R18461   0.690   2.360   7.473  1.3722  0.3456 -2.3310
  164SAPE  H16S18462   0.709   2.495   7.598  1.4461 -0.3981  1.0187
  164SAPE  C21718463   0.896   2.422   7.541  0.0055  0.2475 -0.7835
  164SAPE  H17R18464   0.935   2.518   7.582 -0.8664  0.0640  0.5265
  164SAPE  H17S18465   0.959   2.390   7.455 -1.0709  0.0418 -1.5095
  164SAPE  C21818466   0.904   2.322   7.653 -0.3623 -0.4901  0.7899
  164SAPE  H18R18467   0.826   2.245   7.636 -0.8609 -0.6345  3.2834
  164SAPE  H18S18468   0.872   2.365   7.751 -2.9943 -1.4399  0.4245
  164SAPE  C21918469   1.045   2.265   7.653  0.1231  0.3441 -0.1593
  164SAPE  H19R18470   1.118   2.342   7.688 -0.5264  0.6759  0.4804
  164SAPE  H19S18471   1.062   2.231   7.548 -1.4741 -1.3696  0.0847
  164SAPE  C22018472   1.045   2.135   7.736  0.6249  0.0294 -0.1292
  164SAPE  H20R18473   1.145   2.088   7.742  0.9939  0.5009 -1.9014
  164SAPE  H20S18474   0.982   2.063   7.678  0.2905 -0.6593  1.0593
  164SAPE  H20T18475   0.994   2.152   7.833  1.7581 -0.2289  0.5318
  164SAPE   C3318476   0.080   2.652   6.642 -0.3235  0.4022  0.1997
  164SAPE   H3X18477   0.154   2.734   6.630  0.7057 -0.2498  1.8090
  164SAPE   H3Y18478   0.141   2.567   6.603 -1.0768 -0.4571  0.8513
  164SAPE   C3418479   0.031   2.625   6.776 -0.0477 -0.4387 -1.1313
  164SAPE   H4X18480  -0.032   2.534   6.781  0.0403 -0.7563 -3.9139
  164SAPE   H4Y18481  -0.018   2.714   6.820  1.5341 -0.2574  0.3539
  164SAPE   C3518482   0.147   2.620   6.876 -0.7278  0.4417 -0.1121
  164SAPE   H5X18483   0.204   2.716   6.875 -1.1769  0.7187  0.3427
  164SAPE   H5Y18484   0.215   2.541   6.837 -1.7366  0.5720 -2.2794
  164SAPE   C3618485   0.103   2.583   7.018 -0.2957 -0.1941  0.4826
  164SAPE   H6X18486   0.048   2.486   7.020 -0.8821  0.1435  1.5970
  164SAPE   H6Y18487   0.048   2.664   7.070 -0.4101  0.9975 -1.4116
  164SAPE   C3718488   0.212   2.557   7.121 -0.1770 -0.0399 -0.5138
  164SAPE   H7X18489   0.280   2.644   7.125 -1.3095  0.8141  1.4802
  164SAPE   H7Y18490   0.271   2.470   7.086 -0.2406  0.0990 -0.9718
  164SAPE   C3818491   0.162   2.522   7.261  0.7155 -0.4290  0.0573
  164SAPE   H8X18492   0.083   2.446   7.252  0.9411 -0.5198 -1.3350
  164SAPE   H8Y18493   0.119   2.614   7.307 -0.4370 -1.3499  0.8634
  164SAPE   C3918494   0.277   2.484   7.355  0.2316  0.0390 -0.1649
  164SAPE   H9X18495   0.356   2.562   7.351  0.5614 -0.0742  2.2483
  164SAPE   H9Y18496   0.311   2.389   7.310 -0.3052  0.1559 -0.8341
  164SAPE  C31018497   0.219   2.464   7.496  0.2898  0.4661 -0.6628
  164SAPE  H10X18498   0.139   2.389   7.478 -0.1587  0.7498  0.1104
  164SAPE  H10Y18499   0.164   2.551   7.537  0.1255 -1.3555  3.5251
  164SAPE  C31118500   0.310   2.413   7.605  0.4582  0.5139  0.0853
  164SAPE  H11X18501   0.352   2.319   7.565 -1.6440 -0.1406 -0.6903
  164SAPE  H11Y18502   0.250   2.387   7.695  3.0872 -1.8902  1.2938
  164SAPE  C31218503   0.424   2.505   7.655  0.4910  0.0535 -0.3547
  164SAPE  H12X18504   0.472   2.547   7.564 -2.6676  2.8341 -0.9470
  164SAPE  H12Y18505   0.491   2.445   7.720 -2.2296 -0.0566  2.5977
  164SAPE  C31318506   0.376   2.624   7.739  0.1978 -1.3930  0.3061
  164SAPE  H13X18507   0.294   2.677   7.686  0.7128  0.8812  1.6600
  164SAPE  H13Y18508   0.454   2.703   7.740 -2.3157  1.2585 -0.5759
  164SAPE  C31418509   0.350   2.602   7.885  0.7351 -0.4866  0.1636
  164SAPE  H14X18510   0.431   2.538   7.926  0.1388 -0.4651  1.4431
  164SAPE  H14Y18511   0.261   2.537   7.902 -0.7555  1.1940 -0.7956
  164SAPE  C31518512   0.351   2.740   7.962 -0.6073 -0.1234  0.3200
  164SAPE  H15X18513   0.267   2.799   7.919 -0.3634 -1.3820 -2.0959
  164SAPE  H15Y18514   0.447   2.789   7.936 -0.8248  0.3883  0.4684
  164SAPE  C31618515   0.355   2.718   8.117 -0.0382 -0.9493  0.4381
  164SAPE  H16X18516   0.383   2.811   8.171  0.1814  0.3224 -1.7352
  164SAPE  H16Y18517   0.432   2.639   8.126 -1.7531 -2.9252 -1.4085
  164SAPE  C31718518   0.222   2.668   8.184 -0.1640  0.1293  0.0096
  164SAPE  H17X18519   0.162   2.599   8.121  0.8844 -1.8676  1.0915
  164SAPE  H17Y18520   0.161   2.761   8.196  1.4617  1.2317  0.0892
  164SAPE  C31818521   0.246   2.599   8.312  0.4927 -0.1151 -0.6491
  164SAPE  H18X18522   0.140   2.590   8.347  0.2319 -0.8025 -1.6010
  164SAPE  H18Y18523   0.313   2.656   8.380 -0.4382  1.0015 -0.6229
  164SAPE  H18Z18524   0.286   2.499   8.286  0.7008  0.3926 -2.3673
  165SAPE     N18525   5.488   4.057   5.999  0.2262 -0.7621  0.4664
  165SAPE   HN118526   5.436   4.034   6.086  2.3979 -2.3664  1.4210
  165SAPE   HN218527   5.568   4.119   6.025  1.3307 -2.2763  0.8472
  165SAPE   HN318528   5.448   4.111   5.920  1.5135 -2.0266 -1.1220
  165SAPE   C1218529   5.534   3.930   5.942  0.3883  0.3785  0.4316
  165SAPE  H12A18530   5.533   3.938   5.831  0.4960  1.0301  0.4757
  165SAPE  H12B18531   5.458   3.856   5.975  0.6565  0.0935  0.4216
  165SAPE   C1118532   5.673   3.900   5.991 -0.2653 -0.3367  0.2988
  165SAPE  H11A18533   5.716   3.807   5.948 -0.5802 -0.7726  0.9184
  165SAPE  H11B18534   5.664   3.887   6.101  2.1605 -1.2226  0.4653
  165SAPE     P18535   5.914   4.020   5.974  0.2848 -0.1694  0.2310
  165SAPE   O1318536   5.958   3.961   5.847 -0.4028 -0.1143 -0.1898
  165SAPE   O1418537   5.964   4.154   6.003  0.1550  0.0794 -0.1926
  165SAPE   O1218538   5.754   4.016   5.975 -0.1085 -0.3427  0.4499
  165SAPE   O1118539   5.947   3.917   6.092 -0.3001 -0.9093  0.4365
  165SAPE    C118540   5.917   3.946   6.227  0.1343 -0.1514 -0.0024
  165SAPE    HA18541   5.855   4.036   6.241  3.4353  2.0251  2.0966
  165SAPE    HB18542   5.856   3.861   6.266 -0.3230  0.8930  1.6855
  165SAPE    C218543   6.044   3.949   6.318 -0.1291 -0.5244 -0.0162
  165SAPE    HS18544   6.112   3.862   6.307 -1.8538 -1.8751 -0.4796
  165SAPE   O2118545   5.990   3.953   6.456 -0.1380  0.0210  0.2265
  165SAPE   C2118546   5.978   3.834   6.507 -0.0061 -0.0190 -0.5139
  165SAPE   O2218547   5.991   3.728   6.449  0.4186 -0.3521  0.1026
  165SAPE   C2218548   5.940   3.860   6.651 -0.1398 -0.8262 -0.2308
  165SAPE   H2R18549   5.974   3.960   6.682 -2.2146  0.2594 -1.2155
  165SAPE   H2S18550   5.829   3.869   6.655 -0.1898 -0.4223 -1.7573
  165SAPE    C318551   6.130   4.079   6.287  0.5604 -0.5312  0.4943
  165SAPE    HX18552   6.050   4.157   6.291  1.1645  0.5033 -3.5185
  165SAPE    HY18553   6.184   4.063   6.192 -0.6517  1.4631 -0.5985
  165SAPE   O3118554   6.218   4.092   6.402  0.3910 -0.1047  0.1920
  165SAPE   C3118555   6.298   4.203   6.388 -0.3209 -0.1027 -0.1728
  165SAPE   O3218556   6.287   4.285   6.298 -0.5572 -0.5380  0.4743
  165SAPE   C3218557   6.392   4.214   6.510 -0.4899 -0.5935  0.4240
  165SAPE   H2X18558   6.444   4.117   6.520 -2.2105 -1.4741  1.2005
  165SAPE   H2Y18559   6.328   4.214   6.600 -1.0140  0.9023  0.0827
  165SAPE   C2318560   5.992   3.759   6.757  0.0120 -0.9321 -0.1523
  165SAPE   H3R18561   6.087   3.706   6.735 -1.0693 -2.1157 -2.3745
  165SAPE   H3S18562   5.925   3.670   6.759 -0.9985 -0.2043  2.3440
  165SAPE   C2418563   6.028   3.822   6.883  0.1599  0.7048  0.1039
  165SAPE   H4R18564   6.117   3.888   6.878  0.4252  0.2782 -3.2049
  165SAPE   H4S18565   6.065   3.746   6.955 -0.6293  0.1835 -0.0277
  165SAPE   C2518566   5.915   3.899   6.941  0.3928  0.1947  0.4551
  165SAPE   H5R18567   5.867   3.973   6.875 -1.4277 -2.0117 -0.8185
  165SAPE   C2618568   5.873   3.883   7.062  0.1797  0.6863 -1.5327
  165SAPE   H6R18569   5.803   3.950   7.115 -1.1230 -3.0275  1.9492
  165SAPE   C2718570   5.910   3.771   7.164 -0.1954  0.4374 -0.2527
  165SAPE   H7R18571   5.992   3.704   7.129  0.0178 -0.1309  1.2556
  165SAPE   H7S18572   5.819   3.713   7.187  0.8727 -0.0594  3.3215
  165SAPE   C2818573   5.962   3.848   7.284 -0.2752 -0.3285 -0.5656
  165SAPE   H8R18574   6.051   3.909   7.264 -2.0112  2.3231 -0.7927
  165SAPE   C2918575   5.917   3.833   7.411  0.2404 -0.1010 -0.3982
  165SAPE   H9R18576   5.969   3.900   7.481  0.5843  0.2979 -1.0248
  165SAPE  C21018577   5.803   3.748   7.453 -0.0234  0.2036  0.8619
  165SAPE  H10R18578   5.833   3.675   7.531 -1.3574  0.4910  1.6790
  165SAPE  H10S18579   5.758   3.674   7.382  0.9878 -1.9196  2.3266
  165SAPE  C21118580   5.687   3.830   7.504 -0.5700  0.6822 -0.2094
  165SAPE  H11R18581   5.604   3.854   7.436 -0.1038  0.5114 -0.8518
  165SAPE  C21218582   5.684   3.877   7.630 -0.2321 -0.8439 -0.1792
  165SAPE  H12R18583   5.607   3.953   7.652 -2.4759 -3.0572 -0.0074
  165SAPE  C21318584   5.796   3.870   7.729  0.6462  0.6397  0.1578
  165SAPE  H13R18585   5.871   3.791   7.710 -2.4872 -2.6699  0.3251
  165SAPE  H13S18586   5.750   3.844   7.827  2.1903 -0.6410  0.5703
  165SAPE  C21418587   5.861   4.004   7.752  0.2249 -0.0514  0.3896
  165SAPE  H14R18588   5.949   4.023   7.689  0.7760 -1.1738  0.7899
  165SAPE  C21518589   5.829   4.105   7.834 -0.3576  0.2122  0.5247
  165SAPE  H15R18590   5.898   4.191   7.839  0.7124 -0.4204 -1.7884
  165SAPE  C21618591   5.713   4.105   7.925  0.0597 -0.0664 -0.7723
  165SAPE  H16R18592   5.630   4.036   7.896  0.4644 -0.0289 -2.1010
  165SAPE  H16S18593   5.659   4.199   7.902 -2.9292 -1.3215  0.5912
  165SAPE  C21718594   5.767   4.111   8.069  0.9255 -0.1050 -0.0426
  165SAPE  H17R18595   5.686   4.120   8.144  1.5456 -1.5588  0.8360
  165SAPE  H17S18596   5.827   4.205   8.075  1.1812 -0.1158 -1.8488
  165SAPE  C21818597   5.850   3.986   8.110 -0.9560  0.6038 -1.0310
  165SAPE  H18R18598   5.936   3.964   8.044  1.3258 -1.7868  2.3679
  165SAPE  H18S18599   5.775   3.907   8.134 -0.6716  1.4384  3.5798
  165SAPE  C21918600   5.916   4.013   8.242 -0.7194  0.8120  0.5965
  165SAPE  H19R18601   5.912   3.915   8.295 -4.2956 -0.0705 -1.0022
  165SAPE  H19S18602   5.866   4.084   8.311 -1.6414  0.2236  0.5614
  165SAPE  C22018603   6.062   4.060   8.215  0.4930 -0.6062 -0.3773
  165SAPE  H20R18604   6.060   4.125   8.126  0.6293 -0.7024 -0.4521
  165SAPE  H20S18605   6.135   3.978   8.193  1.0052  0.4054 -2.7009
  165SAPE  H20T18606   6.093   4.123   8.301 -0.3751  1.9010 -1.8268
  165SAPE   C3318607   6.491   4.332   6.514  0.0539  0.1107 -0.5123
  165SAPE   H3X18608   6.445   4.433   6.500 -3.4530 -0.9112  2.0233
  165SAPE   H3Y18609   6.559   4.321   6.428  0.2719  1.2503 -0.5024
  165SAPE   C3418610   6.589   4.343   6.632  0.3374 -0.1485  0.1199
  165SAPE   H4X18611   6.666   4.420   6.607  0.2267 -0.3392 -0.8626
  165SAPE   H4Y18612   6.640   4.246   6.648 -2.5952 -1.6585  0.9209
  165SAPE   C3518613   6.520   4.390   6.763  0.3179 -0.0648  1.0716
  165SAPE   H5X18614   6.420   4.343   6.769  0.9740 -2.1853 -2.0270
  165SAPE   H5Y18615   6.495   4.498   6.755  0.1112 -0.2679 -2.9572
  165SAPE   C3618616   6.602   4.371   6.886 -0.2700 -0.4536 -0.5728
  165SAPE   H6X18617   6.701   4.418   6.870  0.1132  0.4211  3.3471
  165SAPE   H6Y18618   6.627   4.264   6.906  0.7154  0.3135  3.0264
  165SAPE   C3718619   6.536   4.431   7.008  0.3372  0.3436  0.1940
  165SAPE   H7X18620   6.439   4.381   7.027  0.3783  0.6133  1.1603
  165SAPE   H7Y18621   6.517   4.539   6.992  1.1753  0.2317 -1.9480
  165SAPE   C3818622   6.623   4.414   7.134  0.3856  0.2558 -0.3144
  165SAPE   H8X18623   6.715   4.476   7.125  0.0647  1.4183  3.0465
  165SAPE   H8Y18624   6.665   4.311   7.141  0.9096  0.5310  1.0224
  165SAPE   C3918625   6.545   4.448   7.266  0.3826 -0.0339  0.9507
  165SAPE   H9X18626   6.484   4.357   7.283  1.1311 -1.6288 -3.6708
  165SAPE   H9Y18627   6.478   4.533   7.243 -0.2575 -1.0835 -1.3525
  165SAPE  C31018628   6.632   4.462   7.388  0.0450 -0.0154  0.4987
  165SAPE  H10X18629   6.689   4.557   7.379 -2.1617  1.2567 -1.3637
  165SAPE  H10Y18630   6.704   4.378   7.394  0.4804  0.4406  1.9344
  165SAPE  C31118631   6.546   4.464   7.518  0.7968 -0.8859 -0.4801
  165SAPE  H11X18632   6.470   4.384   7.509  0.9371 -1.4476  2.3089
  165SAPE  H11Y18633   6.480   4.553   7.511 -3.7167 -3.8053  1.0855
  165SAPE  C31218634   6.627   4.463   7.646  0.0659 -0.3548  0.2293
  165SAPE  H12X18635   6.650   4.358   7.673  1.7079  0.4518  2.2911
  165SAPE  H12Y18636   6.562   4.508   7.724 -1.0913  0.4791 -1.1600
  165SAPE  C31318637   6.760   4.548   7.651 -0.1570  0.3063 -0.0525
  165SAPE  H13X18638   6.737   4.648   7.611  2.1266  1.2161  0.7300
  165SAPE  H13Y18639   6.842   4.513   7.584  0.9964 -0.4573  1.6581
  165SAPE  C31418640   6.811   4.569   7.793 -0.8854 -0.1200 -0.0246
  165SAPE  H14X18641   6.835   4.478   7.853  1.9082  0.6125  0.0859
  165SAPE  H14Y18642   6.730   4.612   7.855  0.0041  0.0220  1.0666
  165SAPE  C31518643   6.933   4.659   7.786  0.5204  0.0445 -0.2217
  165SAPE  H15X18644   6.911   4.741   7.714 -0.1801 -0.4818 -0.6295
  165SAPE  H15Y18645   7.025   4.608   7.752  1.2799  1.6491 -0.7078
  165SAPE  C31618646   6.964   4.720   7.924 -0.2890 -0.4295 -0.1258
  165SAPE  H16X18647   6.879   4.767   7.978  0.0628 -0.0204  0.0744
  165SAPE  H16Y18648   7.040   4.799   7.912 -0.2929 -0.4302 -0.1551
  165SAPE  C31718649   7.021   4.621   8.029 -0.8923  0.3598  0.0637
  165SAPE  H17X18650   7.122   4.589   7.995 -0.8126  0.5840  0.0812
  165SAPE  H17Y18651   6.955   4.532   8.030 -0.2266 -0.1444  0.0406
  165SAPE  C31818652   7.049   4.672   8.177 -0.7356  0.8066  0.3564
  165SAPE  H18X18653   7.060   4.591   8.252 -2.5038  0.3413  0.1482
  165SAPE  H18Y18654   6.963   4.731   8.215 -0.7931  0.4755  0.7393
  165SAPE  H18Z18655   7.143   4.731   8.181  0.1816 -0.6057  0.4856
  166SAPE     N18656   6.552   1.684   6.311  0.2942  0.2016 -0.7351
  166SAPE   HN118657   6.590   1.772   6.352  1.8602  1.3074 -4.1668
  166SAPE   HN218658   6.620   1.609   6.334 -1.6608 -1.5474 -0.3022
  166SAPE   HN318659   6.563   1.708   6.211  0.8430  2.2660 -0.2343
  166SAPE   C1218660   6.408   1.654   6.356 -0.0391 -0.1313  0.1994
  166SAPE  H12A18661   6.416   1.636   6.466 -0.5533 -0.2747  0.2184
  166SAPE  H12B18662   6.382   1.560   6.303  0.9217 -1.5099  2.0494
  166SAPE   C1118663   6.313   1.769   6.308  0.1911 -0.2495 -0.1284
  166SAPE  H11A18664   6.346   1.868   6.348 -0.2777  0.1296 -0.6599
  166SAPE  H11B18665   6.208   1.754   6.341  0.5459 -0.5061  0.9246
  166SAPE     P18666   6.276   1.903   6.084 -0.3698 -0.4081 -0.1080
  166SAPE   O1318667   6.375   2.012   6.097 -0.4067  0.1872  0.1475
  166SAPE   O1418668   6.232   1.865   5.947 -0.3083  0.3170  0.2441
  166SAPE   O1218669   6.323   1.775   6.164 -0.4436  0.4936  0.0721
  166SAPE   O1118670   6.153   1.956   6.149  0.2113 -0.4569  0.0622
  166SAPE    C118671   6.153   2.076   6.230  0.5801  0.3620  0.3531
  166SAPE    HA18672   6.253   2.090   6.277  0.3746 -0.8618  1.2051
  166SAPE    HB18673   6.122   2.160   6.164 -2.0111 -0.3240  0.5627
  166SAPE    C218674   6.052   2.062   6.346 -0.4630  0.0509  0.3185
  166SAPE    HS18675   6.039   2.162   6.393 -0.4421  0.7755 -1.1881
  166SAPE   O2118676   6.100   1.962   6.438  0.0585  0.0302  0.6892
  166SAPE   C2118677   6.166   2.023   6.538 -0.6024  0.9085  0.0206
  166SAPE   O2218678   6.208   2.136   6.536  0.9995 -0.4699 -0.2234
  166SAPE   C2218679   6.202   1.918   6.645  0.6173 -0.0200  0.1471
  166SAPE   H2R18680   6.302   1.874   6.622  1.2367  0.8227  1.1179
  166SAPE   H2S18681   6.218   1.982   6.735  0.4592 -0.8725  0.7937
  166SAPE    C318682   5.923   2.007   6.293  0.8834 -0.6261  0.1629
  166SAPE    HX18683   5.948   1.908   6.250 -0.0050 -0.6128 -0.4169
  166SAPE    HY18684   5.879   2.074   6.217 -1.2930 -1.3037  0.7358
  166SAPE   O3118685   5.827   2.006   6.402 -0.1915 -0.5062 -0.6317
  166SAPE   C3118686   5.731   1.911   6.393 -0.2680 -0.2623 -0.2633
  166SAPE   O3218687   5.717   1.831   6.304  0.5483  0.0933 -0.5711
  166SAPE   C3218688   5.633   1.929   6.508  0.2822  1.4292  0.5080
  166SAPE   H2X18689   5.545   1.861   6.505 -1.4090  3.5120  0.5666
  166SAPE   H2Y18690   5.582   2.027   6.510 -1.7777  0.4309  3.0205
  166SAPE   C2318691   6.099   1.807   6.668  0.5683 -0.6824  0.4267
  166SAPE   H3R18692   6.079   1.745   6.579 -0.6746  1.1594 -0.6524
  166SAPE   H3S18693   6.001   1.858   6.684 -0.1775 -1.9310 -0.0737
  166SAPE   C2418694   6.133   1.725   6.789  0.3982  0.3506  0.0101
  166SAPE   H4R18695   6.119   1.788   6.880 -2.5107 -2.4980  1.7545
  166SAPE   H4S18696   6.232   1.675   6.780  0.4304  0.4976 -0.4764
  166SAPE   C2518697   6.036   1.616   6.817  0.3192  0.0921 -0.3297
  166SAPE   H5R18698   6.006   1.549   6.735 -1.7785  0.9766 -0.3579
  166SAPE   C2618699   5.966   1.593   6.931  0.3485 -0.7097 -0.7176
  166SAPE   H6R18700   5.889   1.515   6.939 -1.2825  0.9841  1.1481
  166SAPE   C2718701   5.970   1.666   7.066  0.0774  0.3684  0.4378
  166SAPE   H7R18702   5.869   1.667   7.112 -1.2164 -3.7576 -1.7291
  166SAPE   H7S18703   5.995   1.773   7.050 -1.7615  0.8366  0.4390
  166SAPE   C2818704   6.067   1.609   7.163  0.8001  0.0687  0.1034
  166SAPE   H8R18705   6.151   1.551   7.121  0.5855 -0.0218 -0.2037
  166SAPE   C2918706   6.053   1.610   7.300 -0.1479  0.3593 -0.8753
  166SAPE   H9R18707   6.140   1.572   7.355  0.4666  2.2219 -0.4795
  166SAPE  C21018708   5.947   1.684   7.389  0.1111  0.4795  0.6730
  166SAPE  H10R18709   5.889   1.605   7.440  0.8133  0.6539  1.7827
  166SAPE  H10S18710   5.880   1.745   7.324 -1.3807 -2.8390 -1.1165
  166SAPE  C21118711   6.020   1.768   7.492 -0.3305  0.5966  0.0955
  166SAPE  H11R18712   6.094   1.841   7.458  2.9483 -1.6558  1.8449
  166SAPE  C21218713   6.012   1.767   7.624  0.3237  0.4421 -0.0251
  166SAPE  H12R18714   6.086   1.825   7.681  0.5925 -0.2394  0.3295
  166SAPE  C21318715   5.936   1.673   7.714 -0.9829 -0.0520 -0.3911
  166SAPE  H13R18716   5.849   1.628   7.661 -1.8440 -0.0100  0.9403
  166SAPE  H13S18717   5.885   1.736   7.789 -2.5036 -0.4055 -1.0921
  166SAPE  C21418718   6.012   1.551   7.758  0.3144 -0.5821 -0.0316
  166SAPE  H14R18719   6.049   1.498   7.669 -0.1171 -2.7761  1.0146
  166SAPE  C21518720   6.013   1.501   7.888  0.0942  0.5029  0.2892
  166SAPE  H15R18721   6.066   1.407   7.907 -0.6693 -0.0125 -0.0876
  166SAPE  C21618722   5.959   1.567   8.019  0.0392 -0.0415  0.5372
  166SAPE  H16R18723   5.858   1.524   8.035 -0.8957  1.0244 -1.9751
  166SAPE  H16S18724   5.942   1.677   8.009 -2.2388 -0.4884 -1.5787
  166SAPE  C21718725   6.051   1.552   8.139 -0.5178  0.1629 -0.4673
  166SAPE  H17R18726   6.005   1.623   8.211  1.4988  1.3114 -0.2319
  166SAPE  H17S18727   6.155   1.587   8.120 -1.3293  1.6928 -2.4254
  166SAPE  C21818728   6.067   1.413   8.195 -0.3202  0.1974  0.6533
  166SAPE  H18R18729   6.118   1.348   8.120  0.0159 -0.4715  1.4387
  166SAPE  H18S18730   5.966   1.374   8.220 -0.1218 -0.5445  0.3253
  166SAPE  C21918731   6.148   1.402   8.324 -0.0741 -0.4400  0.2952
  166SAPE  H19R18732   6.249   1.442   8.300  0.0093 -0.0332  1.3083
  166SAPE  H19S18733   6.158   1.292   8.334  1.5405 -0.7912 -3.3642
  166SAPE  C22018734   6.092   1.474   8.447  1.0223  0.5685  1.0004
  166SAPE  H20R18735   6.091   1.584   8.434  0.0170  0.5489  0.8537
  166SAPE  H20S18736   6.153   1.467   8.540  0.2636 -0.5067  1.4323
  166SAPE  H20T18737   5.987   1.446   8.468  0.7533  0.0762 -0.8330
  166SAPE   C3318738   5.700   1.900   6.644 -0.2124 -1.1696 -0.3375
  166SAPE   H3X18739   5.787   1.968   6.652 -0.0903 -1.5183  2.4652
  166SAPE   H3Y18740   5.739   1.797   6.651  1.8368 -0.3980  0.2280
  166SAPE   C3418741   5.597   1.915   6.755 -0.6495 -0.1236 -0.6627
  166SAPE   H4X18742   5.507   1.857   6.726 -0.4547 -0.4495 -0.6312
  166SAPE   H4Y18743   5.564   2.020   6.762 -0.1592 -0.0090  0.0679
  166SAPE   C3518744   5.650   1.875   6.889 -0.2552 -0.0257  0.1185
  166SAPE   H5X18745   5.733   1.947   6.903 -0.1849  0.1131 -0.8875
  166SAPE   H5Y18746   5.690   1.772   6.893  1.9426  0.6872 -1.4464
  166SAPE   C3618747   5.555   1.904   7.008  0.4897 -0.5440  0.2613
  166SAPE   H6X18748   5.448   1.877   6.995 -0.1892  2.5640 -1.7028
  166SAPE   H6Y18749   5.563   2.013   7.027  2.3220 -0.3598 -1.1710
  166SAPE   C3718750   5.594   1.831   7.132  0.6076  0.4170 -0.3065
  166SAPE   H7X18751   5.699   1.858   7.156  0.4791  0.5046  0.1643
  166SAPE   H7Y18752   5.589   1.720   7.128  0.8780  0.4141 -0.5809
  166SAPE   C3818753   5.500   1.867   7.251 -0.3351 -0.2341 -0.0817
  166SAPE   H8X18754   5.397   1.831   7.229 -0.1209 -0.6519 -0.4118
  166SAPE   H8Y18755   5.498   1.976   7.273  1.8777  0.0550 -1.0622
  166SAPE   C3918756   5.548   1.796   7.374 -0.1405  0.3643  0.8207
  166SAPE   H9X18757   5.650   1.835   7.393  0.8731 -1.5448 -0.2803
  166SAPE   H9Y18758   5.548   1.687   7.353  0.9629  0.6009 -0.5888
  166SAPE  C31018759   5.467   1.818   7.503 -0.1800  0.0742  0.2411
  166SAPE  H10X18760   5.359   1.795   7.490 -0.1085 -1.2412  1.6167
  166SAPE  H10Y18761   5.478   1.923   7.537  0.7754 -0.1468  0.6737
  166SAPE  C31118762   5.528   1.736   7.618 -0.8684 -0.2811 -0.2628
  166SAPE  H11X18763   5.639   1.735   7.607 -0.8441  4.1878 -2.6413
  166SAPE  H11Y18764   5.490   1.632   7.609 -2.4877  0.2434  0.1143
  166SAPE  C31218765   5.502   1.792   7.759 -0.0029 -0.0514  0.0067
  166SAPE  H12X18766   5.393   1.784   7.782  0.0633 -1.0369 -0.0080
  166SAPE  H12Y18767   5.516   1.902   7.764 -1.3519  0.0967  1.7792
  166SAPE  C31318768   5.581   1.716   7.875 -0.0623 -0.5477  0.1042
  166SAPE  H13X18769   5.685   1.753   7.878 -0.1706 -0.1795 -0.3824
  166SAPE  H13Y18770   5.578   1.608   7.851  0.3971 -1.0127  2.0424
  166SAPE  C31418771   5.511   1.737   8.010 -0.2078 -0.5693  0.2979
  166SAPE  H14X18772   5.409   1.692   8.017 -0.9710  0.8134 -1.3858
  166SAPE  H14Y18773   5.497   1.847   8.020 -0.1001 -0.3188 -1.8171
  166SAPE  C31518774   5.581   1.679   8.137 -0.1933  0.2098 -0.3396
  166SAPE  H15X18775   5.685   1.717   8.135 -0.8217  2.1537  1.1156
  166SAPE  H15Y18776   5.579   1.568   8.137 -3.2614  0.1496  0.8429
  166SAPE  C31618777   5.511   1.714   8.269  0.5983  0.8091  0.1540
  166SAPE  H16X18778   5.481   1.820   8.272  0.7724  0.9461 -1.7231
  166SAPE  H16Y18779   5.587   1.700   8.348  0.1768 -0.1654  0.4031
  166SAPE  C31718780   5.390   1.621   8.300 -1.1907  0.7123  0.3756
  166SAPE  H17X18781   5.431   1.518   8.309  0.3610  1.4576  2.5594
  166SAPE  H17Y18782   5.316   1.623   8.216 -0.4378 -3.0904 -0.5881
  166SAPE  C31818783   5.323   1.647   8.431 -0.0317 -0.5346  0.5805
  166SAPE  H18X18784   5.288   1.753   8.430  0.1465 -0.4568 -1.4207
  166SAPE  H18Y18785   5.399   1.631   8.511 -1.2503 -1.4873  1.5765
  166SAPE  H18Z18786   5.230   1.588   8.440 -0.9643  0.8090  0.1566
  167SAPE     N18787   6.259   1.128   5.959 -0.1194 -0.2253  0.7091
  167SAPE   HN118788   6.174   1.167   5.914 -2.2465 -3.5047  1.4827
  167SAPE   HN218789   6.290   1.197   6.031 -2.7993  0.4968  1.3125
  167SAPE   HN318790   6.337   1.101   5.896 -0.3979 -0.7757  0.5915
  167SAPE   C1218791   6.217   1.001   6.023  0.6032 -0.7532 -0.3253
  167SAPE  H12A18792   6.189   0.928   5.944 -2.8104 -0.0823  0.1180
  167SAPE  H12B18793   6.128   1.027   6.085  1.3218  1.0450 -0.0054
  167SAPE   C1118794   6.333   0.935   6.105 -0.0534 -0.7159 -0.0266
  167SAPE  H11A18795   6.407   0.893   6.033 -0.0806 -1.1757  0.2106
  167SAPE  H11B18796   6.296   0.851   6.167 -2.0189  1.5426  2.0796
  167SAPE     P18797   6.326   1.076   6.328  0.5168  0.0696  0.4248
  167SAPE   O1318798   6.365   1.212   6.354  0.2760  0.0412  0.1302
  167SAPE   O1418799   6.181   1.053   6.318 -0.2376  0.6093 -0.1851
  167SAPE   O1218800   6.397   1.021   6.199  0.0211  0.0842  0.4866
  167SAPE   O1118801   6.380   0.984   6.437 -0.3247  0.2267  0.6884
  167SAPE    C118802   6.506   0.986   6.496 -0.2323  0.4956 -0.0685
  167SAPE    HA18803   6.559   1.079   6.465  0.5370  0.3695  0.8292
  167SAPE    HB18804   6.487   0.999   6.604 -0.5742  3.3356 -0.4085
  167SAPE    C218805   6.576   0.853   6.475 -0.3913 -0.7459  0.0587
  167SAPE    HS18806   6.551   0.809   6.376  3.5257  0.5218 -1.7446
  167SAPE   O2118807   6.538   0.762   6.575 -0.6419  0.4655  0.3782
  167SAPE   C2118808   6.419   0.695   6.560  0.3519 -0.3526 -0.7427
  167SAPE   O2218809   6.352   0.696   6.459  0.6082  0.2632 -0.2329
  167SAPE   C2218810   6.384   0.635   6.698 -0.1183  0.3125 -0.5933
  167SAPE   H2R18811   6.337   0.535   6.691 -0.2761  0.0752  2.4464
  167SAPE   H2S18812   6.482   0.615   6.746 -0.3022  1.0872  0.1291
  167SAPE    C318813   6.734   0.862   6.483 -0.1669 -0.2403  0.1909
  167SAPE    HX18814   6.749   0.919   6.389  0.5778  1.5237  1.3141
  167SAPE    HY18815   6.780   0.762   6.471  0.5535  0.2315 -1.3055
  167SAPE   O3118816   6.776   0.932   6.597  0.6235 -0.1685  0.1925
  167SAPE   C3118817   6.855   0.875   6.688 -0.3164  0.0319 -0.1681
  167SAPE   O3218818   6.892   0.762   6.690  0.1478  0.1753  0.0183
  167SAPE   C3218819   6.890   0.982   6.795 -0.1529  0.5440  0.2424
  167SAPE   H2X18820   6.881   1.086   6.756 -1.5048  0.5212  0.4572
  167SAPE   H2Y18821   6.994   0.963   6.827  0.0529  2.5622  0.9459
  167SAPE   C2318822   6.296   0.732   6.788  0.0939  0.2767  0.6777
  167SAPE   H3R18823   6.204   0.762   6.733 -1.0625  0.5343  2.6311
  167SAPE   H3S18824   6.358   0.823   6.801 -1.0937  1.6192 -2.1107
  167SAPE   C2418825   6.266   0.681   6.930 -0.1068  1.0959  0.0226
  167SAPE   H4R18826   6.259   0.773   6.992 -2.1284 -0.0206  1.5804
  167SAPE   H4S18827   6.347   0.612   6.963 -1.6871 -1.2173 -0.6656
  167SAPE   C2518828   6.136   0.606   6.931  0.3957 -0.3224 -0.1643
  167SAPE   H5R18829   6.135   0.523   6.858  0.6154  1.1730 -1.9339
  167SAPE   C2618830   6.041   0.612   7.023  0.1154 -0.9325 -0.7937
  167SAPE   H6R18831   5.965   0.534   7.033 -0.1255 -0.4772  1.5140
  167SAPE   C2718832   6.032   0.710   7.140  0.1038 -0.3441 -0.0912
  167SAPE   H7R18833   6.010   0.810   7.098 -3.7477 -0.6765  0.7644
  167SAPE   H7S18834   6.132   0.702   7.189 -0.4526 -1.1396  0.9492
  167SAPE   C2818835   5.924   0.671   7.240  0.4871 -0.3363 -0.3337
  167SAPE   H8R18836   5.825   0.646   7.198  0.3548  0.4677 -0.5240
  167SAPE   C2918837   5.915   0.680   7.376 -0.9551 -0.4284 -0.0165
  167SAPE   H9R18838   5.817   0.661   7.421  0.1324 -2.2794  1.7836
  167SAPE  C21018839   6.025   0.700   7.480 -0.2297 -0.6543 -0.4051
  167SAPE  H10R18840   6.108   0.761   7.438 -0.6040  0.3771  0.3096
  167SAPE  H10S18841   6.076   0.607   7.511 -0.8220 -0.9977 -0.4407
  167SAPE  C21118842   5.973   0.774   7.603  0.3405 -0.5041  0.3186
  167SAPE  H11R18843   5.903   0.854   7.574  1.4387 -0.2312 -1.7302
  167SAPE  C21218844   6.008   0.748   7.727  0.1776 -0.3420  0.1362
  167SAPE  H12R18845   5.962   0.793   7.816  2.2565 -1.1158  1.7076
  167SAPE  C21318846   6.113   0.643   7.766  0.3851 -0.1136 -1.1256
  167SAPE  H13R18847   6.199   0.685   7.823  0.7646  0.2164 -1.9215
  167SAPE  H13S18848   6.169   0.582   7.692  2.6869  0.2100  0.2590
  167SAPE  C21418849   6.041   0.549   7.853  0.5663  0.1704  0.1384
  167SAPE  H14R18850   6.002   0.461   7.798  0.2433  1.0503 -1.0790
  167SAPE  C21518851   6.018   0.555   7.986  0.9974 -0.2865  0.5731
  167SAPE  H15R18852   5.935   0.492   8.023 -2.8252  2.8059 -1.9279
  167SAPE  C21618853   6.084   0.656   8.074 -0.2824 -1.1802 -0.2921
  167SAPE  H16R18854   6.103   0.747   8.015  1.3691 -0.0523  1.8375
  167SAPE  H16S18855   6.181   0.619   8.115  0.6505  0.3571 -1.0325
  167SAPE  C21718856   6.007   0.688   8.208  0.1816 -0.2952  0.5217
  167SAPE  H17R18857   5.901   0.705   8.178  0.4816  0.7038 -0.0163
  167SAPE  H17S18858   6.034   0.785   8.256  0.1408  0.1540 -0.3382
  167SAPE  C21818859   5.989   0.583   8.314 -0.0312  0.4390 -0.1030
  167SAPE  H18R18860   6.088   0.559   8.360  1.6981  3.1631 -2.0629
  167SAPE  H18S18861   5.969   0.493   8.253  1.7595  0.1080 -0.2523
  167SAPE  C21918862   5.882   0.608   8.421 -0.0847  0.0140  0.2658
  167SAPE  H19R18863   5.786   0.619   8.366 -1.0039  2.1003  2.1363
  167SAPE  H19S18864   5.908   0.704   8.471  4.0404 -0.5567 -0.3927
  167SAPE  C22018865   5.864   0.500   8.531 -0.9472  0.5054  0.3531
  167SAPE  H20R18866   5.809   0.551   8.613  1.9453  3.1095  0.9000
  167SAPE  H20S18867   5.967   0.476   8.565 -0.2523  2.6927 -0.0137
  167SAPE  H20T18868   5.818   0.404   8.501 -0.1995 -0.5406  2.3557
  167SAPE   C3318869   6.805   0.975   6.919  0.0955 -0.2682  0.0876
  167SAPE   H3X18870   6.845   0.878   6.957  2.0325  0.4243 -0.1069
  167SAPE   H3Y18871   6.698   0.960   6.893  0.9395 -0.9079 -3.4518
  167SAPE   C3418872   6.834   1.083   7.023  0.3363 -1.0748 -0.7891
  167SAPE   H4X18873   6.797   1.175   6.972  0.1566  1.6089  3.6803
  167SAPE   H4Y18874   6.942   1.101   7.043 -0.3901  1.3757  1.4927
  167SAPE   C3518875   6.765   1.066   7.165 -0.6587  0.1819 -0.2524
  167SAPE   H5X18876   6.815   0.979   7.214 -2.3381  0.3976  1.9659
  167SAPE   H5Y18877   6.656   1.048   7.155 -0.9759  0.6624  1.8989
  167SAPE   C3618878   6.801   1.178   7.255  0.2511  0.5405 -0.6907
  167SAPE   H6X18879   6.757   1.275   7.225 -2.1405 -0.6996 -1.4974
  167SAPE   H6Y18880   6.912   1.188   7.257  0.3857 -0.7354 -0.6457
  167SAPE   C3718881   6.757   1.164   7.395 -0.0484  1.0687  0.2779
  167SAPE   H7X18882   6.815   1.079   7.437 -0.5551  1.1872  1.2212
  167SAPE   H7Y18883   6.649   1.140   7.399  0.4105 -1.3172 -0.2520
  167SAPE   C3818884   6.793   1.289   7.474 -0.5630 -0.0055  0.2825
  167SAPE   H8X18885   6.745   1.379   7.431 -1.0532 -0.7423 -0.7749
  167SAPE   H8Y18886   6.902   1.306   7.475 -0.3801 -1.0225 -0.5904
  167SAPE   C3918887   6.756   1.289   7.618  0.6584 -0.1845 -0.9016
  167SAPE   H9X18888   6.646   1.287   7.635  0.9376 -0.9136  0.9867
  167SAPE   H9Y18889   6.781   1.388   7.662 -2.3581  0.4554 -0.3793
  167SAPE  C31018890   6.801   1.179   7.704  0.5447  0.0336 -0.4076
  167SAPE  H10X18891   6.908   1.157   7.684  0.0969 -1.7575 -0.9299
  167SAPE  H10Y18892   6.746   1.086   7.682 -0.4137  0.8812 -1.7560
  167SAPE  C31118893   6.796   1.211   7.856  0.4849 -0.3728 -0.8268
  167SAPE  H11X18894   6.688   1.213   7.882  0.1279  1.9699 -2.1643
  167SAPE  H11Y18895   6.823   1.315   7.882 -0.8910 -0.7312  2.5912
  167SAPE  C31218896   6.866   1.116   7.954 -0.3270  0.4493 -0.2080
  167SAPE  H12X18897   6.976   1.111   7.940  0.1042  0.4887  2.5442
  167SAPE  H12Y18898   6.822   1.014   7.940 -1.0628  0.4483  1.6831
  167SAPE  C31318899   6.844   1.164   8.102  1.3731 -0.4122  0.0279
  167SAPE  H13X18900   6.737   1.180   8.129  1.6106 -0.8185  1.2601
  167SAPE  H13Y18901   6.888   1.263   8.125 -0.7408  1.0447 -1.7334
  167SAPE  C31418902   6.893   1.070   8.206 -0.2909 -0.1125  0.1890
  167SAPE  H14X18903   7.002   1.057   8.189  0.1598  0.8286  2.1705
  167SAPE  H14Y18904   6.842   0.972   8.192 -1.0500  0.4776 -1.5759
  167SAPE  C31518905   6.861   1.105   8.346  0.1577 -0.2976 -0.2133
  167SAPE  H15X18906   6.872   1.025   8.422 -0.8982 -0.9258 -0.6957
  167SAPE  H15Y18907   6.751   1.121   8.352  0.0476 -1.2615  0.7011
  167SAPE  C31618908   6.930   1.234   8.389 -0.0299 -0.6449 -0.3581
  167SAPE  H16X18909   6.882   1.311   8.325 -0.3412  2.4620  3.2255
  167SAPE  H16Y18910   7.040   1.231   8.382  0.0974  1.3264  0.1706
  167SAPE  C31718911   6.884   1.281   8.526 -0.7841 -0.7938 -0.3020
  167SAPE  H17X18912   6.773   1.279   8.540 -1.0830 -3.9815 -2.0639
  167SAPE  H17Y18913   6.912   1.388   8.536 -0.1872 -0.9216 -0.5711
  167SAPE  C31818914   6.957   1.212   8.638 -0.5204 -0.0731  0.6558
  167SAPE  H18X18915   7.067   1.213   8.625 -0.7388  2.5032 -2.0238
  167SAPE  H18Y18916   6.922   1.107   8.640 -4.8771  1.2034  1.3244
  167SAPE  H18Z18917   6.943   1.258   8.738  0.9252 -1.2201  1.4260
  168SAPE     N18918   3.105   1.691   6.159  0.3205 -0.0229  0.2761
  168SAPE   HN118919   3.163   1.640   6.089  0.6299 -2.1142  1.9659
  168SAPE   HN218920   3.011   1.723   6.128 -0.1983 -0.7080  1.1120
  168SAPE   HN318921   3.159   1.776   6.186  0.7454 -0.2698  0.2009
  168SAPE   C1218922   3.069   1.603   6.282 -0.0472  0.0328 -0.2440
  168SAPE  H12A18923   3.009   1.674   6.343 -1.7519  0.0183 -1.8375
  168SAPE  H12B18924   3.165   1.577   6.332 -0.9972 -1.2125  0.9976
  168SAPE   C1118925   2.982   1.483   6.238 -0.3529  0.4424 -0.0684
  168SAPE  H11A18926   2.942   1.423   6.323 -1.0329  2.4195  1.0596
  168SAPE  H11B18927   3.037   1.411   6.174 -3.5612 -1.6650 -0.6770
  168SAPE     P18928   2.726   1.531   6.203 -0.1474 -0.0547  0.1028
  168SAPE   O1318929   2.660   1.648   6.142 -0.0653 -1.0273 -0.3289
  168SAPE   O1418930   2.660   1.403   6.181  0.5646  0.4041  0.1560
  168SAPE   O1218931   2.873   1.521   6.160 -0.2808  0.7339  0.2430
  168SAPE   O1118932   2.734   1.555   6.353 -0.1455 -0.1744 -0.0031
  168SAPE    C118933   2.691   1.451   6.448 -0.7038 -0.1504  0.6097
  168SAPE    HA18934   2.715   1.349   6.411 -0.8890 -0.0620  0.2388
  168SAPE    HB18935   2.743   1.463   6.546 -1.8064 -0.6887  1.2765
  168SAPE    C218936   2.541   1.456   6.482 -0.1818 -0.7033 -0.4964
  168SAPE    HS18937   2.465   1.442   6.401 -1.2929  2.4645 -0.1365
  168SAPE   O2118938   2.518   1.584   6.541 -0.0137  0.2123  0.1573
  168SAPE   C2118939   2.393   1.623   6.542 -0.1970  0.1210 -0.7293
  168SAPE   O2218940   2.301   1.569   6.482 -0.1330 -0.4360 -0.5390
  168SAPE   C2218941   2.390   1.754   6.613 -0.0245 -0.9558 -0.0514
  168SAPE   H2R18942   2.472   1.769   6.687 -0.6942  0.3390  0.4518
  168SAPE   H2S18943   2.391   1.838   6.541 -1.7979  1.2978  2.3286
  168SAPE    C318944   2.514   1.336   6.588 -0.2364  0.7656 -0.2420
  168SAPE    HX18945   2.576   1.350   6.678  1.9958 -0.1451 -1.5571
  168SAPE    HY18946   2.552   1.247   6.532 -1.2631  0.9876 -1.3246
  168SAPE   O3118947   2.369   1.321   6.612 -0.1472 -0.3090  0.0257
  168SAPE   C3118948   2.302   1.235   6.541 -0.7228  0.0163  0.1014
  168SAPE   O3218949   2.339   1.143   6.471 -0.1750  0.1466 -0.0010
  168SAPE   C3218950   2.149   1.258   6.564  0.3915 -0.1232  0.1252
  168SAPE   H2X18951   2.092   1.248   6.470 -1.6015 -1.8604  1.4241
  168SAPE   H2Y18952   2.139   1.365   6.592 -0.0066  0.2920 -1.5157
  168SAPE   C2318953   2.255   1.770   6.694  0.3202 -0.2194  0.6056
  168SAPE   H3R18954   2.171   1.723   6.639  0.8912 -0.7874  0.2088
  168SAPE   H3S18955   2.226   1.878   6.698 -0.7021 -0.4946  0.8790
  168SAPE   C2418956   2.260   1.713   6.836 -0.1139 -0.4307 -1.0781
  168SAPE   H4R18957   2.159   1.738   6.874  0.3198  2.5074 -1.5946
  168SAPE   H4S18958   2.332   1.777   6.890 -1.3757  0.0444  0.0965
  168SAPE   C2518959   2.289   1.569   6.860  0.1390 -0.2091 -0.4353
  168SAPE   H5R18960   2.287   1.505   6.771  0.1171 -0.7965 -0.0190
  168SAPE   C2618961   2.327   1.518   6.983  0.0245 -0.2593  0.3263
  168SAPE   H6R18962   2.329   1.408   6.977 -1.4603 -0.3012  0.2615
  168SAPE   C2718963   2.335   1.590   7.116  0.2993  0.0892 -1.0236
  168SAPE   H7R18964   2.298   1.694   7.107  4.3173  1.8833  0.8024
  168SAPE   H7S18965   2.442   1.592   7.144  0.2632  0.5019 -0.9061
  168SAPE   C2818966   2.250   1.527   7.223  0.6643  0.2465  0.7670
  168SAPE   H8R18967   2.152   1.492   7.187  1.0862 -0.3815  0.2117
  168SAPE   C2918968   2.283   1.495   7.353 -0.3433 -0.2223 -0.9606
  168SAPE   H9R18969   2.203   1.459   7.421 -0.8991  1.7994 -0.4917
  168SAPE  C21018970   2.416   1.516   7.410 -0.1110  0.4275  0.3185
  168SAPE  H10R18971   2.441   1.624   7.415  1.2618  0.1308  0.4102
  168SAPE  H10S18972   2.495   1.480   7.340  2.8938 -1.0104  4.0520
  168SAPE  C21118973   2.440   1.454   7.541  0.6031 -0.7384 -0.0151
  168SAPE  H11R18974   2.496   1.360   7.550  0.1512 -1.1584 -1.4172
  168SAPE  C21218975   2.408   1.515   7.654  0.2579  0.2649  0.3283
  168SAPE  H12R18976   2.427   1.455   7.744  0.7982  1.2564  0.8845
  168SAPE  C21318977   2.349   1.648   7.672 -0.1118 -0.7534 -0.1828
  168SAPE  H13R18978   2.281   1.653   7.760 -1.0903  0.4796 -0.9785
  168SAPE  H13S18979   2.286   1.687   7.589 -0.3251 -0.3217  0.1784
  168SAPE  C21418980   2.455   1.752   7.713 -0.2870 -0.9153  0.1258
  168SAPE  H14R18981   2.476   1.822   7.631  3.0019 -2.6985 -0.7573
  168SAPE  C21518982   2.529   1.755   7.822  0.2473  1.0030 -0.4377
  168SAPE  H15R18983   2.607   1.830   7.840 -0.9904  1.6237  3.1801
  168SAPE  C21618984   2.517   1.660   7.937 -0.2295  0.3568  0.3164
  168SAPE  H16R18985   2.414   1.618   7.942  0.1210 -0.6210 -0.3830
  168SAPE  H16S18986   2.532   1.722   8.027 -2.5840  1.0108  0.3416
  168SAPE  C21718987   2.609   1.536   7.932  0.0491  0.3888 -0.1314
  168SAPE  H17R18988   2.711   1.579   7.926  0.2583 -0.2526 -1.3957
  168SAPE  H17S18989   2.588   1.453   7.861  0.5499 -0.9871  1.2445
  168SAPE  C21818990   2.616   1.461   8.067 -0.0959  0.0310  0.4229
  168SAPE  H18R18991   2.610   1.542   8.143  0.2575 -0.8831  1.4368
  168SAPE  H18S18992   2.708   1.399   8.080 -1.3709 -2.0491 -0.0803
  168SAPE  C21918993   2.501   1.367   8.092  0.2940  0.5384  0.1955
  168SAPE  H19R18994   2.493   1.292   8.010  1.8648 -0.0950  0.5871
  168SAPE  H19S18995   2.407   1.426   8.080  0.6931  0.7425 -2.6814
  168SAPE  C22018996   2.523   1.307   8.234 -0.0814  0.4485  0.0841
  168SAPE  H20R18997   2.420   1.274   8.263  0.1804 -0.2782  0.2142
  168SAPE  H20S18998   2.566   1.393   8.290 -0.9304  0.5015  0.6744
  168SAPE  H20T18999   2.596   1.223   8.234 -2.3405 -1.6376  0.8240
  168SAPE   C3319000   2.103   1.166   6.674 -0.6001  0.7262  0.8552
  168SAPE   H3X19001   2.129   1.062   6.645 -0.0259  1.5283 -1.7876
  168SAPE   H3Y19002   1.992   1.162   6.667 -0.4893 -1.5716 -0.5604
  168SAPE   C3419003   2.146   1.205   6.818  0.8846  0.1450  0.0101
  168SAPE   H4X19004   2.118   1.312   6.834 -1.6942 -0.4805  0.1229
  168SAPE   H4Y19005   2.255   1.192   6.831  1.0391  0.2535 -1.0730
  168SAPE   C3519006   2.075   1.117   6.927 -0.5815  0.0205  0.1216
  168SAPE   H5X19007   2.097   1.011   6.901  1.2827  0.6091 -0.9377
  168SAPE   H5Y19008   1.964   1.123   6.931 -0.6716 -1.5019  2.8053
  168SAPE   C3619009   2.121   1.145   7.079 -0.4317  0.4769  0.2084
  168SAPE   H6X19010   2.139   1.255   7.081 -0.6182  0.6027 -2.0283
  168SAPE   H6Y19011   2.217   1.091   7.095 -0.6877  0.1028  0.5022
  168SAPE   C3719012   2.017   1.112   7.192 -0.7002 -0.1716  0.3822
  168SAPE   H7X19013   2.016   1.001   7.200  0.1969 -0.4593 -2.5821
  168SAPE   H7Y19014   1.921   1.156   7.157  0.0615  1.3826  0.1557
  168SAPE   C3819015   2.053   1.178   7.329 -0.1550 -1.0542 -0.2759
  168SAPE   H8X19016   2.065   1.288   7.320  1.8193 -1.1357  0.8051
  168SAPE   H8Y19017   2.159   1.144   7.331  1.1651  2.3817 -2.7641
  168SAPE   C3919018   1.967   1.125   7.448 -0.0680 -0.4193  0.3348
  168SAPE   H9X19019   1.968   1.015   7.431 -1.5722 -0.5187  0.7335
  168SAPE   H9Y19020   1.859   1.151   7.442 -0.5712 -2.5519 -0.6295
  168SAPE  C31019021   2.034   1.151   7.579 -0.2037  0.7427 -0.2014
  168SAPE  H10X19022   2.074   1.254   7.573  0.5991  0.4416 -0.0706
  168SAPE  H10Y19023   2.134   1.104   7.587  0.6641  2.4354 -0.5619
  168SAPE  C31119024   1.954   1.131   7.703 -0.1583 -0.1865  0.1438
  168SAPE  H11X19025   1.920   1.026   7.692  0.9157 -0.3036 -3.1037
  168SAPE  H11Y19026   1.864   1.196   7.700  0.9851  1.4368 -0.7559
  168SAPE  C31219027   2.021   1.163   7.833  0.7845 -0.0304  0.3321
  168SAPE  H12X19028   2.061   1.267   7.834 -0.5150  0.4988 -0.3620
  168SAPE  H12Y19029   2.106   1.090   7.833  0.9982  0.1876 -0.8167
  168SAPE  C31319030   1.924   1.139   7.941  0.0568  0.7217  0.1504
  168SAPE  H13X19031   1.868   1.045   7.921 -0.6376  1.5279 -2.0207
  168SAPE  H13Y19032   1.852   1.224   7.940 -1.1853 -0.2941  0.7330
  168SAPE  C31419033   1.995   1.120   8.078 -0.2453 -0.2563 -0.0767
  168SAPE  H14X19034   2.073   1.198   8.090 -0.3406 -0.0661 -0.6732
  168SAPE  H14Y19035   2.047   1.022   8.075 -2.5499 -1.5091 -1.5537
  168SAPE  C31519036   1.895   1.123   8.196  0.0390 -0.0007  0.3413
  168SAPE  H15X19037   1.928   1.060   8.282 -2.8644 -0.3148  1.3143
  168SAPE  H15Y19038   1.802   1.073   8.162 -1.6189  0.3798  3.9323
  168SAPE  C31619039   1.855   1.266   8.242 -0.7836  0.2470  0.0522
  168SAPE  H16X19040   1.826   1.323   8.151  0.2173 -0.5501 -0.7955
  168SAPE  H16Y19041   1.939   1.316   8.296  0.7858 -2.2573  0.0951
  168SAPE  C31719042   1.729   1.270   8.331  0.3680 -0.7095  0.0058
  168SAPE  H17X19043   1.745   1.233   8.434  1.9200  1.1393  0.4885
  168SAPE  H17Y19044   1.644   1.219   8.281 -0.0828  0.1910 -0.1763
  168SAPE  C31819045   1.674   1.414   8.364  0.2162  0.3979  0.3005
  168SAPE  H18X19046   1.757   1.462   8.421  1.4969 -1.3055 -0.0496
  168SAPE  H18Y19047   1.580   1.418   8.424  1.2525  1.2914  1.9409
  168SAPE  H18Z19048   1.672   1.470   8.268  2.0227 -2.2279 -1.4159
  169SAPE     N19049   0.524   6.066   5.958 -0.6695 -0.0146  0.0515
  169SAPE   HN119050   0.609   6.086   5.901  1.0463 -0.5969  2.2884
  169SAPE   HN219051   0.492   5.967   5.951  1.3995 -0.6762 -0.6679
  169SAPE   HN319052   0.455   6.129   5.913  0.9527  1.0374 -1.0569
  169SAPE   C1219053   0.540   6.119   6.099 -0.3246  0.6211 -0.4111
  169SAPE  H12A19054   0.515   6.227   6.103  1.6426  1.1888 -1.7795
  169SAPE  H12B19055   0.641   6.090   6.137 -0.6929 -1.0515 -0.6519
  169SAPE   C1119056   0.445   6.032   6.191 -0.0850  0.6338 -0.1084
  169SAPE  H11A19057   0.458   6.061   6.297  0.4990  0.5281 -0.1464
  169SAPE  H11B19058   0.477   5.925   6.190 -2.2702 -0.0859  1.0073
  169SAPE     P19059   0.200   6.135   6.209 -0.1640 -0.0619  0.0738
  169SAPE   O1319060   0.265   6.269   6.218 -0.3679 -0.1519  0.0983
  169SAPE   O1419061   0.071   6.125   6.146  0.0329  0.5036  0.5108
  169SAPE   O1219062   0.305   6.031   6.147  0.6623 -0.2238 -0.2188
  169SAPE   O1119063   0.200   6.088   6.354  0.7584 -0.3712  0.0701
  169SAPE    C119064   0.138   5.966   6.387 -1.0687 -0.1334  0.9798
  169SAPE    HA19065   0.029   5.957   6.367 -0.8614  0.8306 -0.7301
  169SAPE    HB19066   0.170   5.877   6.330 -3.0153  0.7131 -1.6242
  169SAPE    C219067   0.171   5.934   6.525 -1.2447 -0.2379  0.0927
  169SAPE    HS19068   0.139   5.830   6.546  2.4444 -1.3522  1.0493
  169SAPE   O2119069   0.130   6.038   6.617  0.5195  0.4570  0.1121
  169SAPE   C2119070  -0.002   6.031   6.634  0.2395  0.3072 -0.5840
  169SAPE   O2219071  -0.073   5.937   6.605 -0.0702  0.1478 -0.2784
  169SAPE   C2219072  -0.059   6.152   6.706 -0.6161  0.5162  1.1099
  169SAPE   H2R19073  -0.093   6.222   6.627 -1.7106 -0.2452  0.8920
  169SAPE   H2S19074  -0.138   6.115   6.775  1.0554 -1.3651  2.1168
  169SAPE    C319075   0.327   5.919   6.546 -0.3761 -0.8167 -0.1479
  169SAPE    HX19076   0.390   6.004   6.512  1.6747 -1.7708  1.0390
  169SAPE    HY19077   0.353   5.833   6.480  1.5547 -0.4013 -0.0105
  169SAPE   O3119078   0.361   5.878   6.680  0.3217 -0.7037  0.1348
  169SAPE   C3119079   0.386   5.975   6.771 -0.2716  0.3227  0.3749
  169SAPE   O3219080   0.378   6.096   6.748  0.0394 -0.0490  0.3059
  169SAPE   C3219081   0.450   5.914   6.896 -0.2616 -0.5409  0.2131
  169SAPE   H2X19082   0.528   5.847   6.854 -0.4842  0.2737 -1.6033
  169SAPE   H2Y19083   0.373   5.850   6.945  0.0897 -0.6900  0.5702
  169SAPE   C2319084   0.044   6.225   6.801  0.5028 -0.2066 -0.1592
  169SAPE   H3R19085   0.131   6.262   6.743  1.9047 -0.0334  1.9322
  169SAPE   H3S19086   0.085   6.154   6.876 -0.6484 -1.2770 -0.5110
  169SAPE   C2419087  -0.035   6.333   6.877 -0.3030  0.2696 -0.1308
  169SAPE   H4R19088   0.023   6.380   6.958  1.3083  1.3325 -1.8178
  169SAPE   H4S19089  -0.120   6.287   6.931  0.7661 -1.4608  0.1599
  169SAPE   C2519090  -0.079   6.437   6.779  0.3737  0.2249  0.4021
  169SAPE   H5R19091  -0.003   6.512   6.752 -0.1498  0.6991  0.2433
  169SAPE   C2619092  -0.208   6.468   6.742  0.1095  0.5058  0.1137
  169SAPE   H6R19093  -0.221   6.549   6.669  1.4257  1.4604  0.8880
  169SAPE   C2719094  -0.329   6.376   6.766  0.1957 -0.0360  0.8247
  169SAPE   H7R19095  -0.321   6.320   6.862 -3.4900 -1.5581  0.4205
  169SAPE   H7S19096  -0.334   6.289   6.696  0.2542 -0.5632  1.4629
  169SAPE   C2819097  -0.463   6.439   6.763  0.2771  0.4605  0.5849
  169SAPE   H8R19098  -0.499   6.438   6.659 -0.4195 -0.8469  0.8191
  169SAPE   C2919099  -0.548   6.465   6.865  0.7037  0.2447 -0.9016
  169SAPE   H9R19100  -0.650   6.506   6.854 -0.0340 -1.5482 -1.1587
  169SAPE  C21019101  -0.510   6.452   7.012 -0.3602 -0.5441  0.6958
  169SAPE  H10R19102  -0.501   6.550   7.065 -0.4596 -0.8511  1.2877
  169SAPE  H10S19103  -0.410   6.403   7.013  0.7908  1.5212 -1.3105
  169SAPE  C21119104  -0.622   6.382   7.080  0.7618 -0.5979 -0.5697
  169SAPE  H11R19105  -0.671   6.307   7.016  1.4806 -0.9834 -0.6757
  169SAPE  C21219106  -0.661   6.399   7.207  0.2191  0.4593 -0.2731
  169SAPE  H12R19107  -0.744   6.344   7.256 -0.7853 -0.1489 -2.5442
  169SAPE  C21319108  -0.591   6.494   7.302 -0.1081  0.6147  0.0668
  169SAPE  H13R19109  -0.561   6.584   7.244 -1.7364  0.6931 -0.7223
  169SAPE  H13S19110  -0.500   6.444   7.342  0.0010  0.8113  0.0632
  169SAPE  C21419111  -0.680   6.552   7.411 -0.3327  0.0499  0.6218
  169SAPE  H14R19112  -0.782   6.570   7.375 -0.0463 -1.3876 -1.0063
  169SAPE  C21519113  -0.651   6.582   7.540  0.2646  0.2275 -0.4327
  169SAPE  H15R19114  -0.733   6.624   7.599 -1.0332 -1.5497 -0.8605
  169SAPE  C21619115  -0.527   6.562   7.625  0.8727 -0.3999  0.6728
  169SAPE  H16R19116  -0.534   6.627   7.715 -0.2490  0.2096  0.1524
  169SAPE  H16S19117  -0.440   6.594   7.564 -0.2408 -1.9602 -1.8909
  169SAPE  C21719118  -0.507   6.416   7.673 -0.6893  0.3789  0.0513
  169SAPE  H17R19119  -0.511   6.350   7.584 -2.9895 -2.3816  2.0228
  169SAPE  H17S19120  -0.593   6.393   7.740 -0.9515 -2.9082 -1.2094
  169SAPE  C21819121  -0.367   6.385   7.728  0.1545  0.0170  0.2432
  169SAPE  H18R19122  -0.343   6.484   7.772 -1.4020  0.7732 -0.5252
  169SAPE  H18S19123  -0.290   6.367   7.650 -0.4183  0.8604 -0.5403
  169SAPE  C21919124  -0.378   6.263   7.826 -0.0737  0.5186  0.3285
  169SAPE  H19R19125  -0.379   6.178   7.755 -2.1992  0.3426  0.4831
  169SAPE  H19S19126  -0.481   6.253   7.867 -0.3583  0.5597 -0.3643
  169SAPE  C22019127  -0.272   6.260   7.937  0.1013  0.5323  0.4387
  169SAPE  H20R19128  -0.281   6.175   8.008  2.0564 -0.1112 -0.0031
  169SAPE  H20S19129  -0.283   6.348   8.003  0.3231  1.1361 -0.3152
  169SAPE  H20T19130  -0.172   6.254   7.888 -0.1795  1.2187 -0.2429
  169SAPE   C3319131   0.514   6.018   6.984  0.4296 -0.3005 -0.8088
  169SAPE   H3X19132   0.430   6.078   7.027  0.1106 -0.3940 -1.2943
  169SAPE   H3Y19133   0.588   6.078   6.926 -0.1330 -0.8563 -2.1367
  169SAPE   C3419134   0.592   5.950   7.094  0.5847 -0.3291 -0.4336
  169SAPE   H4X19135   0.658   5.874   7.047  0.5420 -2.0448  2.0959
  169SAPE   H4Y19136   0.523   5.892   7.159  1.9182 -0.7646  0.6382
  169SAPE   C3519137   0.668   6.037   7.180 -0.1285  0.0070  0.3327
  169SAPE   H5X19138   0.598   6.108   7.229 -1.0077 -1.3159  1.0804
  169SAPE   H5Y19139   0.744   6.098   7.127 -0.4636  1.3956  1.3945
  169SAPE   C3619140   0.727   5.947   7.288 -0.2353  0.2976  0.0171
  169SAPE   H6X19141   0.800   5.874   7.248  2.4202  1.6483  2.0371
  169SAPE   H6Y19142   0.642   5.887   7.327  0.4849  0.2144  1.5386
  169SAPE   C3719143   0.791   6.030   7.396 -0.0389 -0.4043 -0.9736
  169SAPE   H7X19144   0.724   6.110   7.435  0.9063 -0.2480  0.3943
  169SAPE   H7Y19145   0.878   6.084   7.354  2.8278 -2.2871  2.1024
  169SAPE   C3819146   0.824   5.949   7.516 -0.7057 -0.1180 -0.0016
  169SAPE   H8X19147   0.891   5.865   7.487  0.1548  0.3177  0.6976
  169SAPE   H8Y19148   0.730   5.914   7.564 -1.6420  1.8902 -0.2860
  169SAPE   C3919149   0.910   6.018   7.619 -0.0997  0.1010  1.0734
  169SAPE   H9X19150   0.844   6.100   7.655 -0.1231  2.5040 -3.6260
  169SAPE   H9Y19151   0.996   6.064   7.566 -0.1955 -0.2325  0.6317
  169SAPE  C31019152   0.970   5.926   7.723  0.0444 -0.1717  0.1866
  169SAPE  H10X19153   1.029   5.980   7.800  0.5634 -2.3149  1.3631
  169SAPE  H10Y19154   1.042   5.866   7.664 -0.8405 -2.1819  1.0515
  169SAPE  C31119155   0.865   5.843   7.798  0.9418 -0.3660  0.5501
  169SAPE  H11X19156   0.928   5.768   7.851  1.9322 -0.3828 -0.6028
  169SAPE  H11Y19157   0.795   5.787   7.732  0.0857  0.3333  0.8491
  169SAPE  C31219158   0.795   5.925   7.905  0.0585  0.1659 -0.9441
  169SAPE  H12X19159   0.737   6.004   7.853  0.6877  0.6316 -0.9470
  169SAPE  H12Y19160   0.863   5.988   7.967 -1.1857  0.6623 -0.0479
  169SAPE  C31319161   0.708   5.837   7.999  0.1616  0.4420 -0.2837
  169SAPE  H13X19162   0.645   5.773   7.933  1.3189 -1.3882  0.2947
  169SAPE  H13Y19163   0.637   5.907   8.048  0.4129  0.7524 -0.3630
  169SAPE  C31419164   0.788   5.758   8.099  0.4723  0.0565  0.4175
  169SAPE  H14X19165   0.874   5.826   8.114  0.7817  0.1259 -1.3830
  169SAPE  H14Y19166   0.830   5.663   8.059  0.0003  0.2813 -0.6579
  169SAPE  C31519167   0.721   5.746   8.241 -0.0001 -0.6223  0.2316
  169SAPE  H15X19168   0.624   5.692   8.242 -0.7074  0.6197  0.1581
  169SAPE  H15Y19169   0.699   5.850   8.270  1.8696  0.1136 -0.7618
  169SAPE  C31619170   0.813   5.681   8.344  0.2877 -0.0390 -0.8903
  169SAPE  H16X19171   0.914   5.727   8.347  0.9387 -1.3191  2.6111
  169SAPE  H16Y19172   0.821   5.574   8.313  0.8419  0.0233 -0.9725
  169SAPE  C31719173   0.760   5.677   8.491 -0.5319 -0.1865 -0.2629
  169SAPE  H17X19174   0.665   5.618   8.492 -0.8463  0.3148  0.3026
  169SAPE  H17Y19175   0.738   5.780   8.527  1.0757  0.3339 -0.7027
  169SAPE  C31819176   0.867   5.605   8.575  0.7639  0.4389  0.5805
  169SAPE  H18X19177   0.950   5.678   8.579  1.9128 -0.5622 -2.3947
  169SAPE  H18Y19178   0.895   5.510   8.524 -2.7155 -0.9309  0.9379
  169SAPE  H18Z19179   0.825   5.578   8.675  0.9476 -2.0461  0.0457
  170SAPE     N19180   1.621   0.314   6.053  0.0390  0.5777  0.2988
  170SAPE   HN119181   1.722   0.321   6.076  0.2570  0.9490 -0.7125
  170SAPE   HN219182   1.606   0.308   5.950 -2.1895  3.4709  0.3514
  170SAPE   HN319183   1.570   0.402   6.075 -1.6831 -0.2311 -0.2917
  170SAPE   C1219184   1.539   0.203   6.105  0.1083  0.3524  0.5902
  170SAPE  H12A19185   1.512   0.236   6.208 -2.4109  2.1543 -0.5194
  170SAPE  H12B19186   1.601   0.112   6.097  0.0717  0.3737  0.0145
  170SAPE   C1119187   1.414   0.197   6.019 -0.2916 -0.2657  0.2181
  170SAPE  H11A19188   1.350   0.121   6.068  0.1652 -0.7426  0.0746
  170SAPE  H11B19189   1.437   0.159   5.918 -1.0969 -1.1964  0.3690
  170SAPE     P19190   1.207   0.348   5.946  0.4051 -0.1327  0.0305
  170SAPE   O1319191   1.240   0.437   5.832 -0.0814 -0.8283  0.2395
  170SAPE   O1419192   1.137   0.221   5.910 -0.0576 -0.1382 -0.1280
  170SAPE   O1219193   1.345   0.322   6.022  0.2269 -0.0234 -0.3600
  170SAPE   O1119194   1.115   0.423   6.052 -0.0792  0.2798 -0.4981
  170SAPE    C119195   1.146   0.547   6.119  0.4699 -0.1419  0.1689
  170SAPE    HA19196   1.182   0.617   6.040 -0.8222 -0.5670 -0.8199
  170SAPE    HB19197   1.055   0.601   6.152  0.4853  0.7318 -1.1515
  170SAPE    C219198   1.226   0.523   6.249  0.1000  0.0476 -0.5813
  170SAPE    HS19199   1.324   0.493   6.207 -0.4586 -2.2427 -0.3934
  170SAPE   O2119200   1.165   0.413   6.325 -0.5209 -0.3354  0.3663
  170SAPE   C2119201   1.257   0.330   6.376  0.3778  0.5193  0.3576
  170SAPE   O2219202   1.378   0.348   6.384 -0.1782 -0.3997  0.5319
  170SAPE   C2219203   1.188   0.201   6.426  0.0592 -0.2943 -0.2827
  170SAPE   H2R19204   1.110   0.250   6.489 -0.6772  0.6799 -1.8992
  170SAPE   H2S19205   1.148   0.154   6.334  2.4365 -0.5225 -1.2774
  170SAPE    C319206   1.259   0.645   6.334 -0.3479  0.7969 -0.2541
  170SAPE    HX19207   1.301   0.722   6.265 -3.1721  4.0934  1.3918
  170SAPE    HY19208   1.328   0.620   6.417 -0.3243 -0.1179 -0.5403
  170SAPE   O3119209   1.143   0.706   6.386  0.2941 -0.1488 -0.2258
  170SAPE   C3119210   1.110   0.663   6.516  0.1173 -0.1609  0.0834
  170SAPE   O3219211   1.145   0.562   6.570  0.3446  0.8429  0.5398
  170SAPE   C3219212   1.038   0.775   6.593  0.4608  0.3291  0.2976
  170SAPE   H2X19213   0.971   0.722   6.665 -2.1011  1.8648 -0.7967
  170SAPE   H2Y19214   0.969   0.831   6.525 -1.3651  0.1115  1.8743
  170SAPE   C2319215   1.268   0.101   6.501  0.3725 -0.1994 -0.6004
  170SAPE   H3R19216   1.337   0.040   6.440 -1.0750 -1.0434 -1.4643
  170SAPE   H3S19217   1.197   0.026   6.542  0.6015  0.4539  1.0638
  170SAPE   C2419218   1.335   0.161   6.634 -0.7065  0.1644  0.6396
  170SAPE   H4R19219   1.423   0.221   6.602 -0.3059  0.9496  2.9751
  170SAPE   H4S19220   1.364   0.069   6.690 -2.8439 -2.1697 -1.7840
  170SAPE   C2519221   1.251   0.243   6.720 -0.0747 -0.1153 -0.0521
  170SAPE   H5R19222   1.263   0.352   6.705 -1.5191  0.1723  0.7157
  170SAPE   C2619223   1.163   0.198   6.821 -0.0581  0.2650  1.0187
  170SAPE   H6R19224   1.105   0.270   6.881 -3.1522 -0.5110 -0.8047
  170SAPE   C2719225   1.147   0.052   6.867  0.5037  0.2322 -0.6413
  170SAPE   H7R19226   1.163   0.045   6.977  0.3682 -1.5987 -0.7204
  170SAPE   H7S19227   1.234  -0.002   6.825  0.4330 -0.7632  0.4443
  170SAPE   C2819228   1.017  -0.017   6.838  0.1810 -0.6829 -0.1871
  170SAPE   H8R19229   1.014  -0.056   6.735  0.2022 -1.5134  0.1157
  170SAPE   C2919230   0.912  -0.027   6.924  0.7233  0.6109 -0.3071
  170SAPE   H9R19231   0.818  -0.064   6.881  1.0508  0.3805 -0.8398
  170SAPE  C21019232   0.900   0.023   7.066  0.7772  0.3334 -0.3698
  170SAPE  H10R19233   0.867   0.129   7.071  0.1036  0.0815  0.8450
  170SAPE  H10S19234   1.003   0.027   7.108  0.9500  2.1320 -0.8823
  170SAPE  C21119235   0.808  -0.049   7.158 -0.6583  0.6116 -0.1659
  170SAPE  H11R19236   0.756  -0.135   7.114  1.3482 -1.4700  1.2735
  170SAPE  C21219237   0.811  -0.040   7.295 -0.5623 -0.1004  0.4313
  170SAPE  H12R19238   0.738  -0.092   7.359 -1.0262 -0.9494 -0.7461
  170SAPE  C21319239   0.869   0.078   7.379  0.4548  0.4893  0.4018
  170SAPE  H13R19240   0.782   0.146   7.392  1.0496  1.2360  0.5617
  170SAPE  H13S19241   0.943   0.133   7.317  0.6253 -0.3609 -0.1621
  170SAPE  C21419242   0.920   0.037   7.515 -0.0970 -0.5146 -0.4026
  170SAPE  H14R19243   0.992  -0.045   7.521 -0.5987 -1.0058 -1.0785
  170SAPE  C21519244   0.880   0.086   7.639 -0.6128 -0.4256  0.2557
  170SAPE  H15R19245   0.925   0.048   7.731 -0.7595  2.4632  1.6362
  170SAPE  C21619246   0.766   0.183   7.650  0.5547  0.3529 -0.1744
  170SAPE  H16R19247   0.674   0.135   7.610 -0.4683  3.0148 -1.2373
  170SAPE  H16S19248   0.792   0.274   7.591  0.6289  1.2828  1.2598
  170SAPE  C21719249   0.731   0.224   7.795  0.2877 -0.1790  0.1872
  170SAPE  H17R19250   0.715   0.126   7.846  0.2122 -2.1819 -3.3351
  170SAPE  H17S19251   0.638   0.285   7.791  0.4834  0.0789 -0.6101
  170SAPE  C21819252   0.835   0.302   7.878  0.5523  0.5952  0.1511
  170SAPE  H18R19253   0.851   0.406   7.841 -0.7379  0.9360  0.4717
  170SAPE  H18S19254   0.935   0.256   7.864  0.8895  0.9876  1.1978
  170SAPE  C21919255   0.809   0.322   8.028 -0.3625 -0.2408  0.1230
  170SAPE  H19R19256   0.706   0.329   8.068 -0.3968  0.4992 -0.0795
  170SAPE  H19S19257   0.862   0.414   8.059 -1.0740  0.6704 -1.2684
  170SAPE  C22019258   0.887   0.222   8.105  0.3993 -0.0027 -0.3985
  170SAPE  H20R19259   0.994   0.216   8.074 -0.1098  0.6803 -2.4550
  170SAPE  H20S19260   0.832   0.126   8.092 -0.6328  0.3505  1.1459
  170SAPE  H20T19261   0.882   0.256   8.210 -1.5670 -3.4918  0.8257
  170SAPE   C3319262   1.141   0.863   6.663 -0.2590  0.4153 -0.4013
  170SAPE   H3X19263   1.197   0.927   6.591  0.0144 -0.9162 -1.4029
  170SAPE   H3Y19264   1.212   0.792   6.710 -0.2651 -0.2008 -1.3011
  170SAPE   C3419265   1.083   0.944   6.782  0.0979 -0.1443 -0.7263
  170SAPE   H4X19266   0.973   0.936   6.776  0.1549 -0.6926 -1.1299
  170SAPE   H4Y19267   1.103   1.054   6.787  0.4981 -0.2182 -0.6276
  170SAPE   C3519268   1.120   0.886   6.919  0.2204 -0.0552  0.0771
  170SAPE   H5X19269   1.227   0.858   6.927  0.6730  1.7997  1.1861
  170SAPE   H5Y19270   1.056   0.795   6.916  0.8951 -0.5215 -0.6129
  170SAPE   C3619271   1.062   0.973   7.040  0.3278 -0.0987 -0.3675
  170SAPE   H6X19272   0.958   1.004   7.017  0.0359 -0.8744 -0.1054
  170SAPE   H6Y19273   1.108   1.071   7.067 -2.2485  1.0291  0.2569
  170SAPE   C3719274   1.076   0.889   7.166  0.5325  0.1744  0.0645
  170SAPE   H7X19275   1.181   0.879   7.198  0.3754 -1.3884  0.1541
  170SAPE   H7Y19276   1.049   0.786   7.133  2.4245  0.0982 -1.4500
  170SAPE   C3819277   1.005   0.952   7.286  0.2179  0.6012 -0.2595
  170SAPE   H8X19278   0.898   0.933   7.264  0.2362 -0.8783  0.7809
  170SAPE   H8Y19279   1.021   1.062   7.286 -0.2767  0.6812  0.5886
  170SAPE   C3919280   1.049   0.899   7.426 -0.5061  0.1398 -0.2946
  170SAPE   H9X19281   1.150   0.942   7.441 -0.7850  0.6308  0.1873
  170SAPE   H9Y19282   1.044   0.789   7.446  1.2350  0.3869  1.7808
  170SAPE  C31019283   0.974   0.975   7.537 -0.5972 -0.0855  0.0346
  170SAPE  H10X19284   0.866   0.951   7.535 -1.0091  1.4605  1.4987
  170SAPE  H10Y19285   0.984   1.083   7.514  0.8806  0.3573  2.3907
  170SAPE  C31119286   1.032   0.955   7.677 -0.1967  0.6237 -0.7230
  170SAPE  H11X19287   1.136   0.994   7.689  0.6806 -1.9008  0.8086
  170SAPE  H11Y19288   1.012   0.850   7.707  0.2877  0.7577  0.1183
  170SAPE  C31219289   0.942   1.030   7.778 -0.5059  0.2784  0.0661
  170SAPE  H12X19290   0.832   1.012   7.769 -0.6200 -1.6672  3.6205
  170SAPE  H12Y19291   0.961   1.136   7.752 -0.7590  0.3427  0.1374
  170SAPE  C31319292   0.977   1.000   7.923  0.5582  0.5286 -0.5653
  170SAPE  H13X19293   1.086   1.003   7.944  0.9195 -0.8630 -2.0425
  170SAPE  H13Y19294   0.933   0.900   7.942 -0.5490  0.7512 -1.7988
  170SAPE  C31419295   0.916   1.112   8.006 -0.1643 -0.8294  0.3681
  170SAPE  H14X19296   0.807   1.097   7.994  0.2442 -3.0923 -1.2971
  170SAPE  H14Y19297   0.938   1.210   7.958  2.3289 -1.0059  1.0296
  170SAPE  C31519298   0.935   1.113   8.158 -0.4792 -0.2430  0.2150
  170SAPE  H15X19299   0.901   1.207   8.206  0.3437 -0.6427  1.6412
  170SAPE  H15Y19300   1.045   1.096   8.162  0.0370  0.9482 -4.0867
  170SAPE  C31619301   0.860   0.995   8.225 -0.9178 -0.5129 -0.5639
  170SAPE  H16X19302   0.908   0.897   8.208  0.9022  0.4479 -1.3002
  170SAPE  H16Y19303   0.753   1.000   8.196 -0.8251  2.3921 -0.7847
  170SAPE  C31719304   0.868   1.014   8.378 -0.2102  1.3181  0.2744
  170SAPE  H17X19305   0.828   1.114   8.405  1.7929  1.9141  1.1955
  170SAPE  H17Y19306   0.974   1.018   8.411 -0.0509 -0.9363  0.2387
  170SAPE  C31819307   0.788   0.908   8.460  0.5177  1.0279 -0.6774
  170SAPE  H18X19308   0.839   0.810   8.448  0.2346  0.6161  1.2097
  170SAPE  H18Y19309   0.680   0.888   8.444 -0.0615  1.9187  1.6978
  170SAPE  H18Z19310   0.796   0.930   8.568 -0.7305  0.2724 -0.4102
  171SAPE     N19311   2.186   2.969   6.040  0.7491  0.1052  0.4584
  171SAPE   HN119312   2.227   2.965   6.135 -0.7494  3.9866  1.4213
  171SAPE   HN219313   2.120   3.049   6.035 -1.2347 -1.1960  3.0554
  171SAPE   HN319314   2.134   2.882   6.015 -0.0839  1.2600 -2.1833
  171SAPE   C1219315   2.291   2.991   5.935  0.1866  0.1066 -0.1989
  171SAPE  H12A19316   2.242   3.047   5.853 -0.8820 -0.2839  0.1538
  171SAPE  H12B19317   2.321   2.895   5.889 -0.3928 -0.1159 -0.1172
  171SAPE   C1119318   2.410   3.070   5.995 -0.0601 -0.3201 -1.0192
  171SAPE  H11A19319   2.482   3.094   5.914  1.3606  0.2391  0.3543
  171SAPE  H11B19320   2.478   3.006   6.055  1.9616  0.7672 -2.0535
  171SAPE     P19321   2.432   3.238   6.187  0.3342  0.3841  0.1197
  171SAPE   O1319322   2.573   3.250   6.159 -0.2151 -0.0381 -0.7764
  171SAPE   O1419323   2.355   3.359   6.225 -0.4736 -0.3721  0.2928
  171SAPE   O1219324   2.362   3.193   6.052  0.3336 -0.3384  0.2365
  171SAPE   O1119325   2.405   3.119   6.290  0.3536  0.2385 -0.3985
  171SAPE    C119326   2.337   3.118   6.416 -0.6491 -0.5158  0.1425
  171SAPE    HA19327   2.264   3.201   6.428  1.4922  1.3742  0.7858
  171SAPE    HB19328   2.273   3.027   6.417 -0.3071 -0.7631 -0.3003
  171SAPE    C219329   2.429   3.118   6.538 -0.0567  0.0268  1.5517
  171SAPE    HS19330   2.467   3.221   6.556 -0.6858  0.9785 -1.8602
  171SAPE   O2119331   2.532   3.018   6.523 -0.3476 -0.1530 -0.4548
  171SAPE   C2119332   2.640   3.062   6.459  0.8807  0.2776  0.0928
  171SAPE   O2219333   2.662   3.178   6.432  0.5219 -0.5276 -0.1003
  171SAPE   C2219334   2.744   2.954   6.452 -0.4321 -0.5363  0.0575
  171SAPE   H2R19335   2.684   2.862   6.435  1.3013 -1.8122  0.5176
  171SAPE   H2S19336   2.811   2.977   6.366 -1.2234  3.0104  0.2474
  171SAPE    C319337   2.346   3.088   6.669  0.1746  0.0835  0.0028
  171SAPE    HX19338   2.411   3.069   6.758 -0.7964 -4.4686 -0.0224
  171SAPE    HY19339   2.309   2.986   6.647 -2.3088  0.9152  0.1037
  171SAPE   O3119340   2.219   3.158   6.694 -0.3385 -0.4392 -0.3602
  171SAPE   C3119341   2.224   3.285   6.706  0.4144 -0.5601 -0.0040
  171SAPE   O3219342   2.327   3.353   6.702 -0.0945 -0.5150  0.0882
  171SAPE   C3219343   2.083   3.345   6.728 -0.5915  0.6980 -0.9026
  171SAPE   H2X19344   2.020   3.314   6.641  4.4386 -2.1158 -4.0236
  171SAPE   H2Y19345   2.086   3.456   6.726  2.1259  0.6910 -0.4285
  171SAPE   C2319346   2.834   2.946   6.579 -0.2586 -0.0841  0.0289
  171SAPE   H3R19347   2.921   2.882   6.554 -0.4721 -0.9230  1.3286
  171SAPE   H3S19348   2.783   2.892   6.662  1.0488 -0.4687  0.6143
  171SAPE   C2419349   2.907   3.074   6.627  0.0165 -0.6487 -0.2040
  171SAPE   H4R19350   2.830   3.149   6.658 -0.2551 -1.5556  1.4351
  171SAPE   H4S19351   2.952   3.115   6.534 -0.3034  0.0805 -0.0513
  171SAPE   C2519352   3.019   3.051   6.724 -0.0005  0.0505  0.8928
  171SAPE   H5R19353   3.111   3.011   6.678 -0.7776  0.3445 -1.0346
  171SAPE   C2619354   3.024   3.084   6.851 -0.3285  0.6307 -0.1095
  171SAPE   H6R19355   3.120   3.060   6.900  0.2964 -0.1705 -1.6465
  171SAPE   C2719356   2.931   3.159   6.935 -0.8940  0.1148  0.0102
  171SAPE   H7R19357   2.973   3.171   7.038 -1.2344  0.1964  0.1422
  171SAPE   H7S19358   2.833   3.109   6.945 -1.0246  0.4211  0.3205
  171SAPE   C2819359   2.894   3.291   6.881  0.8281  0.3379  0.1388
  171SAPE   H8R19360   2.963   3.341   6.811  1.9216 -0.6861  0.4787
  171SAPE   C2919361   2.804   3.368   6.940 -0.5317 -0.2417  0.1309
  171SAPE   H9R19362   2.797   3.469   6.897 -0.1137 -0.3596 -0.2287
  171SAPE  C21019363   2.711   3.335   7.052  0.5044  0.0288  0.7831
  171SAPE  H10R19364   2.757   3.358   7.151 -0.5537 -0.1969  1.3487
  171SAPE  H10S19365   2.687   3.227   7.053  0.3087  0.0561 -0.4137
  171SAPE  C21119366   2.578   3.400   7.035 -0.0632  0.1993  0.8498
  171SAPE  H11R19367   2.560   3.419   6.929  0.2779  1.0423  0.9387
  171SAPE  C21219368   2.513   3.464   7.138 -0.9106  0.2288 -0.1431
  171SAPE  H12R19369   2.414   3.510   7.120 -0.5772  0.8460 -0.4280
  171SAPE  C21319370   2.554   3.457   7.287 -0.5460  0.3349 -0.3537
  171SAPE  H13R19371   2.663   3.448   7.303 -0.9009 -0.5074  2.0259
  171SAPE  H13S19372   2.521   3.358   7.324 -0.8286  0.5320 -0.0664
  171SAPE  C21419373   2.493   3.567   7.378 -0.9569 -0.1315 -0.0969
  171SAPE  H14R19374   2.439   3.640   7.316 -0.0143  0.2111 -0.5431
  171SAPE  C21519375   2.502   3.582   7.516  0.4834  0.5355  0.4100
  171SAPE  H15R19376   2.455   3.675   7.551  0.2736  1.3231 -1.7629
  171SAPE  C21619377   2.577   3.487   7.610 -0.1305  0.6375  0.1517
  171SAPE  H16R19378   2.619   3.556   7.686 -1.3681  1.8875 -0.2553
  171SAPE  H16S19379   2.652   3.429   7.551 -0.5562 -2.5552  2.4508
  171SAPE  C21719380   2.494   3.376   7.668 -1.3463 -0.7637  0.2430
  171SAPE  H17R19381   2.459   3.324   7.577 -2.1467  0.2679 -0.0605
  171SAPE  H17S19382   2.409   3.424   7.724  0.7360  2.2801  1.0731
  171SAPE  C21819383   2.562   3.268   7.756  0.9324 -0.6902  0.5222
  171SAPE  H18R19384   2.651   3.234   7.699  0.0310  1.9122 -2.7560
  171SAPE  H18S19385   2.500   3.176   7.762  1.1595 -0.9457 -0.7392
  171SAPE  C21919386   2.597   3.320   7.900 -0.1614  0.8803 -0.6435
  171SAPE  H19R19387   2.687   3.385   7.896 -0.4219  1.2136 -1.2470
  171SAPE  H19S19388   2.624   3.228   7.956  0.4198  0.5848 -1.3878
  171SAPE  C22019389   2.496   3.411   7.969 -0.1779  0.8402 -0.1702
  171SAPE  H20R19390   2.532   3.434   8.072  2.5436 -1.3513 -0.4982
  171SAPE  H20S19391   2.395   3.366   7.969 -0.2051  0.8458 -1.9401
  171SAPE  H20T19392   2.502   3.505   7.910  0.2397  1.4070  0.7380
  171SAPE   C3319393   2.019   3.297   6.858  0.7115 -0.4118  0.2617
  171SAPE   H3X19394   2.010   3.186   6.852 -0.7537 -0.3725  1.2080
  171SAPE   H3Y19395   1.914   3.329   6.876  1.6473  2.8354  0.5773
  171SAPE   C3419396   2.106   3.337   6.981  0.2694 -0.0711  0.4882
  171SAPE   H4X19397   2.149   3.437   6.962  0.2945 -0.4825 -1.9532
  171SAPE   H4Y19398   2.194   3.269   6.976 -0.3496 -0.9770  1.4859
  171SAPE   C3519399   2.024   3.319   7.106  0.0220  0.3336 -0.0774
  171SAPE   H5X19400   1.986   3.215   7.113 -3.8560  1.5810 -0.3674
  171SAPE   H5Y19401   1.935   3.386   7.109 -0.9567 -0.9544  0.0837
  171SAPE   C3619402   2.110   3.360   7.231 -0.2391  0.4050 -0.3361
  171SAPE   H6X19403   2.156   3.459   7.213  1.8047 -0.0561  1.8231
  171SAPE   H6Y19404   2.191   3.285   7.245 -0.2962 -0.0895 -2.4289
  171SAPE   C3719405   2.028   3.352   7.364 -0.6638  0.4634  0.1828
  171SAPE   H7X19406   1.962   3.264   7.377  1.3981 -1.4716 -1.7052
  171SAPE   H7Y19407   1.967   3.445   7.364 -1.4457  0.0138 -2.5721
  171SAPE   C3819408   2.126   3.364   7.480 -0.2701 -0.3738  0.4400
  171SAPE   H8X19409   2.176   3.462   7.468 -1.6098  0.3544  0.5886
  171SAPE   H8Y19410   2.206   3.288   7.470 -0.7082 -0.7391 -0.3726
  171SAPE   C3919411   2.041   3.349   7.615 -0.0737 -0.1054 -0.3233
  171SAPE   H9X19412   1.989   3.252   7.606 -1.2492  0.5123 -0.4102
  171SAPE   H9Y19413   1.959   3.423   7.625  0.2388 -0.0023  2.0404
  171SAPE  C31019414   2.122   3.353   7.750  0.3146 -0.1538  0.0705
  171SAPE  H10X19415   2.178   3.448   7.757 -0.0139 -0.0200  1.1306
  171SAPE  H10Y19416   2.208   3.282   7.746  0.3571 -0.1134  0.2380
  171SAPE  C31119417   2.028   3.347   7.867  0.5527 -0.0140  0.2465
  171SAPE  H11X19418   1.971   3.252   7.858  1.0443 -0.2657 -0.2768
  171SAPE  H11Y19419   1.952   3.424   7.840 -0.5386 -1.6919 -1.7443
  171SAPE  C31219420   2.093   3.360   8.007 -0.3504  0.0194 -0.2036
  171SAPE  H12X19421   2.184   3.423   8.001  0.5514 -1.0827  1.1573
  171SAPE  H12Y19422   2.130   3.262   8.044 -2.1904 -0.4233  0.5931
  171SAPE  C31319423   2.015   3.438   8.111  0.0860 -0.5528 -0.1577
  171SAPE  H13X19424   1.940   3.370   8.157 -0.6997  0.1446 -0.3817
  171SAPE  H13Y19425   1.956   3.514   8.056  1.0090  0.0737 -0.3069
  171SAPE  C31419426   2.097   3.511   8.212  0.0417 -0.3883 -0.3950
  171SAPE  H14X19427   2.152   3.594   8.162 -0.3461  0.2553  0.2383
  171SAPE  H14Y19428   2.178   3.448   8.255  1.4690  1.1319 -0.7586
  171SAPE  C31519429   2.026   3.571   8.332  0.0890  0.1171  0.4790
  171SAPE  H15X19430   2.083   3.597   8.423  0.1387 -1.6949  1.0171
  171SAPE  H15Y19431   1.957   3.487   8.356 -0.8306 -0.0538 -2.3335
  171SAPE  C31619432   1.931   3.688   8.289  0.4780 -0.0263  0.6186
  171SAPE  H16X19433   1.893   3.660   8.188 -0.5484 -2.8564  1.7016
  171SAPE  H16Y19434   1.992   3.781   8.293 -1.0541  1.1913 -1.5779
  171SAPE  C31719435   1.816   3.728   8.376 -0.4070 -0.1684 -0.1095
  171SAPE  H17X19436   1.745   3.795   8.323  0.6374  2.4724  1.6297
  171SAPE  H17Y19437   1.844   3.790   8.464 -2.3797 -0.3312  0.6879
  171SAPE  C31819438   1.742   3.610   8.441 -0.7254 -0.5986  0.7106
  171SAPE  H18X19439   1.662   3.657   8.502  0.0098  1.2319  0.3372
  171SAPE  H18Y19440   1.816   3.545   8.492  0.5482  0.5218  0.3489
  171SAPE  H18Z19441   1.702   3.552   8.354  0.9780 -1.9235  0.7746
  172SAPE     N19442   3.741   1.955   6.263 -0.6007 -0.3673  0.0715
  172SAPE   HN119443   3.671   1.959   6.341 -2.5068  0.3261 -1.5847
  172SAPE   HN219444   3.683   1.940   6.178  0.3639  0.1515 -0.6832
  172SAPE   HN319445   3.803   1.876   6.289 -2.7142 -1.8870  0.7829
  172SAPE   C1219446   3.812   2.097   6.247  0.9794  0.1911  0.3165
  172SAPE  H12A19447   3.740   2.170   6.204 -0.5869 -1.6233 -0.2771
  172SAPE  H12B19448   3.882   2.081   6.163 -1.7309 -0.7051 -1.9333
  172SAPE   C1119449   3.892   2.139   6.376  0.1778  0.0421  0.4418
  172SAPE  H11A19450   3.984   2.200   6.359  1.1888 -1.7113 -0.7740
  172SAPE  H11B19451   3.936   2.044   6.412 -0.2950 -0.5753 -0.5551
  172SAPE     P19452   3.751   2.341   6.462 -0.0499 -0.4165 -0.3505
  172SAPE   O1319453   3.848   2.432   6.535 -0.1858  0.3001 -0.4055
  172SAPE   O1419454   3.713   2.374   6.325 -0.4940 -0.8803  0.6389
  172SAPE   O1219455   3.798   2.194   6.470 -0.6532  0.0000  0.3486
  172SAPE   O1119456   3.616   2.326   6.547  0.2658 -0.0389 -0.1353
  172SAPE    C119457   3.638   2.266   6.678 -0.3309  0.1033 -0.5967
  172SAPE    HA19458   3.677   2.163   6.667 -2.7539 -0.8706 -0.6285
  172SAPE    HB19459   3.706   2.334   6.734  0.3939  3.2512 -4.8006
  172SAPE    C219460   3.510   2.257   6.762  0.4042  0.0920  0.2816
  172SAPE    HS19461   3.454   2.352   6.752 -1.4077 -0.9729 -0.1894
  172SAPE   O2119462   3.535   2.241   6.902 -0.1214  0.1645 -0.4951
  172SAPE   C2119463   3.452   2.296   6.992  0.1364 -0.5556 -0.0155
  172SAPE   O2219464   3.353   2.366   6.965  0.2521 -0.6993  0.0681
  172SAPE   C2219465   3.493   2.252   7.128 -0.1974 -0.0180 -0.0042
  172SAPE   H2R19466   3.455   2.149   7.148 -3.9150  1.6568  2.8035
  172SAPE   H2S19467   3.601   2.256   7.154 -0.7880 -0.3112  2.8517
  172SAPE    C319468   3.419   2.139   6.712 -1.0988 -1.3681  0.5920
  172SAPE    HX19469   3.489   2.055   6.694 -1.4594 -1.1470 -2.3099
  172SAPE    HY19470   3.371   2.168   6.617 -0.7230  0.0038  0.7970
  172SAPE   O3119471   3.315   2.110   6.812  0.2421  0.0544  0.2905
  172SAPE   C3119472   3.205   2.175   6.796  0.0131 -0.5662  1.2556
  172SAPE   O3219473   3.184   2.253   6.705  0.4335 -0.0934  0.3748
  172SAPE   C3219474   3.102   2.124   6.888 -0.4241  0.0699 -0.2297
  172SAPE   H2X19475   3.154   2.062   6.964  1.8339  0.6138 -1.2592
  172SAPE   H2Y19476   3.033   2.065   6.823 -0.6304 -0.2390  0.2628
  172SAPE   C2319477   3.425   2.350   7.237  0.0960  0.7286  0.0472
  172SAPE   H3R19478   3.317   2.324   7.248  0.4743 -0.5708  0.9641
  172SAPE   H3S19479   3.422   2.456   7.205  0.1104  1.1199  1.2990
  172SAPE   C2419480   3.500   2.346   7.371  0.2414 -0.6413 -0.7791
  172SAPE   H4R19481   3.607   2.372   7.355  0.0355 -0.0343 -1.2436
  172SAPE   H4S19482   3.493   2.245   7.415  1.8055 -1.0905 -1.5046
  172SAPE   C2519483   3.429   2.442   7.458 -0.3145 -0.5420  0.4958
  172SAPE   H5R19484   3.322   2.424   7.473 -0.5525  0.8036  0.5029
  172SAPE   C2619485   3.475   2.555   7.522  0.4204 -0.7425 -0.1248
  172SAPE   H6R19486   3.407   2.615   7.584  0.1425 -0.3385 -0.8083
  172SAPE   C2719487   3.612   2.616   7.539 -0.2382  0.1013 -0.3116
  172SAPE   H7R19488   3.679   2.599   7.452  0.2964 -0.6028  0.2271
  172SAPE   H7S19489   3.672   2.563   7.616  1.3301 -0.0899 -1.6256
  172SAPE   C2819490   3.618   2.767   7.581 -0.0106  0.3228 -0.3025
  172SAPE   H8R19491   3.604   2.837   7.497  2.6071 -1.0293 -1.9963
  172SAPE   C2919492   3.647   2.817   7.704  0.3220 -0.4109  0.3830
  172SAPE   H9R19493   3.662   2.925   7.718  1.3128 -0.5235  0.2935
  172SAPE  C21019494   3.683   2.736   7.830  0.3874 -0.5063  0.9102
  172SAPE  H10R19495   3.785   2.697   7.807 -0.7789 -3.8928  0.9230
  172SAPE  H10S19496   3.618   2.648   7.849 -1.2441  0.0838 -1.4447
  172SAPE  C21119497   3.684   2.828   7.951 -0.5019  0.5027 -0.2296
  172SAPE  H11R19498   3.786   2.861   7.972  0.3308 -2.4639  0.8920
  172SAPE  C21219499   3.587   2.854   8.031 -0.0122  1.1887  0.3915
  172SAPE  H12R19500   3.608   2.917   8.119 -1.3154  1.8965  0.2219
  172SAPE  C21319501   3.447   2.805   7.999  0.0977 -0.0709  0.4666
  172SAPE  H13R19502   3.447   2.774   7.893  1.6715 -1.7538  0.9067
  172SAPE  H13S19503   3.376   2.888   8.018  1.3391  0.6651  2.2718
  172SAPE  C21419504   3.424   2.685   8.085 -0.2047 -0.4704  0.1847
  172SAPE  H14R19505   3.478   2.596   8.050 -0.6865 -1.0210  0.8217
  172SAPE  C21519506   3.328   2.670   8.180 -0.1489 -0.2554 -0.4428
  172SAPE  H15R19507   3.331   2.581   8.245 -0.0349  0.4153  0.4886
  172SAPE  C21619508   3.216   2.770   8.218  0.2189  0.1688 -0.5265
  172SAPE  H16R19509   3.120   2.736   8.173 -0.2564  1.9681 -0.9621
  172SAPE  H16S19510   3.239   2.872   8.180  0.6158 -0.1178 -1.0718
  172SAPE  C21719511   3.187   2.772   8.369  0.1941  0.3485  0.1736
  172SAPE  H17R19512   3.273   2.809   8.427  2.1963 -2.0415 -1.0515
  172SAPE  H17S19513   3.182   2.664   8.394  1.7402 -0.1817 -1.5462
  172SAPE  C21819514   3.058   2.839   8.400  0.0503 -1.0298 -0.3957
  172SAPE  H18R19515   3.019   2.799   8.496 -0.0258  1.4252  0.6526
  172SAPE  H18S19516   2.985   2.810   8.321 -1.1452 -1.2504  0.7605
  172SAPE  C21919517   3.068   2.995   8.399 -0.7310  0.4888  0.1390
  172SAPE  H19R19518   2.970   3.043   8.420 -1.1369 -0.6055  0.8294
  172SAPE  H19S19519   3.092   3.036   8.299 -0.4142 -0.5651 -0.2293
  172SAPE  C22019520   3.156   3.057   8.505 -0.1026  0.1122 -0.2422
  172SAPE  H20R19521   3.106   3.049   8.604  0.0898  2.4768  0.1220
  172SAPE  H20S19522   3.181   3.163   8.481  1.3113  0.3602  2.0196
  172SAPE  H20T19523   3.249   2.998   8.507  0.0666  0.2026 -2.6715
  172SAPE   C3319524   3.025   2.228   6.971  0.0415  0.0207  0.2615
  172SAPE   H3X19525   2.989   2.312   6.908 -0.8185 -1.5538 -1.4358
  172SAPE   H3Y19526   3.103   2.269   7.038 -0.4128  0.7770  0.3321
  172SAPE   C3419527   2.919   2.171   7.063  0.5423 -0.3013 -0.2539
  172SAPE   H4X19528   2.966   2.087   7.118  0.1221 -0.1524  0.3387
  172SAPE   H4Y19529   2.841   2.125   6.997 -0.1702 -1.4154  1.3052
  172SAPE   C3519530   2.854   2.280   7.155 -0.0166 -0.9842 -0.7296
  172SAPE   H5X19531   2.762   2.243   7.206  0.6170  0.6628  1.7951
  172SAPE   H5Y19532   2.830   2.360   7.082 -1.7910 -1.4505 -0.7123
  172SAPE   C3619533   2.960   2.323   7.255 -0.5644 -0.1605  0.8408
  172SAPE   H6X19534   3.044   2.367   7.199 -0.3611 -1.9843 -0.3877
  172SAPE   H6Y19535   2.994   2.232   7.309  0.5827 -0.1983  0.0751
  172SAPE   C3719536   2.912   2.420   7.368  0.1384  0.6493  0.4318
  172SAPE   H7X19537   2.847   2.352   7.428 -0.1151  1.8476  1.5434
  172SAPE   H7Y19538   2.865   2.517   7.342 -1.2695 -0.5814 -2.0826
  172SAPE   C3819539   3.031   2.443   7.468  0.1506 -0.0759  0.2458
  172SAPE   H8X19540   3.106   2.506   7.416 -1.6784  2.3236  0.3325
  172SAPE   H8Y19541   3.077   2.347   7.498 -1.1034 -0.1910  1.9745
  172SAPE   C3919542   2.992   2.521   7.601 -0.0597 -0.0216 -0.0744
  172SAPE   H9X19543   2.930   2.448   7.657 -0.8829  0.0404 -0.8899
  172SAPE   H9Y19544   2.923   2.604   7.576 -0.2658  0.5600  2.2364
  172SAPE  C31019545   3.108   2.571   7.688 -0.4536  0.0846  0.2812
  172SAPE  H10X19546   3.178   2.646   7.645 -0.4434  0.5815  1.1303
  172SAPE  H10Y19547   3.166   2.479   7.706 -0.1956  0.2207  0.1585
  172SAPE  C31119548   3.059   2.623   7.820 -0.3983 -0.1935  0.1403
  172SAPE  H11X19549   2.984   2.702   7.799 -2.1272 -1.9679 -0.5948
  172SAPE  H11Y19550   3.152   2.657   7.871 -1.1440 -0.6338  1.8805
  172SAPE  C31219551   2.991   2.520   7.918 -0.0307 -0.7369  0.2202
  172SAPE  H12X19552   2.889   2.487   7.886 -0.4179 -0.1069  0.7719
  172SAPE  H12Y19553   2.981   2.576   8.013  3.0391  1.4412 -0.6049
  172SAPE  C31319554   3.064   2.392   7.935 -0.1700 -0.5686  0.5986
  172SAPE  H13X19555   3.171   2.406   7.962 -0.5284  1.6020  1.0304
  172SAPE  H13Y19556   3.068   2.334   7.841  1.1166 -1.6327  1.2622
  172SAPE  C31419557   2.997   2.306   8.045  0.3228  0.3022 -0.5021
  172SAPE  H14X19558   3.060   2.215   8.053  0.7569  0.6022 -0.4960
  172SAPE  H14Y19559   2.891   2.283   8.020  0.7442 -3.9089  0.7996
  172SAPE  C31519560   3.016   2.363   8.188 -0.5487 -0.0204 -0.7602
  172SAPE  H15X19561   2.961   2.458   8.204  2.8615  1.9330  0.4397
  172SAPE  H15Y19562   3.122   2.388   8.209 -1.1888  1.1879  1.2975
  172SAPE  C31619563   2.973   2.265   8.300  0.1388 -0.3759  0.1505
  172SAPE  H16X19564   3.061   2.212   8.342  0.1646 -0.2292  0.2808
  172SAPE  H16Y19565   2.897   2.188   8.276  0.7857 -0.6615 -1.0521
  172SAPE  C31719566   2.913   2.337   8.432 -0.1546  0.1660  0.3477
  172SAPE  H17X19567   2.889   2.260   8.508  0.9657 -1.7456 -1.1398
  172SAPE  H17Y19568   2.825   2.398   8.402  0.1699  1.1421  1.3313
  172SAPE  C31819569   3.006   2.438   8.493 -0.1666  0.2923  1.0177
  172SAPE  H18X19570   2.942   2.498   8.561  0.6899  0.8701  1.3286
  172SAPE  H18Y19571   3.044   2.504   8.413 -0.9674  0.6434  0.9152
  172SAPE  H18Z19572   3.093   2.386   8.539  0.0785 -0.7704 -0.5329
  173SOPE     N19573   3.974   4.434  10.360 -0.0473  0.9665  0.3619
  173SOPE   HN119574   3.939   4.360  10.296  1.6339  0.0376  0.4398
  173SOPE   HN219575   3.958   4.403  10.458 -1.3868 -1.4324 -0.5267
  173SOPE   HN319576   3.901   4.508  10.349 -0.0096  1.5037  3.0973
  173SOPE   C1219577   4.114   4.476  10.320 -0.5218 -0.0178  0.6480
  173SOPE  H12A19578   4.139   4.574  10.365  1.2547  0.5686 -1.4476
  173SOPE  H12B19579   4.106   4.480  10.209 -1.1695  1.2363  0.7279
  173SOPE   C1119580   4.218   4.368  10.359  0.5020 -0.1319  0.0766
  173SOPE  H11A19581   4.315   4.403  10.319  0.1510  1.3249  0.4371
  173SOPE  H11B19582   4.187   4.276  10.305  0.0551  0.1630 -0.1838
  173SOPE     P19583   4.347   4.324  10.576  0.1029 -0.1041  0.2697
  173SOPE   O1319584   4.332   4.229  10.686 -0.0700  0.8842 -0.2415
  173SOPE   O1419585   4.403   4.456  10.610 -0.4746 -0.3448  0.2424
  173SOPE   O1219586   4.215   4.345  10.498  1.0074  0.6829 -0.0507
  173SOPE   O1119587   4.443   4.252  10.471 -0.8908 -0.0921  0.0571
  173SOPE    C119588   4.454   4.117  10.460 -0.3728  0.4044  0.6198
  173SOPE    HA19589   4.348   4.082  10.459 -0.1325 -0.3256 -0.0279
  173SOPE    HB19590   4.490   4.065  10.552  0.5015 -1.8015 -0.8743
  173SOPE    C219591   4.529   4.063  10.337  0.3188  0.4539  0.1843
  173SOPE    HS19592   4.633   4.102  10.346  0.6039 -0.2067 -0.2721
  173SOPE   O2119593   4.465   4.097  10.213 -0.2912 -0.1276 -0.4429
  173SOPE   C2119594   4.501   4.215  10.159  0.5981 -1.0225  0.7750
  173SOPE   O2219595   4.599   4.282  10.191  0.5554 -0.2941  0.7507
  173SOPE   C2219596   4.405   4.247  10.039 -0.4152  0.5529  0.1724
  173SOPE   H2R19597   4.300   4.250  10.075 -0.8454 -2.2168 -0.6363
  173SOPE   H2S19598   4.410   4.162   9.968 -0.3963  2.5373 -2.3474
  173SOPE    C319599   4.545   3.906  10.360 -1.0733  0.3198  0.2413
  173SOPE    HX19600   4.581   3.885  10.463  0.7099 -2.4593 -0.8489
  173SOPE    HY19601   4.625   3.868  10.293 -1.0757 -0.8885  0.8985
  173SOPE   O3119602   4.430   3.830  10.329 -0.6072  0.6621  0.0147
  173SOPE   C3119603   4.410   3.722  10.399  0.7459  0.4965 -0.8340
  173SOPE   O3219604   4.465   3.688  10.503  0.2032 -0.5612 -0.0689
  173SOPE   C3219605   4.308   3.637  10.327  0.5848  0.0818  0.1908
  173SOPE   H2X19606   4.343   3.625  10.223 -0.1032 -0.2951 -0.0054
  173SOPE   H2Y19607   4.204   3.675  10.336 -0.3593 -2.0072 -1.2209
  173SOPE   C2319608   4.445   4.383   9.977 -0.3413  0.2266  0.4587
  173SOPE   H3R19609   4.543   4.377   9.925 -0.7118  0.6115 -0.2978
  173SOPE   H3S19610   4.459   4.456  10.060 -0.4495 -0.0874  0.7542
  173SOPE   C2419611   4.357   4.433   9.859  0.8722 -0.2725 -0.7742
  173SOPE   H4R19612   4.398   4.513   9.794 -1.8297  0.0284 -2.2309
  173SOPE   H4S19613   4.360   4.344   9.794  0.3089 -0.3985 -0.6300
  173SOPE   C2519614   4.208   4.470   9.890  0.4582 -0.3204 -0.0111
  173SOPE   H5R19615   4.179   4.398   9.969  0.0589  1.5522  1.6390
  173SOPE   H5S19616   4.204   4.573   9.933  2.5702  0.1438 -0.8029
  173SOPE   C2619617   4.119   4.478   9.763 -0.1832  0.7011 -0.2229
  173SOPE   H6R19618   4.103   4.374   9.726  2.0117 -0.2217  1.2158
  173SOPE   H6S19619   4.022   4.525   9.788 -1.0231 -1.7390  1.3944
  173SOPE   C2719620   4.167   4.569   9.654 -0.0144 -0.1037  0.4686
  173SOPE   H7R19621   4.186   4.670   9.696  2.1494 -0.1208 -0.3661
  173SOPE   H7S19622   4.264   4.530   9.617 -1.6136 -2.1040 -2.0088
  173SOPE   C2819623   4.073   4.570   9.532  0.2000 -0.5121 -0.2208
  173SOPE   H8R19624   4.039   4.471   9.496  0.9464 -1.1427  0.7610
  173SOPE   H8S19625   3.973   4.609   9.561  0.3137 -1.2415  1.2248
  173SOPE   C2919626   4.107   4.667   9.423  0.0315 -0.2341 -0.1691
  173SOPE   H9119627   4.104   4.773   9.453  0.3681 -0.0850 -0.6616
  173SOPE  C21019628   4.170   4.634   9.311  0.8388 -0.6274  0.2512
  173SOPE  H10119629   4.210   4.715   9.248  2.3695 -1.6507 -0.1423
  173SOPE  C21119630   4.210   4.498   9.270  0.0904  0.8368  0.4600
  173SOPE  H11R19631   4.213   4.433   9.360 -2.1354 -0.5473 -0.3597
  173SOPE  H11S19632   4.318   4.493   9.245  0.4512 -1.8826  2.1080
  173SOPE  C21219633   4.119   4.439   9.153 -0.0214  0.6257  0.1674
  173SOPE  H12R19634   4.160   4.478   9.057  0.0533  1.9064  0.6918
  173SOPE  H12S19635   4.013   4.472   9.164 -0.6921 -1.6633  1.1827
  173SOPE  C21319636   4.129   4.282   9.155 -0.3429 -0.7913  0.0713
  173SOPE  H13R19637   4.220   4.246   9.206 -0.0550 -0.9901 -0.5714
  173SOPE  H13S19638   4.120   4.245   9.051 -0.3656  0.6543 -0.4720
  173SOPE  C21419639   4.002   4.227   9.229  0.5014  0.6449 -0.4104
  173SOPE  H14R19640   3.916   4.235   9.158 -1.6752 -1.3766  1.7973
  173SOPE  H14S19641   3.969   4.282   9.320 -0.0003  0.1174 -0.2682
  173SOPE  C21519642   4.019   4.078   9.250 -0.2737 -1.2586 -0.4775
  173SOPE  H15R19643   4.121   4.047   9.218  0.2507 -0.8514  0.7527
  173SOPE  H15S19644   3.947   4.032   9.179 -1.2235 -0.8282  0.1947
  173SOPE  C21619645   3.981   4.029   9.387  0.0326  0.0558 -0.1189
  173SOPE  H16R19646   3.982   3.918   9.398 -2.4963 -0.0724 -0.6229
  173SOPE  H16S19647   3.876   4.062   9.403  0.3136  1.3482 -0.8413
  173SOPE  C21719648   4.058   4.087   9.504  0.2877 -0.0361 -0.4998
  173SOPE  H17R19649   4.023   4.035   9.596  1.8845  0.3947  0.3791
  173SOPE  H17S19650   4.052   4.197   9.515  1.2563 -0.0760  0.6440
  173SOPE  C21819651   4.205   4.047   9.490  0.3836 -0.1763 -0.2659
  173SOPE  H18R19652   4.240   4.020   9.592  0.1368 -0.4869 -0.2614
  173SOPE  H18S19653   4.260   4.129   9.438  1.1016 -1.6364 -1.9461
  173SOPE  H18T19654   4.207   3.957   9.424 -0.4992 -0.2163 -0.2498
  173SOPE   C3319655   4.296   3.489  10.386  0.2405  0.3896  0.1761
  173SOPE   H3X19656   4.239   3.496  10.481  0.8765 -3.6059  1.0343
  173SOPE   H3Y19657   4.393   3.451  10.424  0.3029  1.6848  1.3753
  173SOPE   C3419658   4.229   3.386  10.289  0.0880  0.0482  0.4835
  173SOPE   H4X19659   4.244   3.282  10.323 -0.0385 -0.1675 -0.1126
  173SOPE   H4Y19660   4.259   3.407  10.184 -1.6714 -1.9087 -0.4847
  173SOPE   C3519661   4.073   3.411  10.273  0.1395 -0.1828 -0.0517
  173SOPE   H5X19662   4.058   3.485  10.192  2.4476 -1.4379 -1.7325
  173SOPE   H5Y19663   4.023   3.446  10.367  1.6772  0.4829  0.5500
  173SOPE   C3619664   4.019   3.277  10.234 -0.5832 -0.5204  0.0037
  173SOPE   H6X19665   3.911   3.291  10.214 -0.5161 -0.0546 -0.0364
  173SOPE   H6Y19666   4.023   3.189  10.303 -1.8423 -0.7201 -0.1426
  173SOPE   C3719667   4.076   3.226  10.098  0.1424 -0.2633  0.7082
  173SOPE   H7X19668   4.185   3.210  10.112  0.3889  0.5419 -0.1403
  173SOPE   H7Y19669   4.065   3.315  10.032  0.9225 -0.0931  0.8022
  173SOPE   C3819670   3.991   3.115  10.042 -0.2332  0.3623 -0.0820
  173SOPE   H8X19671   3.885   3.147  10.028 -0.2769 -0.1112 -0.8947
  173SOPE   H8Y19672   3.971   3.035  10.116 -1.0195 -0.9930 -1.6834
  173SOPE   C3919673   4.051   3.053   9.911  0.6572 -0.7326 -0.5179
  173SOPE   H9X19674   4.157   3.023   9.923  0.2205 -2.5568 -0.9420
  173SOPE   H9Y19675   4.059   3.134   9.834  2.1089  1.1570  1.4751
  173SOPE  C31019676   3.972   2.930   9.864 -0.0919 -0.4869  0.2185
  173SOPE  H10X19677   3.870   2.950   9.825  0.8716  1.1751 -1.6278
  173SOPE  H10Y19678   3.965   2.869   9.956  0.3063  0.2462  0.7438
  173SOPE  C31119679   4.046   2.862   9.748  0.0541 -0.0283 -0.2594
  173SOPE  H11X19680   4.146   2.842   9.792  0.0653 -0.9979 -0.7095
  173SOPE  H11Y19681   4.054   2.934   9.664  0.3177  0.5164  0.2240
  173SOPE  C31219682   3.983   2.739   9.693  0.0858  0.4001  0.2656
  173SOPE  H12X19683   3.907   2.763   9.616  0.3843  0.6272  0.0396
  173SOPE  H12Y19684   3.945   2.677   9.777 -1.6908  0.8987 -0.1274
  173SOPE  C31319685   4.096   2.658   9.630  0.8321  0.2969 -0.2094
  173SOPE  H13X19686   4.056   2.556   9.609 -0.7144  0.0392  3.3009
  173SOPE  H13Y19687   4.180   2.652   9.702  0.5934  2.0602  0.2582
  173SOPE  C31419688   4.153   2.702   9.498 -0.1572 -0.9687 -0.1941
  173SOPE  H14X19689   4.228   2.629   9.461  2.6238  2.4588 -1.8866
  173SOPE  H14Y19690   4.215   2.793   9.510  0.6331 -1.7537  2.3918
  173SOPE  C31519691   4.037   2.737   9.391  0.6137  0.7777 -0.4348
  173SOPE  H15X19692   3.978   2.828   9.417  1.7542  1.2418  0.6364
  173SOPE  H15Y19693   3.971   2.647   9.386  0.5902  0.7356  0.5127
  173SOPE  C31619694   4.100   2.762   9.254 -1.0108 -0.0620 -0.1980
  173SOPE  H16X19695   4.170   2.677   9.238 -0.4974 -0.0282  1.6693
  173SOPE  H16Y19696   4.155   2.857   9.275 -1.6577  0.0628  0.9655
  173SOPE  C31719697   4.008   2.800   9.145  0.4173  0.3675  0.2916
  173SOPE  H17X19698   3.936   2.877   9.179 -0.7977  0.4901 -2.3014
  173SOPE  H17Y19699   3.952   2.710   9.114  2.1211 -0.5937 -0.1213
  173SOPE  C31819700   4.081   2.854   9.019  0.4438  0.2669 -1.4146
  173SOPE  H18X19701   4.169   2.917   9.043  0.2701 -0.6909  2.4282
  173SOPE  H18Y19702   4.015   2.912   8.952  0.0613  1.5516  0.0158
  173SOPE  H18Z19703   4.126   2.769   8.963  2.3210 -0.0389  0.4172
  174SOPE     N19704   1.765   4.498  10.609 -0.0601  0.2528 -0.0837
  174SOPE   HN119705   1.756   4.462  10.706 -0.8975  0.7328  0.0260
  174SOPE   HN219706   1.843   4.567  10.602  0.1081 -0.0523 -1.4212
  174SOPE   HN319707   1.675   4.539  10.578  0.3796  0.1585 -1.5278
  174SOPE   C1219708   1.796   4.383  10.519 -0.2099  0.6111 -0.2037
  174SOPE  H12A19709   1.777   4.401  10.411  1.8877  0.9213 -0.5617
  174SOPE  H12B19710   1.742   4.294  10.559 -0.9680  0.6979 -0.9970
  174SOPE   C1119711   1.941   4.339  10.529  0.6587 -0.0069 -0.0010
  174SOPE  H11A19712   1.995   4.402  10.455  1.3765  0.4795  0.9171
  174SOPE  H11B19713   1.951   4.233  10.495  0.1000  0.0867 -0.4849
  174SOPE     P19714   2.150   4.354  10.697  0.4605 -0.3133 -0.5774
  174SOPE   O1319715   2.185   4.218  10.759  0.4476  0.1072  0.9436
  174SOPE   O1419716   2.191   4.469  10.780 -0.1573  0.1591 -0.4453
  174SOPE   O1219717   1.994   4.360  10.654 -0.6530 -0.3634 -0.3239
  174SOPE   O1119718   2.225   4.353  10.554  0.4662 -0.6134  0.6084
  174SOPE    C119719   2.367   4.361  10.558 -1.2025 -0.0014 -0.4880
  174SOPE    HA19720   2.412   4.332  10.655 -1.1385 -2.2702 -1.1313
  174SOPE    HB19721   2.406   4.462  10.532 -1.6936  0.9860  2.2484
  174SOPE    C219722   2.422   4.241  10.467 -0.1840 -0.1951 -0.2446
  174SOPE    HS19723   2.531   4.233  10.487  0.1244  2.3767 -0.5311
  174SOPE   O2119724   2.398   4.266  10.325 -0.0564  0.4913 -0.3596
  174SOPE   C2119725   2.496   4.330  10.259 -0.8412 -0.0599 -0.2236
  174SOPE   O2219726   2.615   4.334  10.293  0.4162  0.6446 -0.0149
  174SOPE   C2219727   2.444   4.395  10.138  1.4045 -0.2665 -0.0125
  174SOPE   H2R19728   2.347   4.441  10.168  0.6414 -2.3114  0.8168
  174SOPE   H2S19729   2.432   4.314  10.063  2.0748 -0.5770  0.2090
  174SOPE    C319730   2.362   4.101  10.504  0.3869 -0.1947 -0.6414
  174SOPE    HX19731   2.251   4.113  10.497 -0.1616 -2.9322  1.3372
  174SOPE    HY19732   2.389   4.089  10.612  0.9800  0.2953 -0.7334
  174SOPE   O3119733   2.406   3.993  10.420 -0.3086  0.3497 -0.4449
  174SOPE   C3119734   2.327   3.967  10.317  0.4264  0.9738  0.4591
  174SOPE   O3219735   2.229   4.028  10.282 -0.0218  1.1816 -0.3467
  174SOPE   C3219736   2.373   3.841  10.244 -0.5489  0.2938  0.4789
  174SOPE   H2X19737   2.281   3.787  10.214  0.5414 -0.6645 -1.2908
  174SOPE   H2Y19738   2.449   3.782  10.299 -0.6185  0.7819  1.1057
  174SOPE   C2319739   2.541   4.497  10.077  0.3055  0.2636  0.3899
  174SOPE   H3R19740   2.592   4.556  10.157  0.4087  0.4830  0.1672
  174SOPE   H3S19741   2.476   4.565  10.018  0.8954  0.8129  0.3638
  174SOPE   C2419742   2.653   4.438   9.996  0.1037  0.0442 -0.2939
  174SOPE   H4R19743   2.712   4.361  10.051 -3.0405 -1.5592  1.0908
  174SOPE   H4S19744   2.598   4.380   9.919  0.0879 -0.5005  0.1209
  174SOPE   C2519745   2.741   4.545   9.932  0.2893 -0.7035 -0.4049
  174SOPE   H5R19746   2.789   4.617  10.002  0.6437 -1.8520  0.5583
  174SOPE   H5S19747   2.822   4.493   9.877 -0.0183 -1.9421  0.2688
  174SOPE   C2619748   2.673   4.633   9.828  0.4554 -0.3952 -0.4218
  174SOPE   H6R19749   2.649   4.563   9.745  0.8644 -0.9170 -0.1058
  174SOPE   H6S19750   2.576   4.672   9.866  1.2806  1.7598 -0.3829
  174SOPE   C2719751   2.750   4.755   9.786 -0.2234 -0.0822  0.1371
  174SOPE   H7R19752   2.738   4.833   9.863  0.1250  0.4025 -0.2958
  174SOPE   H7S19753   2.857   4.722   9.784 -0.4415 -0.8200 -1.9208
  174SOPE   C2819754   2.716   4.814   9.650  0.1994 -0.3906  0.6565
  174SOPE   H8R19755   2.722   4.726   9.582  2.5343 -0.5742  1.0284
  174SOPE   H8S19756   2.609   4.844   9.654 -0.1024 -1.4523  0.9467
  174SOPE   C2919757   2.798   4.936   9.602  0.5441 -0.1135 -0.2480
  174SOPE   H9119758   2.798   5.026   9.664  0.7496  1.0258 -1.8311
  174SOPE  C21019759   2.884   4.939   9.502 -0.1312  0.1190  0.6254
  174SOPE  H10119760   2.935   5.035   9.484 -0.7888  0.2905 -0.4273
  174SOPE  C21119761   2.918   4.828   9.406  0.0867 -0.1201  0.4451
  174SOPE  H11R19762   2.881   4.729   9.441  1.1555  0.0270  2.0892
  174SOPE  H11S19763   3.026   4.801   9.405 -0.1362 -1.0362  0.4869
  174SOPE  C21219764   2.878   4.860   9.257 -0.2265  0.7089 -0.2533
  174SOPE  H12R19765   2.771   4.890   9.262 -0.4428 -0.2156  1.2498
  174SOPE  H12S19766   2.867   4.765   9.201  0.6225  2.2856 -3.2722
  174SOPE  C21319767   2.972   4.955   9.189  0.2202 -0.0948  0.2848
  174SOPE  H13R19768   3.068   4.911   9.154 -0.3875 -1.8897  0.7324
  174SOPE  H13S19769   2.992   5.039   9.258 -1.0371  1.6126 -1.3513
  174SOPE  C21419770   2.907   5.030   9.065  0.1069 -0.9457 -0.3871
  174SOPE  H14R19771   2.822   5.097   9.091 -1.4150 -1.9182 -2.5412
  174SOPE  H14S19772   2.870   4.948   9.000 -0.0051 -1.4698  0.3276
  174SOPE  C21519773   3.013   5.121   8.993 -0.6491 -0.6317 -0.2631
  174SOPE  H15R19774   3.095   5.066   8.943  0.0990 -0.4074  0.6948
  174SOPE  H15S19775   3.062   5.185   9.068  2.2319 -1.3505 -1.3944
  174SOPE  C21619776   2.956   5.201   8.880 -0.0273  0.0702 -0.2081
  174SOPE  H16R19777   3.042   5.268   8.858  0.8688 -0.5178  1.3739
  174SOPE  H16S19778   2.860   5.255   8.899 -0.0705  0.2152 -0.8338
  174SOPE  C21719779   2.925   5.123   8.747  0.4264 -0.5620 -1.1109
  174SOPE  H17R19780   2.825   5.077   8.764  0.4149 -1.4297 -3.2027
  174SOPE  H17S19781   3.003   5.047   8.728  1.8305  0.8676 -1.2632
  174SOPE  C21819782   2.912   5.218   8.623  0.1375 -0.1460 -0.1526
  174SOPE  H18R19783   2.885   5.160   8.532 -1.9892 -0.3255  0.5281
  174SOPE  H18S19784   3.003   5.273   8.591 -1.8001  1.7425 -2.9216
  174SOPE  H18T19785   2.841   5.301   8.645 -0.2341  0.3727 -2.9081
  174SOPE   C3319786   2.426   3.881  10.101 -0.4120  0.0399  0.2796
  174SOPE   H3X19787   2.352   3.949  10.054 -1.7045 -1.0473  0.6734
  174SOPE   H3Y19788   2.432   3.790  10.039 -0.8918 -0.8565  1.5016
  174SOPE   C3419789   2.564   3.951  10.103  0.2326 -0.3561 -0.8316
  174SOPE   H4X19790   2.634   3.875  10.143  0.8880  1.7643  2.5458
  174SOPE   H4Y19791   2.558   4.036  10.175  2.9765 -0.6173 -0.1801
  174SOPE   C3519792   2.616   3.998   9.967 -0.1350  0.4761  0.4145
  174SOPE   H5X19793   2.558   4.075   9.912  0.5819  0.9143  0.2648
  174SOPE   H5Y19794   2.631   3.914   9.896  1.2316  1.1340 -0.1074
  174SOPE   C3619795   2.753   4.060   9.980  0.7984  0.4344  0.2320
  174SOPE   H6X19796   2.810   3.981  10.033  0.4650 -0.7162 -1.0650
  174SOPE   H6Y19797   2.742   4.157  10.031  0.0438  0.7681 -0.5454
  174SOPE   C3719798   2.819   4.097   9.844 -0.0485 -0.0141  0.2421
  174SOPE   H7X19799   2.744   4.161   9.793  0.9573  0.3063 -0.8750
  174SOPE   H7Y19800   2.817   4.005   9.781 -0.3876 -0.5656  1.0301
  174SOPE   C3819801   2.949   4.177   9.850  0.2511  0.3395 -0.5696
  174SOPE   H8X19802   3.027   4.106   9.884 -0.1317 -0.4322 -1.2699
  174SOPE   H8Y19803   2.935   4.263   9.918  0.9561  1.1237 -1.3866
  174SOPE   C3919804   2.985   4.236   9.715 -0.1158 -0.0139  0.9907
  174SOPE   H9X19805   2.902   4.300   9.679 -0.3493  0.3329  2.1046
  174SOPE   H9Y19806   2.993   4.156   9.639 -2.4927  0.2727  0.3362
  174SOPE  C31019807   3.129   4.301   9.712  0.2113 -0.6610  0.0250
  174SOPE  H10X19808   3.194   4.218   9.675  1.5167  1.0506 -1.7091
  174SOPE  H10Y19809   3.156   4.336   9.814  2.3305  0.5610 -0.8879
  174SOPE  C31119810   3.145   4.434   9.633  0.1727 -0.0647  0.5441
  174SOPE  H11X19811   3.246   4.477   9.652  1.5423 -3.0620  0.5627
  174SOPE  H11Y19812   3.072   4.513   9.662 -0.7800 -0.6456 -0.2070
  174SOPE  C31219813   3.129   4.413   9.472 -0.2260  0.1116 -0.1802
  174SOPE  H12X19814   3.020   4.407   9.451 -1.1407  1.3238  3.4573
  174SOPE  H12Y19815   3.190   4.323   9.450  0.4315  0.8453 -1.4105
  174SOPE  C31319816   3.173   4.541   9.407 -0.7389 -0.2200  1.0231
  174SOPE  H13X19817   3.270   4.572   9.450  0.2232  0.0451 -1.2056
  174SOPE  H13Y19818   3.097   4.618   9.434 -1.6172 -0.6878 -0.0024
  174SOPE  C31419819   3.189   4.532   9.250  0.5704  0.0062 -0.5251
  174SOPE  H14X19820   3.108   4.488   9.189  0.7132  1.0136 -1.4628
  174SOPE  H14Y19821   3.278   4.465   9.240  0.7482  0.0002  0.8199
  174SOPE  C31519822   3.232   4.672   9.199  0.4321 -0.5736 -0.5843
  174SOPE  H15X19823   3.306   4.724   9.264 -0.6207  2.3516 -1.5567
  174SOPE  H15Y19824   3.138   4.730   9.196  0.0850 -1.1241 -0.4451
  174SOPE  C31619825   3.301   4.671   9.060  0.8435 -0.6135  0.1271
  174SOPE  H16X19826   3.379   4.592   9.057  3.6576  2.0408 -1.2227
  174SOPE  H16Y19827   3.366   4.760   9.047 -0.7198  0.4178 -1.0153
  174SOPE  C31719828   3.213   4.658   8.927 -0.5818 -0.1445 -0.5694
  174SOPE  H17X19829   3.133   4.734   8.932  0.3939  0.9961 -1.7744
  174SOPE  H17Y19830   3.164   4.558   8.929  1.5735 -1.2949 -1.6918
  174SOPE  C31819831   3.297   4.680   8.802  0.0073  0.6095 -0.5554
  174SOPE  H18X19832   3.344   4.781   8.794  0.0084  0.6798  0.2033
  174SOPE  H18Y19833   3.242   4.674   8.706 -0.2392  1.8458 -0.5055
  174SOPE  H18Z19834   3.380   4.607   8.792  0.7464  0.5753  3.8943
  175SOPE     N19835   5.872   5.214  10.323  0.1121 -0.8715  0.5866
  175SOPE   HN119836   5.859   5.222  10.426  0.4852 -0.4029  0.6013
  175SOPE   HN219837   5.780   5.183  10.284 -0.7608  2.1773 -0.0102
  175SOPE   HN319838   5.948   5.147  10.299  1.1478 -0.0600  1.5112
  175SOPE   C1219839   5.896   5.363  10.276  0.0655  0.0544 -0.0792
  175SOPE  H12A19840   5.795   5.407  10.287  0.6234  0.9223  2.3221
  175SOPE  H12B19841   5.931   5.368  10.171  1.6070  3.1718  0.4708
  175SOPE   C1119842   5.989   5.420  10.383 -0.2266 -0.2066  0.0952
  175SOPE  H11A19843   6.013   5.526  10.361  0.9842  0.3856  3.6184
  175SOPE  H11B19844   6.087   5.368  10.392 -1.3275 -2.0654  3.3076
  175SOPE     P19845   5.815   5.493  10.579 -0.3935 -0.4841  0.1088
  175SOPE   O1319846   5.821   5.497  10.727 -0.4012  0.6305  0.4081
  175SOPE   O1419847   5.694   5.447  10.514 -0.6218  0.8143 -0.7805
  175SOPE   O1219848   5.935   5.409  10.522 -0.1738  0.1748  0.6357
  175SOPE   O1119849   5.849   5.636  10.532 -0.5382 -0.3244  0.2002
  175SOPE    C119850   5.746   5.724  10.481 -0.0492 -0.2695 -0.2442
  175SOPE    HA19851   5.767   5.830  10.507 -1.7768 -0.0197  0.2740
  175SOPE    HB19852   5.647   5.714  10.532  0.6555  0.3812  1.2932
  175SOPE    C219853   5.728   5.730  10.330 -0.6461  0.1830  0.5280
  175SOPE    HS19854   5.712   5.624  10.303  0.3559  0.0838  0.3156
  175SOPE   O2119855   5.850   5.780  10.277  0.2422  0.0923 -0.4688
  175SOPE   C2119856   5.893   5.723  10.167 -0.6156 -1.1384 -0.5144
  175SOPE   O2219857   5.845   5.627  10.116 -0.2738  0.3412 -0.2669
  175SOPE   C2219858   6.024   5.789  10.128 -0.0722 -0.3021 -0.3811
  175SOPE   H2R19859   6.086   5.790  10.220 -1.7397  1.0349  0.7877
  175SOPE   H2S19860   5.994   5.893  10.103  0.3507 -0.7323 -2.9355
  175SOPE    C319861   5.605   5.799  10.268 -0.0421 -0.1782 -0.2703
  175SOPE    HX19862   5.614   5.904  10.305 -0.1059  0.0926 -1.0080
  175SOPE    HY19863   5.507   5.773  10.313  0.3054  0.7505  1.0980
  175SOPE   O3119864   5.585   5.793  10.121 -0.8344 -1.0288  0.1207
  175SOPE   C3119865   5.520   5.702  10.057 -0.0982 -0.4825 -0.2936
  175SOPE   O3219866   5.462   5.608  10.115 -0.0347 -0.5501  0.1842
  175SOPE   C3219867   5.522   5.740   9.906 -0.0399 -0.5222 -0.7693
  175SOPE   H2X19868   5.555   5.845   9.894 -0.0144 -0.4608 -0.1783
  175SOPE   H2Y19869   5.426   5.728   9.851  1.3089 -0.2978 -3.3252
  175SOPE   C2319870   6.098   5.733  10.008  0.2277  0.0461  0.2222
  175SOPE   H3R19871   6.087   5.622  10.003  0.2131  0.0435  0.3040
  175SOPE   H3S19872   6.209   5.734  10.014  0.2164 -0.6843  0.7030
  175SOPE   C2419873   6.056   5.789   9.875  0.6308  0.3260 -0.6209
  175SOPE   H4R19874   5.948   5.772   9.852  1.0718 -2.0329 -1.2051
  175SOPE   H4S19875   6.063   5.896   9.847 -0.1892  0.3948 -0.6052
  175SOPE   C2519876   6.132   5.701   9.765  0.1130 -0.3773  0.5655
  175SOPE   H5R19877   6.173   5.607   9.807 -2.1924 -1.5603  0.3147
  175SOPE   H5S19878   6.064   5.666   9.685 -0.3744  2.3688 -0.3415
  175SOPE   C2619879   6.233   5.795   9.701 -0.3897 -0.4373  0.5171
  175SOPE   H6R19880   6.181   5.887   9.667 -0.6026 -0.5101  0.6402
  175SOPE   H6S19881   6.299   5.818   9.787 -0.8873 -0.0450  0.8072
  175SOPE   C2719882   6.316   5.725   9.582  0.6496  0.2218 -0.4135
  175SOPE   H7R19883   6.368   5.636   9.622  0.2618  0.4745  0.6856
  175SOPE   H7S19884   6.238   5.690   9.511 -0.7742  0.6589  0.8764
  175SOPE   C2819885   6.395   5.839   9.514  0.0660 -1.0614 -0.1242
  175SOPE   H8R19886   6.319   5.916   9.488  2.5078  0.9955 -1.6695
  175SOPE   H8S19887   6.473   5.889   9.575  1.8325 -2.0044 -1.4861
  175SOPE   C2919888   6.453   5.785   9.388  0.0467  0.5685  0.2448
  175SOPE   H9119889   6.523   5.703   9.407  0.8472  1.3386  0.7247
  175SOPE  C21019890   6.419   5.817   9.268 -0.9641 -0.9668  1.0000
  175SOPE  H10119891   6.473   5.774   9.183 -0.9597 -0.6318  0.8314
  175SOPE  C21119892   6.330   5.935   9.216 -0.2222  0.5774 -0.5569
  175SOPE  H11R19893   6.319   6.011   9.296 -1.1364 -0.9474  0.8250
  175SOPE  H11S19894   6.236   5.882   9.188  1.8828 -4.0543  0.0486
  175SOPE  C21219895   6.380   6.010   9.099 -0.3841 -0.6191  0.5001
  175SOPE  H12R19896   6.471   6.062   9.136  1.1747 -2.0853 -1.1259
  175SOPE  H12S19897   6.299   6.077   9.063  0.2147 -1.3327 -2.4651
  175SOPE  C21319898   6.410   5.941   8.970 -0.2451  0.4895 -0.0215
  175SOPE  H13R19899   6.343   5.861   8.935  2.1409 -0.5296 -2.6400
  175SOPE  H13S19900   6.504   5.883   8.975 -1.3913 -1.3566  1.3730
  175SOPE  C21419901   6.415   6.042   8.854  0.6607  0.1831  0.3920
  175SOPE  H14R19902   6.472   6.131   8.888  2.6778 -1.3239  1.1893
  175SOPE  H14S19903   6.306   6.063   8.842  0.2446 -1.6780  0.6503
  175SOPE  C21519904   6.484   5.982   8.732 -0.1534 -0.1842 -0.4207
  175SOPE  H15R19905   6.441   5.880   8.725  0.1178 -0.6031  2.6464
  175SOPE  H15S19906   6.593   5.964   8.743 -0.1585 -0.1527 -0.3242
  175SOPE  C21619907   6.459   6.075   8.615 -0.6713 -0.8145 -0.1679
  175SOPE  H16R19908   6.512   6.173   8.610 -0.4988 -0.9706 -1.6973
  175SOPE  H16S19909   6.353   6.104   8.601 -0.4758  0.1220  0.1708
  175SOPE  C21719910   6.484   6.010   8.480  0.2472  0.1781  0.0895
  175SOPE  H17R19911   6.455   5.903   8.493  2.9303 -0.4566  1.5394
  175SOPE  H17S19912   6.592   6.011   8.455  0.2009  0.3405 -0.1133
  175SOPE  C21819913   6.413   6.076   8.360 -0.0723  0.0648 -0.2137
  175SOPE  H18R19914   6.442   6.013   8.273 -0.1237  2.5224 -2.0972
  175SOPE  H18S19915   6.458   6.170   8.323 -1.2689 -0.3531 -2.9051
  175SOPE  H18T19916   6.303   6.092   8.360 -0.3261 -1.4553 -1.0984
  175SOPE   C3319917   5.620   5.639   9.837  0.1031 -0.1518 -0.1197
  175SOPE   H3X19918   5.599   5.534   9.868  0.5220 -0.1765  0.0828
  175SOPE   H3Y19919   5.727   5.649   9.867  0.5485  2.3191 -2.1576
  175SOPE   C3419920   5.613   5.636   9.679  0.1638 -0.2284  0.2534
  175SOPE   H4X19921   5.607   5.745   9.657 -3.4120  0.5719  3.9551
  175SOPE   H4Y19922   5.522   5.588   9.638  0.0207  0.2680 -0.0256
  175SOPE   C3519923   5.732   5.567   9.607  0.6396  0.8994 -0.1801
  175SOPE   H5X19924   5.735   5.467   9.654 -1.0338 -0.4148 -2.6847
  175SOPE   H5Y19925   5.818   5.622   9.652  0.6961 -0.0647  0.9541
  175SOPE   C3619926   5.732   5.571   9.455 -1.0893 -0.7211  0.2359
  175SOPE   H6X19927   5.630   5.581   9.410  0.5976  0.5710 -3.7762
  175SOPE   H6Y19928   5.760   5.467   9.429 -0.7347 -0.4331 -0.6077
  175SOPE   C3719929   5.822   5.680   9.399 -0.4708 -0.0813  0.5660
  175SOPE   H7X19930   5.924   5.672   9.441  0.8115  0.9595 -2.1135
  175SOPE   H7Y19931   5.797   5.786   9.423  0.0172  0.1906 -0.1118
  175SOPE   C3819932   5.819   5.653   9.249  0.0412 -0.7465  0.6167
  175SOPE   H8X19933   5.725   5.675   9.194  0.1404 -0.2927  0.6251
  175SOPE   H8Y19934   5.830   5.546   9.225  0.7437 -0.4365 -0.5134
  175SOPE   C3919935   5.932   5.727   9.172  0.0957  0.3368  0.1121
  175SOPE   H9X19936   6.037   5.726   9.207 -0.1328 -1.0203  0.8586
  175SOPE   H9Y19937   5.903   5.832   9.151 -1.5981 -0.3600 -1.3531
  175SOPE  C31019938   5.931   5.672   9.029 -0.8222 -0.9159 -0.0880
  175SOPE  H10X19939   5.850   5.733   8.984  0.0223  1.3004  1.2069
  175SOPE  H10Y19940   5.900   5.567   9.048 -0.0431 -1.0310  0.6192
  175SOPE  C31119941   6.058   5.708   8.946  0.3134  0.5030 -0.5598
  175SOPE  H11X19942   6.150   5.661   8.988  0.5244 -0.1023 -1.6624
  175SOPE  H11Y19943   6.072   5.818   8.945  1.7372  0.3624  0.4332
  175SOPE  C31219944   6.047   5.666   8.803 -0.1209  0.2402 -0.3344
  175SOPE  H12X19945   5.947   5.696   8.763  0.0832  1.2095 -0.1389
  175SOPE  H12Y19946   6.055   5.555   8.795  0.0889  0.3292 -1.5587
  175SOPE  C31319947   6.146   5.732   8.705 -0.0557  0.2086 -0.0504
  175SOPE  H13X19948   6.146   5.674   8.610 -0.5904 -2.5248  1.5127
  175SOPE  H13Y19949   6.251   5.726   8.742  0.3602 -0.5470 -1.2927
  175SOPE  C31419950   6.110   5.877   8.675 -0.6681  0.0435  0.4672
  175SOPE  H14X19951   6.198   5.928   8.630 -1.5431  1.0272 -0.1867
  175SOPE  H14Y19952   6.096   5.938   8.767 -1.7880  1.7515 -0.7791
  175SOPE  C31519953   5.986   5.893   8.588  0.3118 -0.1036  0.3506
  175SOPE  H15X19954   5.889   5.855   8.627 -0.2475 -0.8531 -1.6640
  175SOPE  H15Y19955   6.006   5.819   8.508 -0.4182 -0.5663  0.5828
  175SOPE  C31619956   5.971   6.026   8.518  0.4307  0.7656  0.2818
  175SOPE  H16X19957   6.045   6.044   8.437 -0.0438  0.2360 -0.2764
  175SOPE  H16Y19958   5.977   6.094   8.606 -1.1784 -0.5448  1.4737
  175SOPE  C31719959   5.827   6.036   8.458  0.3321 -0.6268  0.2574
  175SOPE  H17X19960   5.816   6.140   8.418  1.2147 -0.1819  1.1350
  175SOPE  H17Y19961   5.756   6.026   8.543  2.2359  1.3704  2.1878
  175SOPE  C31819962   5.806   5.945   8.337  0.4337 -0.2177 -0.0706
  175SOPE  H18X19963   5.847   5.999   8.249  0.5134 -0.1623  0.0000
  175SOPE  H18Y19964   5.697   5.929   8.324  0.5151 -0.1696 -0.8685
  175SOPE  H18Z19965   5.843   5.843   8.360 -0.9703 -0.6965  0.1660
  176SOPE     N19966   4.518   4.685  10.480  0.4337  0.6673  0.2736
  176SOPE   HN119967   4.502   4.784  10.506 -0.6592  0.4293  0.5707
  176SOPE   HN219968   4.489   4.670  10.381 -1.6163 -1.6248  1.1082
  176SOPE   HN319969   4.450   4.628  10.534 -0.4316  1.3261 -0.0940
  176SOPE   C1219970   4.660   4.656  10.494  0.0807  0.2118  1.0894
  176SOPE  H12A19971   4.711   4.673  10.396 -0.2192  0.6698  1.0070
  176SOPE  H12B19972   4.680   4.549  10.515  1.8340 -0.4387 -2.8967
  176SOPE   C1119973   4.733   4.740  10.601 -0.3679  0.7620  0.3165
  176SOPE  H11A19974   4.839   4.709  10.612 -1.1244 -2.1369  0.3078
  176SOPE  H11B19975   4.691   4.726  10.703  2.3931 -1.6899  1.2459
  176SOPE     P19976   4.655   4.993  10.598  0.2368 -0.1255  0.6029
  176SOPE   O1319977   4.634   5.003  10.745 -0.3027  0.1761  0.5675
  176SOPE   O1419978   4.536   4.970  10.514 -0.2016  0.5550 -0.0528
  176SOPE   O1219979   4.750   4.872  10.565  0.0201 -0.0333 -0.2294
  176SOPE   O1119980   4.741   5.121  10.548  0.3907  0.1482 -0.7888
  176SOPE    C119981   4.699   5.253  10.574  0.5696 -0.9475  0.4356
  176SOPE    HA19982   4.774   5.299  10.642 -0.6971  0.3946  0.9773
  176SOPE    HB19983   4.593   5.262  10.604  0.1186  0.3484 -1.3369
  176SOPE    C219984   4.714   5.344  10.448 -0.1034 -0.2476 -0.0415
  176SOPE    HS19985   4.674   5.441  10.485  1.9135  0.3257  0.8044
  176SOPE   O2119986   4.646   5.301  10.324 -0.0027 -0.2810 -0.4515
  176SOPE   C2119987   4.518   5.329  10.323  0.6022 -0.3028  0.9385
  176SOPE   O2219988   4.453   5.358  10.421  0.0567  0.2236  0.3570
  176SOPE   C2219989   4.455   5.340  10.185 -0.1092  0.3600 -0.2239
  176SOPE   H2R19990   4.357   5.388  10.205 -0.5856 -0.5950 -0.1912
  176SOPE   H2S19991   4.433   5.236  10.151  0.5497  0.1548 -0.0397
  176SOPE    C319992   4.865   5.362  10.427  0.2688 -0.6304  0.2986
  176SOPE    HX19993   4.900   5.266  10.384  0.7806 -0.6249  0.7009
  176SOPE    HY19994   4.924   5.385  10.518  1.7738 -2.5473 -0.1465
  176SOPE   O3119995   4.889   5.474  10.330  0.9124  0.2045  0.2525
  176SOPE   C3119996   4.987   5.461  10.242  0.1889 -0.2222 -0.5733
  176SOPE   O3219997   5.065   5.369  10.233 -0.9171 -0.5893  0.8188
  176SOPE   C3219998   4.977   5.582  10.139 -0.3304  0.4725 -0.1676
  176SOPE   H2X19999   5.059   5.648  10.175  0.4199 -1.1394  1.2704
  176SOPE   H2Y20000   4.881   5.632  10.163 -2.2625 -2.0999 -1.9403
  176SOPE   C2320001   4.525   5.412  10.071  0.4124 -0.0164  0.0351
  176SOPE   H3R20002   4.592   5.343  10.015  0.8674 -0.5120  1.1618
  176SOPE   H3S20003   4.595   5.492  10.106  2.8631 -2.1961  0.4374
  176SOPE   C2420004   4.442   5.472   9.966  1.1346 -0.0337  0.3006
  176SOPE   H4R20005   4.365   5.403   9.926 -0.3459  0.1528  2.6521
  176SOPE   H4S20006   4.378   5.552  10.009 -0.7550 -2.3027  2.0086
  176SOPE   C2520007   4.522   5.538   9.851  0.6540  0.4169 -0.4861
  176SOPE   H5R20008   4.608   5.593   9.895 -0.5912  2.8547 -0.8786
  176SOPE   H5S20009   4.563   5.463   9.781  2.5041  0.0639  0.8908
  176SOPE   C2620010   4.430   5.627   9.766  0.2871 -0.2104  0.6520
  176SOPE   H6R20011   4.329   5.580   9.760  0.2142  0.0653 -0.6026
  176SOPE   H6S20012   4.410   5.723   9.817 -0.0521 -0.1466  0.4049
  176SOPE   C2720013   4.476   5.647   9.626 -0.4617 -0.3623  0.1188
  176SOPE   H7R20014   4.566   5.712   9.624  0.0925 -1.1215  0.2001
  176SOPE   H7S20015   4.503   5.549   9.583 -1.2864 -0.6595  0.2520
  176SOPE   C2820016   4.365   5.708   9.528 -0.6393  0.6297 -0.2010
  176SOPE   H8R20017   4.395   5.700   9.421  1.7728  1.5643  0.3323
  176SOPE   H8S20018   4.280   5.638   9.542 -1.1613  1.3354  0.2697
  176SOPE   C2920019   4.324   5.842   9.582  0.2141  0.0895 -0.7808
  176SOPE   H9120020   4.375   5.863   9.677 -2.2941 -1.3190  0.9983
  176SOPE  C21020021   4.252   5.938   9.517 -0.8863  0.1775 -0.2178
  176SOPE  H10120022   4.251   6.040   9.556  0.7361  0.5677 -1.1200
  176SOPE  C21120023   4.194   5.925   9.381 -0.7584  0.5233 -0.1238
  176SOPE  H11R20024   4.218   5.832   9.326 -0.7532 -0.7363  1.8795
  176SOPE  H11S20025   4.250   6.008   9.334  1.2238  0.9347  2.6912
  176SOPE  C21220026   4.050   5.944   9.363  0.3283 -0.3080 -0.0241
  176SOPE  H12R20027   4.020   6.028   9.430 -0.0241  0.7907 -1.4991
  176SOPE  H12S20028   3.987   5.857   9.393 -0.4281  0.5345  0.9042
  176SOPE  C21320029   4.024   6.001   9.215  0.2194  0.2871 -0.2929
  176SOPE  H13R20030   4.108   6.072   9.201  2.2494 -1.9786 -0.2451
  176SOPE  H13S20031   3.935   6.068   9.214  0.8598  1.1519 -0.5444
  176SOPE  C21420032   4.020   5.900   9.093 -0.3844 -0.0376 -0.4821
  176SOPE  H14R20033   3.951   5.814   9.109 -0.4559  0.1436  0.2170
  176SOPE  H14S20034   4.119   5.850   9.097 -0.3703  0.0477  2.2944
  176SOPE  C21520035   3.998   5.962   8.955  0.1780  0.0544 -0.3377
  176SOPE  H15R20036   4.009   5.880   8.881 -0.9540 -0.3374 -0.0884
  176SOPE  H15S20037   4.078   6.040   8.950 -0.5116  0.8485  0.5639
  176SOPE  C21620038   3.858   6.020   8.931  0.6393 -0.2978  0.2822
  176SOPE  H16R20039   3.830   6.093   9.010 -1.8587  0.1994 -0.9786
  176SOPE  H16S20040   3.782   5.941   8.948  0.1883  0.3083  1.1329
  176SOPE  C21720041   3.835   6.093   8.796 -0.3719 -0.1715 -0.8163
  176SOPE  H17R20042   3.848   6.026   8.708 -1.8890 -1.1729 -0.3238
  176SOPE  H17S20043   3.909   6.176   8.795 -0.0551 -0.3681  1.2222
  176SOPE  C21820044   3.702   6.159   8.776  1.0087  0.0340 -0.1418
  176SOPE  H18R20045   3.626   6.078   8.782  1.0738  0.0339  0.8485
  176SOPE  H18S20046   3.704   6.224   8.687  2.0979  0.7441  0.3832
  176SOPE  H18T20047   3.684   6.230   8.860  0.9130  0.1592 -0.2667
  176SOPE   C3320048   4.978   5.545   9.990  0.2439 -0.1450  0.0219
  176SOPE   H3X20049   4.896   5.479   9.956 -1.2228  1.1984  0.7738
  176SOPE   H3Y20050   5.076   5.500   9.963  0.1434 -1.9184  2.2983
  176SOPE   C3420051   4.960   5.684   9.914 -0.2419 -0.0228  0.4220
  176SOPE   H4X20052   5.047   5.752   9.913 -1.1736  1.2555 -2.4674
  176SOPE   H4Y20053   4.864   5.727   9.952 -0.3232 -1.9724  2.6718
  176SOPE   C3520054   4.945   5.648   9.761 -0.2982  0.5263  0.0955
  176SOPE   H5X20055   4.859   5.579   9.744  0.2190 -0.7765  2.2702
  176SOPE   H5Y20056   5.037   5.592   9.736 -1.8269 -1.6465 -1.0193
  176SOPE   C3620057   4.918   5.776   9.675  0.2723  0.3090  0.1572
  176SOPE   H6X20058   5.009   5.840   9.682 -0.1075  0.8282  0.3850
  176SOPE   H6Y20059   4.835   5.835   9.718  0.3110  0.1597  0.4428
  176SOPE   C3720060   4.879   5.749   9.528  0.2341  0.0434  0.3727
  176SOPE   H7X20061   4.803   5.668   9.520 -1.5162  1.4412  1.9848
  176SOPE   H7Y20062   4.969   5.707   9.478 -0.0283  2.7331 -2.6240
  176SOPE   C3820063   4.820   5.873   9.449  0.2018 -0.3273  0.0849
  176SOPE   H8X20064   4.869   5.964   9.490 -1.5714  1.6015 -1.8027
  176SOPE   H8Y20065   4.715   5.884   9.482 -0.2488 -0.8333 -1.1188
  176SOPE   C3920066   4.831   5.871   9.302 -0.0374 -0.1862  0.2431
  176SOPE   H9X20067   4.935   5.873   9.264 -0.4975 -0.5457 -1.1062
  176SOPE   H9Y20068   4.762   5.949   9.262  0.3001 -0.2715 -0.5211
  176SOPE  C31020069   4.786   5.730   9.238 -0.0392 -0.1630  1.0951
  176SOPE  H10X20070   4.677   5.718   9.256 -0.3441  1.7793  0.7832
  176SOPE  H10Y20071   4.841   5.645   9.285 -0.3102 -2.2107 -2.0225
  176SOPE  C31120072   4.815   5.724   9.082  0.0190 -0.0067  0.1258
  176SOPE  H11X20073   4.798   5.620   9.046 -0.4088 -0.4844  1.6010
  176SOPE  H11Y20074   4.919   5.745   9.049 -0.6344 -0.6248 -2.5633
  176SOPE  C31220075   4.730   5.826   9.005 -0.1177  0.3302 -0.0159
  176SOPE  H12X20076   4.767   5.924   9.042 -1.2319  0.8152 -0.1393
  176SOPE  H12Y20077   4.621   5.828   9.030  0.1221 -0.6953  1.2533
  176SOPE  C31320078   4.755   5.802   8.857  0.2181 -0.3910  0.6311
  176SOPE  H13X20079   4.860   5.827   8.831 -0.6884  0.8545 -2.1460
  176SOPE  H13Y20080   4.685   5.871   8.806  0.2287  0.4633  1.7327
  176SOPE  C31420081   4.739   5.658   8.789  0.0297  1.1585  0.6069
  176SOPE  H14X20082   4.662   5.591   8.833 -0.0860 -0.4348 -1.8045
  176SOPE  H14Y20083   4.837   5.608   8.802  0.2905  1.0077 -1.5662
  176SOPE  C31520084   4.698   5.671   8.643  0.8053 -0.3567 -0.2226
  176SOPE  H15X20085   4.704   5.564   8.616  1.6245 -0.4806  0.4219
  176SOPE  H15Y20086   4.761   5.744   8.588  1.1512 -0.6366 -0.2029
  176SOPE  C31620087   4.550   5.727   8.635  0.0916  0.4437 -0.6212
  176SOPE  H16X20088   4.540   5.825   8.686  0.5909  0.5013 -0.6370
  176SOPE  H16Y20089   4.483   5.662   8.697 -0.2589 -0.0219 -1.4717
  176SOPE  C31720090   4.488   5.740   8.493  0.1617  0.4834  0.2183
  176SOPE  H17X20091   4.544   5.819   8.439 -0.7825  1.6111  0.8345
  176SOPE  H17Y20092   4.383   5.776   8.494 -0.1827 -0.4596 -0.5382
  176SOPE  C31820093   4.487   5.614   8.413 -0.4527  0.2064  0.2186
  176SOPE  H18X20094   4.579   5.552   8.419 -0.2871  0.4484  0.1899
  176SOPE  H18Y20095   4.475   5.638   8.305  2.3379  1.8480  0.1667
  176SOPE  H18Z20096   4.400   5.551   8.440  0.2214 -0.2333  1.4111
  177SOPE     N20097   4.873   3.239  10.841 -0.1865 -0.5303 -0.0986
  177SOPE   HN120098   4.832   3.317  10.896  3.2755  1.3364  0.1080
  177SOPE   HN220099   4.961   3.273  10.798 -0.6356  1.4396  0.4244
  177SOPE   HN320100   4.806   3.198  10.772  1.5824 -1.4445 -1.3236
  177SOPE   C1220101   4.916   3.145  10.943 -0.1267  0.1718 -0.1157
  177SOPE  H12A20102   4.833   3.074  10.958  0.9675 -0.9191  1.0573
  177SOPE  H12B20103   4.917   3.211  11.032  1.0327  4.2196 -2.8778
  177SOPE   C1120104   5.047   3.081  10.904  0.2351  0.1639  0.3420
  177SOPE  H11A20105   5.065   2.998  10.976 -1.5360 -1.1194 -0.6233
  177SOPE  H11B20106   5.129   3.152  10.930  0.8810 -1.0587  1.7965
  177SOPE     P20107   5.007   2.905  10.710 -0.1426  0.0750 -0.2558
  177SOPE   O1320108   4.899   2.861  10.804 -0.1479  0.1729 -0.3416
  177SOPE   O1420109   5.118   2.809  10.684  0.6361  0.8823 -0.0722
  177SOPE   O1220110   5.068   3.047  10.770 -0.0197  0.7442  0.2034
  177SOPE   O1120111   4.950   2.957  10.579  0.2266  0.6236 -0.0879
  177SOPE    C120112   5.006   3.068  10.514  0.1487  0.0355  0.0680
  177SOPE    HA20113   5.116   3.067  10.528  0.0338 -0.1434  0.9646
  177SOPE    HB20114   4.967   3.165  10.554  0.0521 -0.8437  2.2218
  177SOPE    C220115   4.973   3.074  10.363 -0.0748 -0.2659 -0.2387
  177SOPE    HS20116   5.025   3.166  10.328 -0.2833 -0.1548 -0.2597
  177SOPE   O2120117   4.836   3.068  10.338 -0.2389  0.0413  0.1382
  177SOPE   C2120118   4.767   3.164  10.379 -0.4692 -0.1319 -0.3214
  177SOPE   O2220119   4.805   3.269  10.429 -0.0418  0.2819  0.1512
  177SOPE   C2220120   4.621   3.138  10.366  0.0213  0.2124  0.6034
  177SOPE   H2R20121   4.572   3.154  10.464 -2.4369 -1.0306 -0.3317
  177SOPE   H2S20122   4.593   3.032  10.345 -1.4915  0.7726 -0.3789
  177SOPE    C320123   5.050   2.963  10.282 -0.3669 -0.3791  0.3650
  177SOPE    HX20124   5.032   2.871  10.342 -0.4894 -1.2761 -1.0066
  177SOPE    HY20125   5.156   2.993  10.274 -0.3896 -0.4023  0.0043
  177SOPE   O3120126   4.999   2.932  10.154 -0.5353  0.2507  0.5066
  177SOPE   C3120127   5.031   3.021  10.069 -0.2354 -0.0468  0.9554
  177SOPE   O3220128   5.102   3.118  10.091  0.0169  0.1766 -0.5260
  177SOPE   C3220129   4.948   3.000   9.945  0.4813 -0.6672 -0.1792
  177SOPE   H2X20130   4.865   3.073   9.948 -0.0130 -1.2038 -0.5860
  177SOPE   H2Y20131   4.897   2.901   9.951  1.1727 -0.9375  1.7708
  177SOPE   C2320132   4.565   3.243  10.264  0.1806  0.6736  0.1063
  177SOPE   H3R20133   4.585   3.345  10.304 -2.6304  0.9012  1.1149
  177SOPE   H3S20134   4.454   3.238  10.258  0.2702 -1.6391 -0.5385
  177SOPE   C2420135   4.626   3.224  10.125  0.5869  0.9491 -0.0088
  177SOPE   H4R20136   4.694   3.312  10.116  0.4829  1.4191  2.8624
  177SOPE   H4S20137   4.691   3.133  10.123 -1.4578 -0.5906  0.6509
  177SOPE   C2520138   4.506   3.220  10.029 -0.6728 -0.7981  0.2313
  177SOPE   H5R20139   4.437   3.141  10.068 -0.6668 -0.9970 -0.1569
  177SOPE   H5S20140   4.472   3.325  10.041 -0.0833 -0.5054 -0.5464
  177SOPE   C2620141   4.548   3.186   9.892 -0.0380  0.0533 -0.4749
  177SOPE   H6R20142   4.603   3.260   9.829  2.1092 -1.7519 -0.8325
  177SOPE   H6S20143   4.621   3.104   9.906 -0.2503 -0.3667 -1.6680
  177SOPE   C2720144   4.439   3.142   9.800  0.4160 -0.2312  0.0381
  177SOPE   H7R20145   4.412   3.042   9.842 -0.5169  0.7178  1.8088
  177SOPE   H7S20146   4.347   3.203   9.814  0.3449  0.4593 -2.8688
  177SOPE   C2820147   4.477   3.142   9.648 -0.5990 -0.2120  0.6339
  177SOPE   H8R20148   4.468   3.237   9.592 -1.0178 -1.2076 -1.0652
  177SOPE   H8S20149   4.578   3.097   9.641 -1.0083 -1.2641  1.1755
  177SOPE   C2920150   4.386   3.050   9.573 -0.0357  0.1649 -0.2984
  177SOPE   H9120151   4.327   2.975   9.627 -3.8005  2.5158 -0.7423
  177SOPE  C21020152   4.369   3.042   9.436  0.1890  0.3228  0.3487
  177SOPE  H10120153   4.298   2.969   9.395 -0.9514  0.7734  1.4278
  177SOPE  C21120154   4.443   3.130   9.336  0.8012 -0.5065 -0.7149
  177SOPE  H11R20155   4.518   3.188   9.394  0.3118 -2.7181  2.3318
  177SOPE  H11S20156   4.382   3.207   9.283  0.6596  0.5704  0.9573
  177SOPE  C21220157   4.514   3.041   9.228  0.3715 -0.5538 -0.0903
  177SOPE  H12R20158   4.554   2.952   9.280  0.5767 -0.5487 -0.2371
  177SOPE  H12S20159   4.600   3.097   9.186  0.3266  1.6544  2.5071
  177SOPE  C21320160   4.436   3.014   9.098 -0.4585  0.0622  0.1357
  177SOPE  H13R20161   4.401   3.106   9.046  2.0680  0.8876 -0.2581
  177SOPE  H13S20162   4.345   2.958   9.128 -0.4414 -0.2386 -0.3646
  177SOPE  C21420163   4.514   2.931   8.995  0.5587  0.0295 -0.4089
  177SOPE  H14R20164   4.451   2.917   8.905 -0.1683  1.7907 -0.2161
  177SOPE  H14S20165   4.544   2.838   9.048 -0.8224  1.0473  2.4095
  177SOPE  C21520166   4.641   3.001   8.942  0.5287 -0.5971  0.5843
  177SOPE  H15R20167   4.692   2.932   8.873  0.6797 -1.8748  1.9194
  177SOPE  H15S20168   4.718   3.018   9.021  0.2468 -0.3582  0.8121
  177SOPE  C21620169   4.613   3.137   8.872  0.1127  0.4324  0.2320
  177SOPE  H16R20170   4.611   3.221   8.943 -2.1488  1.2081 -0.6761
  177SOPE  H16S20171   4.512   3.137   8.826  1.2704 -0.8948 -2.6031
  177SOPE  C21720172   4.718   3.180   8.767 -0.3706 -0.0112  0.0599
  177SOPE  H17R20173   4.817   3.191   8.816  0.8250 -0.2972 -2.1681
  177SOPE  H17S20174   4.687   3.282   8.735 -3.7566 -0.9645 -0.0968
  177SOPE  C21820175   4.742   3.098   8.638 -0.6889  0.4038 -0.8744
  177SOPE  H18R20176   4.721   2.990   8.652  0.3375  0.2483 -0.4535
  177SOPE  H18S20177   4.848   3.109   8.605  0.1971 -1.7239  1.0123
  177SOPE  H18T20178   4.667   3.129   8.562 -2.2058 -1.6199 -0.2949
  177SOPE   C3320179   5.021   3.017   9.812 -0.1674 -0.2343 -0.4807
  177SOPE   H3X20180   5.092   2.934   9.788  0.8017  0.4033  0.1074
  177SOPE   H3Y20181   5.092   3.102   9.813 -1.4672  0.8968 -1.1022
  177SOPE   C3420182   4.926   3.025   9.694  0.5058  0.2401  0.4972
  177SOPE   H4X20183   4.852   3.104   9.718 -0.3996 -0.6613  0.7569
  177SOPE   H4Y20184   4.876   2.926   9.685 -1.0884  0.7866  2.4460
  177SOPE   C3520185   4.993   3.063   9.562 -0.1119 -0.5604 -0.6568
  177SOPE   H5X20186   5.061   2.976   9.546 -2.6188 -2.7520 -0.1282
  177SOPE   H5Y20187   5.059   3.151   9.573 -1.3011  0.3078 -0.3069
  177SOPE   C3620188   4.896   3.084   9.448  0.2563  0.3888 -0.5218
  177SOPE   H6X20189   4.859   3.189   9.447 -1.6700 -0.2221  0.6138
  177SOPE   H6Y20190   4.807   3.017   9.454  0.6688 -0.3165 -1.7678
  177SOPE   C3720191   4.951   3.057   9.304  0.3139  0.1889 -0.1367
  177SOPE   H7X20192   5.055   3.096   9.316  0.0950  0.8569 -0.3471
  177SOPE   H7Y20193   4.905   3.097   9.212  0.3196  0.4134 -0.0437
  177SOPE   C3820194   4.967   2.902   9.281  0.7245  0.3331 -0.5777
  177SOPE   H8X20195   4.863   2.866   9.263  0.5653  0.7556 -0.5168
  177SOPE   H8Y20196   5.010   2.864   9.376 -0.6313  0.9214  0.3103
  177SOPE   C3920197   5.054   2.855   9.163  0.1422 -0.6293 -0.5136
  177SOPE   H9X20198   5.054   2.744   9.158 -0.4700 -0.5906 -1.9023
  177SOPE   H9Y20199   5.160   2.878   9.184 -0.1803  1.2943 -0.8721
  177SOPE  C31020200   5.010   2.915   9.032  0.3236 -1.1864 -0.1811
  177SOPE  H10X20201   5.022   3.025   9.043  1.3535 -1.4905  2.1407
  177SOPE  H10Y20202   4.906   2.880   9.015  0.4205 -2.2479  1.2870
  177SOPE  C31120203   5.092   2.869   8.915  0.0226 -0.2168 -0.1211
  177SOPE  H11X20204   5.103   2.760   8.931  1.6318  0.0634  1.0218
  177SOPE  H11Y20205   5.191   2.921   8.917  0.1768 -0.3616 -2.0543
  177SOPE  C31220206   5.043   2.907   8.775 -0.3586  0.3059 -0.3257
  177SOPE  H12X20207   5.045   3.018   8.760  1.7601  0.3205 -0.2691
  177SOPE  H12Y20208   4.934   2.890   8.764 -0.4760  1.3739 -1.0384
  177SOPE  C31320209   5.099   2.828   8.663 -0.4715 -0.3970  0.3179
  177SOPE  H13X20210   5.039   2.818   8.570 -1.7111 -1.9598  1.2172
  177SOPE  H13Y20211   5.098   2.721   8.695 -1.4812 -0.0203  1.6529
  177SOPE  C31420212   5.242   2.863   8.625 -0.2676 -0.1462 -0.0623
  177SOPE  H14X20213   5.285   2.765   8.599  0.0302 -0.5273  1.7298
  177SOPE  H14Y20214   5.301   2.907   8.709 -0.4371 -1.7741  0.9564
  177SOPE  C31520215   5.257   2.955   8.506  0.2883  0.6813 -0.0710
  177SOPE  H15X20216   5.187   3.041   8.519  0.6730  0.6479  3.1225
  177SOPE  H15Y20217   5.222   2.880   8.432  1.0445  1.0585 -0.8326
  177SOPE  C31620218   5.394   3.003   8.476 -0.0384 -0.5152 -0.1051
  177SOPE  H16X20219   5.455   2.910   8.471  0.3060 -0.2412 -2.5874
  177SOPE  H16Y20220   5.424   3.065   8.563  0.6447 -1.1622  0.1332
  177SOPE  C31720221   5.408   3.089   8.349  0.1511 -0.4609 -0.3774
  177SOPE  H17X20222   5.468   3.179   8.376  0.9941 -1.1193 -0.0340
  177SOPE  H17Y20223   5.313   3.131   8.308 -0.4622 -1.0157  0.4475
  177SOPE  C31820224   5.470   3.023   8.233 -0.3208 -0.7231  0.5094
  177SOPE  H18X20225   5.422   2.927   8.204  3.6690 -2.2831 -1.8212
  177SOPE  H18Y20226   5.577   3.001   8.254 -0.5586  0.0081  2.6722
  177SOPE  H18Z20227   5.470   3.092   8.145 -1.2034 -0.9476  0.3263
  178SOPE     N20228   1.624   1.329  11.023 -0.2472  0.3107  0.2004
  178SOPE   HN120229   1.587   1.277  10.941 -1.5642  3.5455 -1.4240
  178SOPE   HN220230   1.536   1.332  11.079 -0.6050 -1.3869 -0.2262
  178SOPE   HN320231   1.651   1.426  10.997  1.2035 -0.6241 -2.1393
  178SOPE   C1220232   1.721   1.233  11.092 -0.5934 -0.5119  0.5294
  178SOPE  H12A20233   1.774   1.296  11.167 -0.8575 -0.0141  0.3049
  178SOPE  H12B20234   1.788   1.211  11.006 -0.4357  0.1145  0.4856
  178SOPE   C1120235   1.654   1.116  11.156 -0.7277 -0.1496  0.3116
  178SOPE  H11A20236   1.569   1.140  11.224 -0.5757 -0.9611  0.7991
  178SOPE  H11B20237   1.728   1.071  11.226 -0.4866  2.4989  1.9044
  178SOPE     P20238   1.666   0.892  11.017 -0.1954 -0.1102 -0.1191
  178SOPE   O1320239   1.609   0.813  11.125  0.1333  0.7344 -0.3757
  178SOPE   O1420240   1.814   0.904  11.006 -0.1396  0.3916 -0.6241
  178SOPE   O1220241   1.609   1.037  11.036 -0.4023  0.1354 -0.3185
  178SOPE   O1120242   1.621   0.839  10.874  0.1383  0.4141 -0.0227
  178SOPE    C120243   1.553   0.920  10.786 -0.2850 -0.0915 -0.1678
  178SOPE    HA20244   1.568   1.029  10.802  1.7774 -0.5158  1.0918
  178SOPE    HB20245   1.444   0.899  10.788 -0.7026  1.9336  0.8939
  178SOPE    C220246   1.599   0.873  10.645  0.2137  0.2234  0.3401
  178SOPE    HS20247   1.625   0.766  10.654 -0.2773  0.1295  0.6543
  178SOPE   O2120248   1.710   0.953  10.599  0.0177 -0.1430  0.2699
  178SOPE   C2120249   1.799   0.889  10.515 -0.7209 -0.4850 -0.5162
  178SOPE   O2220250   1.809   0.767  10.503  0.0912 -0.1516 -0.5013
  178SOPE   C2220251   1.895   0.985  10.445 -0.0644 -1.1732  0.1938
  178SOPE   H2R20252   1.923   0.934  10.350 -1.7601 -1.5024 -0.1678
  178SOPE   H2S20253   1.975   1.009  10.518 -0.1393  0.3110 -0.1700
  178SOPE    C320254   1.484   0.881  10.533 -0.9072  0.2099  0.4304
  178SOPE    HX20255   1.442   0.984  10.526 -1.3467  0.3037  3.1397
  178SOPE    HY20256   1.399   0.826  10.580 -0.5816 -0.3867  0.3231
  178SOPE   O3120257   1.510   0.825  10.404  0.3411 -0.0932  0.0578
  178SOPE   C3120258   1.529   0.696  10.392 -1.1685  0.0728 -0.3411
  178SOPE   O3220259   1.513   0.617  10.480 -0.3233 -0.2219 -0.7990
  178SOPE   C3220260   1.587   0.658  10.264  0.4531 -0.7859 -0.4907
  178SOPE   H2X20261   1.640   0.562  10.280 -1.6095 -2.1323 -1.3420
  178SOPE   H2Y20262   1.662   0.737  10.241 -0.9479  0.5186 -0.7666
  178SOPE   C2320263   1.820   1.114  10.400  0.2133  0.1630 -0.6958
  178SOPE   H3R20264   1.883   1.202  10.377 -0.2782  1.0034  0.9570
  178SOPE   H3S20265   1.769   1.166  10.485 -0.4918  0.9276 -1.5696
  178SOPE   C2420266   1.714   1.081  10.292 -0.6804  0.0414 -0.6164
  178SOPE   H4R20267   1.642   1.003  10.324  0.1212 -0.4939 -0.0508
  178SOPE   H4S20268   1.653   1.172  10.277  0.7514  1.2103  0.2982
  178SOPE   C2520269   1.769   1.036  10.153 -0.0564  0.0101  0.2124
  178SOPE   H5R20270   1.846   1.109  10.121 -0.5594  0.0382 -0.9873
  178SOPE   H5S20271   1.807   0.932  10.148  0.0973  0.1391 -3.0777
  178SOPE   C2620272   1.664   1.044  10.053  0.9679 -0.2246  0.0779
  178SOPE   H6R20273   1.588   0.964  10.062 -2.1203  2.4135 -0.4069
  178SOPE   H6S20274   1.603   1.136  10.070 -0.6942 -0.9870 -1.5295
  178SOPE   C2720275   1.713   1.025   9.907 -0.1194  0.0777 -0.0267
  178SOPE   H7R20276   1.790   1.102   9.884  1.4069 -1.9493 -2.1482
  178SOPE   H7S20277   1.760   0.927   9.886  1.2371  0.5938  0.4753
  178SOPE   C2820278   1.589   1.039   9.815  0.0988  0.1457 -0.0560
  178SOPE   H8R20279   1.535   1.128   9.854 -2.5149 -1.5883  0.4996
  178SOPE   H8S20280   1.624   1.071   9.714  1.9747 -1.5164  0.0081
  178SOPE   C2920281   1.500   0.918   9.817  0.6563  0.2971  0.3922
  178SOPE   H9120282   1.462   0.888   9.916 -1.0786  0.5870 -0.1528
  178SOPE  C21020283   1.461   0.850   9.707 -0.0662  0.1309  0.7340
  178SOPE  H10120284   1.392   0.766   9.724 -1.0997  1.0306  1.1477
  178SOPE  C21120285   1.496   0.883   9.566  0.2925 -0.3464 -0.0196
  178SOPE  H11R20286   1.567   0.807   9.528  0.3728 -2.0664  3.2638
  178SOPE  H11S20287   1.543   0.984   9.556  3.0352 -1.6672 -1.9001
  178SOPE  C21220288   1.368   0.875   9.479  0.5790  0.1909  0.4580
  178SOPE  H12R20289   1.310   0.969   9.488  1.2738  0.5645  1.0661
  178SOPE  H12S20290   1.299   0.790   9.498  0.5540  0.2904  0.8195
  178SOPE  C21320291   1.407   0.886   9.327  0.3173 -0.4429 -0.3045
  178SOPE  H13R20292   1.491   0.816   9.304  0.9260 -0.2036  1.0566
  178SOPE  H13S20293   1.449   0.987   9.306 -2.1218  0.3583 -1.7207
  178SOPE  C21420294   1.285   0.864   9.229  0.1684  0.0178  0.6766
  178SOPE  H14R20295   1.209   0.937   9.265  0.1452  0.7782 -0.8441
  178SOPE  H14S20296   1.234   0.767   9.247 -0.0964  0.5181  3.0195
  178SOPE  C21520297   1.320   0.878   9.087  0.5435  0.3244  1.0059
  178SOPE  H15R20298   1.415   0.823   9.067  0.4803  0.1549  1.1655
  178SOPE  H15S20299   1.339   0.986   9.068  2.6045 -0.1565  0.0273
  178SOPE  C21620300   1.203   0.827   9.000  0.3865  0.0238 -0.1861
  178SOPE  H16R20301   1.194   0.719   9.023  0.8339  0.2691  1.2000
  178SOPE  H16S20302   1.235   0.837   8.894 -0.6230  3.1272 -0.2839
  178SOPE  C21720303   1.055   0.874   9.032 -0.3528  0.6146  0.0130
  178SOPE  H17R20304   1.066   0.984   9.024  2.3099  0.3357 -1.2991
  178SOPE  H17S20305   1.014   0.850   9.133 -1.6193  0.3215 -0.5498
  178SOPE  C21820306   0.965   0.818   8.927  0.6738 -0.2214  0.3299
  178SOPE  H18R20307   0.947   0.710   8.947 -0.7133  0.0340  0.5747
  178SOPE  H18S20308   1.009   0.833   8.827 -0.2460  1.8508  0.1895
  178SOPE  H18T20309   0.868   0.868   8.947  0.3943 -1.5152  2.6356
  178SOPE   C3320310   1.469   0.648  10.167  0.5068 -0.3075 -0.6993
  178SOPE   H3X20311   1.433   0.751  10.144  1.5648 -0.5308 -3.8899
  178SOPE   H3Y20312   1.381   0.600  10.214 -0.8568  2.1787 -0.5111
  178SOPE   C3420313   1.496   0.568  10.035 -0.5613  0.3465 -0.1924
  178SOPE   H4X20314   1.530   0.466  10.063  0.6253  0.5604 -0.7918
  178SOPE   H4Y20315   1.568   0.625   9.972  2.1948 -1.8437  0.7545
  178SOPE   C3520316   1.370   0.537   9.952  0.8053 -0.5516  0.3634
  178SOPE   H5X20317   1.304   0.626   9.945 -0.4167 -1.3852  0.9169
  178SOPE   H5Y20318   1.312   0.457  10.002 -1.0951 -1.1090 -2.4871
  178SOPE   C3620319   1.402   0.479   9.809  0.1092 -0.3484  0.4415
  178SOPE   H6X20320   1.471   0.393   9.823 -2.1390 -2.2936  0.2619
  178SOPE   H6Y20321   1.464   0.553   9.754  1.4016 -0.7733  1.3042
  178SOPE   C3720322   1.279   0.440   9.730  0.0713 -0.0245  0.0549
  178SOPE   H7X20323   1.199   0.510   9.762  1.2281  1.9363 -1.1103
  178SOPE   H7Y20324   1.252   0.335   9.755 -0.3447  0.5031  1.9473
  178SOPE   C3820325   1.313   0.460   9.578  0.0025 -0.0971 -0.4833
  178SOPE   H8X20326   1.393   0.383   9.567  1.3550  1.1221  0.4402
  178SOPE   H8Y20327   1.377   0.550   9.571  0.0908  0.1703  2.6437
  178SOPE   C3920328   1.209   0.457   9.467 -0.0842 -0.2408  0.3856
  178SOPE   H9X20329   1.148   0.549   9.485  2.9876  1.9633  0.2668
  178SOPE   H9Y20330   1.135   0.374   9.465 -0.2567 -0.0884  0.3453
  178SOPE  C31020331   1.271   0.459   9.336  0.3801 -0.2414 -0.2879
  178SOPE  H10X20332   1.301   0.353   9.322 -1.3006 -0.6585 -1.0174
  178SOPE  H10Y20333   1.358   0.527   9.322  2.5028 -2.4866  1.1989
  178SOPE  C31120334   1.154   0.460   9.235 -0.2223 -0.2701  0.2972
  178SOPE  H11X20335   1.118   0.565   9.247  1.2636  0.3070 -0.0449
  178SOPE  H11Y20336   1.087   0.374   9.257  0.9314 -1.4639 -0.7586
  178SOPE  C31220337   1.201   0.444   9.093  0.0822 -0.1163 -0.7071
  178SOPE  H12X20338   1.250   0.344   9.087 -0.5722 -0.4324 -0.9036
  178SOPE  H12Y20339   1.270   0.528   9.072 -0.6390  0.5891 -0.2861
  178SOPE  C31320340   1.080   0.450   8.993 -1.0530  0.2463 -0.2067
  178SOPE  H13X20341   1.039   0.548   9.026 -0.2020  0.1266  1.2635
  178SOPE  H13Y20342   1.003   0.373   9.012 -0.5391 -0.4733 -0.9455
  178SOPE  C31420343   1.123   0.450   8.850  0.3033  0.3191  0.0367
  178SOPE  H14X20344   1.178   0.359   8.818 -3.6306 -1.5551 -2.0901
  178SOPE  H14Y20345   1.198   0.531   8.839 -0.0334  0.4141 -1.9045
  178SOPE  C31520346   1.014   0.473   8.748  0.6860  0.2045  0.5854
  178SOPE  H15X20347   0.961   0.569   8.764  2.1496  1.2909 -0.8184
  178SOPE  H15Y20348   0.942   0.388   8.755  1.8080 -0.8085  0.1010
  178SOPE  C31620349   1.072   0.482   8.602 -0.2866  0.2996 -0.7186
  178SOPE  H16X20350   1.104   0.381   8.569 -1.8899 -0.3293 -0.4431
  178SOPE  H16Y20351   1.174   0.525   8.605  0.1379 -0.7165 -0.0825
  178SOPE  C31720352   0.982   0.557   8.503 -0.2621 -0.1338 -0.3791
  178SOPE  H17X20353   1.057   0.592   8.428  2.5095 -0.5143  2.0100
  178SOPE  H17Y20354   0.938   0.650   8.544 -0.0412 -0.8903  1.6962
  178SOPE  C31820355   0.881   0.466   8.437 -0.3572 -0.0664  1.3473
  178SOPE  H18X20356   0.934   0.395   8.371 -0.7210  1.0032 -0.1595
  178SOPE  H18Y20357   0.806   0.525   8.378  1.3650 -0.1124 -1.0516
  178SOPE  H18Z20358   0.830   0.413   8.520 -0.9263  0.0942  1.1045
  179SOPE     N20359   5.192   3.230   5.974  0.3144  0.9590 -0.2717
  179SOPE   HN120360   5.264   3.282   6.028  0.2634  1.3604 -0.5925
  179SOPE   HN220361   5.220   3.144   5.922 -0.7988  1.0908 -1.1149
  179SOPE   HN320362   5.161   3.298   5.902 -0.5956  0.3137 -0.5097
  179SOPE   C1220363   5.081   3.197   6.072  0.3751 -0.0721 -0.3459
  179SOPE  H12A20364   5.131   3.130   6.145  2.8411 -0.1809 -2.0112
  179SOPE  H12B20365   4.995   3.151   6.018 -1.6695  0.6049  2.1255
  179SOPE   C1120366   5.033   3.330   6.143 -0.0878  0.5095  0.7923
  179SOPE  H11A20367   5.117   3.390   6.183 -0.3247  0.1856  1.7929
  179SOPE  H11B20368   4.975   3.287   6.228  0.7092  2.6915  2.5210
  179SOPE     P20369   4.888   3.537   6.112  0.4975 -0.0331  0.1422
  179SOPE   O1320370   4.781   3.491   6.203 -0.0360  0.0950  0.2819
  179SOPE   O1420371   4.846   3.619   5.999  0.3929  0.0488  0.2673
  179SOPE   O1220372   4.953   3.411   6.060 -0.3534 -0.5145 -0.1533
  179SOPE   O1120373   5.006   3.605   6.189 -0.0217 -0.5730  0.1695
  179SOPE    C120374   5.000   3.733   6.240 -0.5372 -0.3001  0.2451
  179SOPE    HA20375   4.916   3.791   6.196 -0.8493 -0.3511  0.7702
  179SOPE    HB20376   5.092   3.784   6.204 -1.0600 -0.2317 -1.0489
  179SOPE    C220377   5.001   3.737   6.397  0.2950  0.2403  0.0331
  179SOPE    HS20378   4.919   3.678   6.442  1.7936 -0.8341  1.4666
  179SOPE   O2120379   5.005   3.879   6.438  0.8923 -0.2101  0.2636
  179SOPE   C2120380   4.896   3.917   6.512 -0.8205 -0.6896  0.4969
  179SOPE   O2220381   4.799   3.848   6.526 -0.3820 -0.0367  0.1074
  179SOPE   C2220382   4.915   4.063   6.572 -0.1412  0.1237 -0.5178
  179SOPE   H2R20383   4.843   4.122   6.512  0.6643 -0.2421 -1.8994
  179SOPE   H2S20384   5.019   4.097   6.558  0.4982 -2.3233 -2.6196
  179SOPE    C320385   5.121   3.654   6.449 -0.1256 -0.8149  0.5800
  179SOPE    HX20386   5.205   3.713   6.404 -0.7713 -0.6547 -0.4521
  179SOPE    HY20387   5.123   3.550   6.411  0.6117 -0.7795  0.5095
  179SOPE   O3120388   5.123   3.643   6.592 -0.5846  0.1227  0.1197
  179SOPE   C3120389   5.239   3.685   6.645  0.1276  0.0247  0.1906
  179SOPE   O3220390   5.328   3.735   6.582 -0.2315 -0.5915 -0.0067
  179SOPE   C3220391   5.247   3.683   6.804 -0.2007  0.4648  0.3649
  179SOPE   H2X20392   5.189   3.595   6.840 -2.8050  2.1462  0.4897
  179SOPE   H2Y20393   5.210   3.779   6.845 -1.7770  0.8535 -1.7798
  179SOPE   C2320394   4.883   4.069   6.725 -0.4419 -0.1139 -0.4944
  179SOPE   H3R20395   4.776   4.041   6.738 -0.6673 -0.2852 -2.4059
  179SOPE   H3S20396   4.884   4.174   6.760  2.6423 -0.5221  0.9216
  179SOPE   C2420397   4.981   3.994   6.811  0.4607  0.3606  0.0923
  179SOPE   H4R20398   4.962   3.884   6.816 -0.1814  0.4534 -0.1586
  179SOPE   H4S20399   5.086   4.005   6.779  0.7747 -1.3288  0.4125
  179SOPE   C2520400   4.986   4.049   6.953  0.6871 -0.2701 -0.3044
  179SOPE   H5R20401   4.981   4.160   6.953  1.0515 -0.2494 -0.6023
  179SOPE   H5S20402   4.894   4.017   7.006 -0.0730  0.7340 -0.9703
  179SOPE   C2620403   5.116   4.015   7.025  0.5540 -0.2212  0.3630
  179SOPE   H6R20404   5.126   3.904   7.023  0.2865 -0.2810 -2.4590
  179SOPE   H6S20405   5.208   4.063   6.985  0.7961 -0.1386  1.0095
  179SOPE   C2720406   5.102   4.058   7.169  0.2527  1.5211 -0.3149
  179SOPE   H7R20407   5.063   4.162   7.178  0.4033  1.4724  1.1793
  179SOPE   H7S20408   5.024   3.998   7.221  1.2505 -0.0672 -0.5747
  179SOPE   C2820409   5.230   4.048   7.243 -0.1239 -0.0855 -0.5453
  179SOPE   H8R20410   5.315   4.097   7.190 -1.0892  0.1165 -1.9904
  179SOPE   H8S20411   5.213   4.109   7.335  2.7529 -0.9606  0.6574
  179SOPE   C2920412   5.267   3.906   7.288  0.8191  0.0605  0.0182
  179SOPE   H9120413   5.315   3.844   7.211 -2.5348  0.5116 -2.6628
  179SOPE  C21020414   5.240   3.858   7.410 -0.2459  0.1931  0.0997
  179SOPE  H10120415   5.268   3.752   7.427  0.7001  0.4112 -0.0264
  179SOPE  C21120416   5.184   3.925   7.531  0.5310 -0.6136 -0.0015
  179SOPE  H11R20417   5.109   3.857   7.578  0.2208 -0.4155 -0.2086
  179SOPE  H11S20418   5.146   4.025   7.500  1.9740  0.4980  1.7061
  179SOPE  C21220419   5.298   3.944   7.628 -0.1444  0.3874 -0.3610
  179SOPE  H12R20420   5.368   4.025   7.595  0.5011  0.4305  1.0068
  179SOPE  H12S20421   5.365   3.856   7.640  0.6956  0.7745 -1.9646
  179SOPE  C21320422   5.249   3.975   7.774  0.7400 -0.5075 -0.2154
  179SOPE  H13R20423   5.180   3.890   7.795 -1.5550  1.3513  0.2223
  179SOPE  H13S20424   5.193   4.071   7.770  0.1383 -0.8934 -2.3706
  179SOPE  C21420425   5.361   3.988   7.883 -0.2543  0.5898  0.0343
  179SOPE  H14R20426   5.434   4.069   7.860  1.4102 -0.7167  0.4723
  179SOPE  H14S20427   5.422   3.898   7.859 -1.3762 -0.1434 -0.1732
  179SOPE  C21520428   5.310   3.986   8.019  0.6501  0.2655 -0.3754
  179SOPE  H15R20429   5.273   3.884   8.040 -0.9889  1.1853  1.5415
  179SOPE  H15S20430   5.224   4.056   8.028 -0.1241 -0.9063  1.9843
  179SOPE  C21620431   5.415   4.025   8.122 -0.2840  0.9757  0.4542
  179SOPE  H16R20432   5.467   4.120   8.096  2.7505  0.1784  3.0432
  179SOPE  H16S20433   5.490   3.943   8.125 -0.2530  0.9414 -0.6954
  179SOPE  C21720434   5.351   4.060   8.257 -0.1332 -0.0307  0.4743
  179SOPE  H17R20435   5.304   3.964   8.288  0.3212 -0.3186  0.2749
  179SOPE  H17S20436   5.267   4.133   8.257  0.1823  0.3339  0.5388
  179SOPE  C21820437   5.453   4.113   8.360  0.3990  0.7165 -0.6877
  179SOPE  H18R20438   5.404   4.177   8.436  1.3386  2.1865 -1.2805
  179SOPE  H18S20439   5.522   4.183   8.308  0.2672  2.7648  1.6951
  179SOPE  H18T20440   5.512   4.033   8.411 -2.3531 -0.5753  0.7034
  179SOPE   C3320441   5.392   3.672   6.853 -0.5804 -0.1696 -0.6188
  179SOPE   H3X20442   5.450   3.758   6.813  0.3322 -0.3577  0.2711
  179SOPE   H3Y20443   5.441   3.581   6.812 -1.7913 -1.0879 -0.0913
  179SOPE   C3420444   5.385   3.664   7.008 -1.2302  1.0324  0.3761
  179SOPE   H4X20445   5.299   3.598   7.032 -0.5752 -0.5903 -1.5310
  179SOPE   H4Y20446   5.349   3.763   7.044 -3.0506  0.5764 -0.1043
  179SOPE   C3520447   5.520   3.639   7.078 -1.0381  0.1663 -0.5690
  179SOPE   H5X20448   5.585   3.727   7.060  0.9381 -0.3121  3.1194
  179SOPE   H5Y20449   5.560   3.549   7.026  1.6565  1.0562 -0.1828
  179SOPE   C3620450   5.516   3.612   7.229  0.4454 -0.7664 -0.5416
  179SOPE   H6X20451   5.478   3.706   7.276 -1.0857 -0.9156 -1.4403
  179SOPE   H6Y20452   5.622   3.592   7.255  1.2126  2.3126 -0.8453
  179SOPE   C3720453   5.430   3.483   7.265  0.0307 -0.3680 -0.1250
  179SOPE   H7X20454   5.443   3.403   7.190  5.0256 -3.0137  3.0147
  179SOPE   H7Y20455   5.325   3.520   7.265 -0.0253 -0.3151 -3.1010
  179SOPE   C3820456   5.471   3.428   7.398  0.2298  0.1623 -0.6744
  179SOPE   H8X20457   5.581   3.413   7.397  0.0772 -1.0952 -0.8052
  179SOPE   H8Y20458   5.424   3.328   7.413 -1.1171  0.9149  0.2744
  179SOPE   C3920459   5.434   3.514   7.521  0.2639 -0.1026  0.1679
  179SOPE   H9X20460   5.326   3.508   7.545 -0.3748 -0.3121 -2.4516
  179SOPE   H9Y20461   5.460   3.617   7.486 -0.9262 -0.4484 -1.9452
  179SOPE  C31020462   5.502   3.472   7.645 -0.2317 -0.3836  0.0363
  179SOPE  H10X20463   5.611   3.486   7.629 -0.3030  0.9074  0.5680
  179SOPE  H10Y20464   5.481   3.363   7.659  2.0700 -0.9059 -0.1854
  179SOPE  C31120465   5.477   3.539   7.782 -0.1038  0.4846 -0.3936
  179SOPE  H11X20466   5.367   3.547   7.795 -0.3826 -0.6712 -1.8637
  179SOPE  H11Y20467   5.512   3.645   7.780  0.2304  0.5424  2.8068
  179SOPE  C31220468   5.563   3.481   7.894 -0.0712  0.2231 -0.0531
  179SOPE  H12X20469   5.667   3.477   7.855 -0.5951 -1.8121 -1.3566
  179SOPE  H12Y20470   5.530   3.378   7.918 -0.1399  0.2875  0.1314
  179SOPE  C31320471   5.542   3.566   8.023  0.0706  0.1090 -0.3260
  179SOPE  H13X20472   5.434   3.567   8.049 -0.0527 -1.0608 -0.7582
  179SOPE  H13Y20473   5.567   3.674   8.009 -0.5410  0.2685 -0.1901
  179SOPE  C31420474   5.618   3.503   8.140  0.5441  0.1066 -0.7269
  179SOPE  H14X20475   5.728   3.500   8.127  0.6512  0.3065  0.1083
  179SOPE  H14Y20476   5.600   3.393   8.136  2.5763 -0.3125  0.3722
  179SOPE  C31520477   5.586   3.564   8.281  0.5939  0.5225  0.1551
  179SOPE  H15X20478   5.636   3.663   8.288  1.7848  0.0809 -1.3400
  179SOPE  H15Y20479   5.634   3.505   8.362  2.6096 -0.0956 -1.3711
  179SOPE  C31620480   5.437   3.584   8.314 -0.0457  0.6650 -0.2405
  179SOPE  H16X20481   5.394   3.483   8.294 -1.6009  1.5740 -1.8069
  179SOPE  H16Y20482   5.401   3.669   8.252  0.1499  0.7094 -0.2939
  179SOPE  C31720483   5.392   3.630   8.446  0.0977  0.2904  0.2234
  179SOPE  H17X20484   5.296   3.685   8.436  1.0006  2.0324  0.7297
  179SOPE  H17Y20485   5.466   3.703   8.484  1.3290  0.1580 -1.7736
  179SOPE  C31820486   5.366   3.519   8.554  0.2055 -0.1396  0.0131
  179SOPE  H18X20487   5.342   3.568   8.651  0.1773  0.7358 -0.4276
  179SOPE  H18Y20488   5.458   3.458   8.569 -1.1541 -2.4581 -0.6367
  179SOPE  H18Z20489   5.286   3.445   8.535 -1.1422  0.8433  1.5641
  180SOPE     N20490   5.828   3.520   5.931 -0.3545  0.5701 -0.6169
  180SOPE   HN120491   5.876   3.428   5.938 -0.0032  0.8529  1.6215
  180SOPE   HN220492   5.733   3.516   5.890 -0.2250 -1.8859 -0.8342
  180SOPE   HN320493   5.886   3.583   5.872 -0.6409  2.6260  1.1619
  180SOPE   C1220494   5.838   3.549   6.085  0.7435  0.1398 -0.6755
  180SOPE  H12A20495   5.797   3.651   6.094  0.2451  0.0414 -1.6756
  180SOPE  H12B20496   5.945   3.539   6.112  1.1039 -0.5515 -2.2435
  180SOPE   C1120497   5.765   3.440   6.165 -1.0061 -0.4470  0.2410
  180SOPE  H11A20498   5.790   3.461   6.272  0.5353 -1.2240  0.0620
  180SOPE  H11B20499   5.804   3.344   6.127  1.0094  0.6646 -0.6462
  180SOPE     P20500   5.527   3.337   6.137  0.2459 -0.1161  0.3259
  180SOPE   O1320501   5.596   3.239   6.054  0.3869 -0.2123 -0.1743
  180SOPE   O1420502   5.388   3.375   6.091  0.3678 -0.5802  0.2062
  180SOPE   O1220503   5.622   3.468   6.159 -0.2181  0.3068  0.1591
  180SOPE   O1120504   5.517   3.285   6.283  0.2282 -0.3059 -0.0049
  180SOPE    C120505   5.491   3.376   6.400  0.0658 -0.0063  0.2210
  180SOPE    HA20506   5.382   3.391   6.416 -0.6166 -3.8591  0.0875
  180SOPE    HB20507   5.544   3.472   6.384  1.7787 -0.7654  1.1121
  180SOPE    C220508   5.550   3.305   6.525 -0.1363 -1.0349 -0.6226
  180SOPE    HS20509   5.660   3.319   6.523 -0.2711  0.1260 -0.5172
  180SOPE   O2120510   5.517   3.165   6.518  0.2920  0.6914 -0.0902
  180SOPE   C2120511   5.595   3.089   6.594 -0.2801  0.0022 -0.4189
  180SOPE   O2220512   5.712   3.122   6.626  0.4027  0.2161  0.1027
  180SOPE   C2220513   5.530   2.957   6.629 -0.4815  0.0023 -0.3805
  180SOPE   H2R20514   5.494   2.904   6.538 -2.6712  1.4626 -0.4199
  180SOPE   H2S20515   5.440   2.982   6.689 -1.0360 -1.9468 -0.3401
  180SOPE    C320516   5.488   3.371   6.656  0.0059  0.1447 -0.7074
  180SOPE    HX20517   5.377   3.368   6.656 -0.0356 -1.7120  1.9832
  180SOPE    HY20518   5.520   3.478   6.649  0.3071  0.0285 -1.1498
  180SOPE   O3120519   5.519   3.311   6.783  0.3912 -0.1762 -0.2423
  180SOPE   C3120520   5.632   3.347   6.848 -0.9996  0.2207  0.5065
  180SOPE   O3220521   5.703   3.441   6.821 -0.3570 -0.4350  0.0889
  180SOPE   C3220522   5.648   3.249   6.961 -0.6155 -0.7678 -0.6722
  180SOPE   H2X20523   5.599   3.154   6.931  0.0258 -1.3429  0.0713
  180SOPE   H2Y20524   5.584   3.281   7.046  2.0250 -0.2375  1.2408
  180SOPE   C2320525   5.627   2.865   6.701  0.4426  0.5110 -0.7086
  180SOPE   H3R20526   5.661   2.912   6.796 -0.8168  0.0146  0.0042
  180SOPE   H3S20527   5.727   2.846   6.655  1.1956  2.0663  0.1778
  180SOPE   C2420528   5.573   2.720   6.727 -0.1959  0.0922  0.4159
  180SOPE   H4R20529   5.469   2.729   6.766 -1.5040  0.0621 -2.7135
  180SOPE   H4S20530   5.565   2.671   6.627  0.3705  1.0863 -0.1427
  180SOPE   C2520531   5.655   2.624   6.811 -0.4313  0.2683  0.4378
  180SOPE   H5R20532   5.598   2.534   6.840 -1.0446  0.7690  0.8206
  180SOPE   H5S20533   5.732   2.584   6.742 -3.7959 -2.2504 -2.1963
  180SOPE   C2620534   5.712   2.677   6.944 -0.1758  0.0008  0.0011
  180SOPE   H6R20535   5.795   2.748   6.923 -0.8456  0.5461 -0.8792
  180SOPE   H6S20536   5.639   2.724   7.013  0.0957 -0.5789  0.7004
  180SOPE   C2720537   5.777   2.562   7.020 -0.0432 -0.1316  0.2881
  180SOPE   H7R20538   5.703   2.480   7.029 -0.3549 -0.1107 -1.6866
  180SOPE   H7S20539   5.867   2.533   6.962  0.3495  3.4016 -1.0750
  180SOPE   C2820540   5.821   2.598   7.162  0.0998 -0.2936 -0.4941
  180SOPE   H8R20541   5.880   2.514   7.205 -0.8839 -1.0774 -0.6426
  180SOPE   H8S20542   5.892   2.683   7.163  1.4405 -1.2349 -3.4157
  180SOPE   C2920543   5.702   2.618   7.256 -0.0598 -0.5056 -0.7723
  180SOPE   H9120544   5.606   2.577   7.221  0.5091 -0.8637 -1.9543
  180SOPE  C21020545   5.715   2.672   7.380  0.1507  0.4642  0.5338
  180SOPE  H10120546   5.628   2.672   7.447 -0.0807  0.7769  0.2337
  180SOPE  C21120547   5.846   2.708   7.447  1.1738 -0.4635  0.5903
  180SOPE  H11R20548   5.831   2.806   7.497  1.7734 -0.9764  1.8426
  180SOPE  H11S20549   5.930   2.700   7.375  0.4962 -0.5561 -0.2011
  180SOPE  C21220550   5.883   2.601   7.547  0.5284  0.1560 -0.2972
  180SOPE  H12R20551   5.888   2.499   7.505  1.0099  0.0824 -0.0717
  180SOPE  H12S20552   5.810   2.602   7.631  2.4448  1.0535  1.4444
  180SOPE  C21320553   6.024   2.621   7.605 -0.3089  0.1066  0.3589
  180SOPE  H13R20554   6.033   2.730   7.624 -0.5779  0.0437  0.8512
  180SOPE  H13S20555   6.095   2.590   7.525 -0.5865 -0.2020  0.2287
  180SOPE  C21420556   6.046   2.552   7.745 -0.1995  0.1022 -0.1793
  180SOPE  H14R20557   6.045   2.441   7.739 -0.9057  0.1776 -2.3572
  180SOPE  H14S20558   5.960   2.581   7.809  0.3401  1.0067  0.1542
  180SOPE  C21520559   6.170   2.602   7.818 -0.8148 -0.0667 -0.0937
  180SOPE  H15R20560   6.166   2.582   7.928  0.7135  2.0492  0.4179
  180SOPE  H15S20561   6.173   2.713   7.813  0.4155 -0.0072  1.2553
  180SOPE  C21620562   6.307   2.544   7.769 -0.7306  0.4178  0.1099
  180SOPE  H16R20563   6.333   2.582   7.668  2.0982  0.0695  0.6180
  180SOPE  H16S20564   6.314   2.433   7.768  0.6501  0.4301 -2.8131
  180SOPE  C21720565   6.426   2.589   7.856 -0.2829 -0.4186  0.1066
  180SOPE  H17R20566   6.420   2.699   7.869 -0.5773 -0.4149 -0.0446
  180SOPE  H17S20567   6.521   2.581   7.800  0.6949  2.1559  1.2412
  180SOPE  C21820568   6.435   2.518   7.994  0.7272  0.0563  0.2780
  180SOPE  H18R20569   6.338   2.527   8.047  0.6542 -0.8984  0.3212
  180SOPE  H18S20570   6.513   2.556   8.065  0.1255 -1.4888  1.8504
  180SOPE  H18T20571   6.448   2.408   7.984  1.7289  0.2359 -0.6030
  180SOPE   C3320572   5.789   3.220   7.007  0.4218  0.6272  0.1380
  180SOPE   H3X20573   5.831   3.315   7.047 -1.1197  1.0363  0.8479
  180SOPE   H3Y20574   5.852   3.197   6.918 -0.8008  0.6915 -0.7672
  180SOPE   C3420575   5.805   3.117   7.117 -0.2917  0.8329  0.2662
  180SOPE   H4X20576   5.912   3.103   7.141 -0.7310 -3.5147  0.4570
  180SOPE   H4Y20577   5.757   3.022   7.085 -1.0867  0.9277  1.1062
  180SOPE   C3520578   5.734   3.165   7.244  0.4370  0.0947 -0.1062
  180SOPE   H5X20579   5.624   3.180   7.235  0.0933  0.3116  3.0353
  180SOPE   H5Y20580   5.792   3.256   7.268  1.2479 -0.3601 -0.3219
  180SOPE   C3620581   5.753   3.075   7.372 -0.3373 -0.3499 -0.2785
  180SOPE   H6X20582   5.861   3.046   7.375 -0.4166 -0.8888 -1.7427
  180SOPE   H6Y20583   5.698   2.979   7.367  0.2175 -0.6825 -0.1250
  180SOPE   C3720584   5.719   3.149   7.501 -0.3573  0.4301 -0.7744
  180SOPE   H7X20585   5.608   3.153   7.504 -0.3601  0.0610  0.0365
  180SOPE   H7Y20586   5.749   3.256   7.506 -3.3430  1.4488 -2.1363
  180SOPE   C3820587   5.776   3.076   7.623 -0.7686 -0.7417 -0.3241
  180SOPE   H8X20588   5.887   3.083   7.622 -0.6827 -1.7017 -2.2632
  180SOPE   H8Y20589   5.758   2.968   7.607  1.8625 -1.0431 -1.8233
  180SOPE   C3920590   5.725   3.137   7.754  0.3509  0.4334  0.0289
  180SOPE   H9X20591   5.615   3.123   7.768  0.5082 -1.1414 -0.1027
  180SOPE   H9Y20592   5.746   3.246   7.758 -0.5846  0.6312 -0.1495
  180SOPE  C31020593   5.796   3.075   7.885  0.4479  0.0995  0.4269
  180SOPE  H10X20594   5.795   2.969   7.853  1.3715 -0.3194  1.7186
  180SOPE  H10Y20595   5.729   3.089   7.973 -0.6255  1.4973 -0.5670
  180SOPE  C31120596   5.934   3.122   7.916  0.0412 -0.0366 -0.4277
  180SOPE  H11X20597   5.913   3.222   7.961 -1.6237 -0.7863  0.5260
  180SOPE  H11Y20598   5.983   3.130   7.816  0.0365 -1.6554 -0.5763
  180SOPE  C31220599   5.999   3.033   8.026  0.1013 -0.4538  0.9155
  180SOPE  H12X20600   5.975   2.931   7.988  2.5627  0.2900 -3.2599
  180SOPE  H12Y20601   5.946   3.052   8.122 -2.4883  0.7031 -0.6454
  180SOPE  C31320602   6.154   3.053   8.018 -0.0372 -0.0613  0.4688
  180SOPE  H13X20603   6.187   3.154   8.050  0.8308 -0.1396 -0.1308
  180SOPE  H13Y20604   6.189   3.026   7.916 -0.5337 -0.9023  0.5155
  180SOPE  C31420605   6.223   2.948   8.108  0.2983  0.3612 -0.2848
  180SOPE  H14X20606   6.193   2.849   8.066  1.8880 -0.6122  0.7848
  180SOPE  H14Y20607   6.177   2.950   8.209 -0.1805 -0.4605 -0.4732
  180SOPE  C31520608   6.379   2.960   8.102 -0.9283 -0.3209  0.5425
  180SOPE  H15X20609   6.405   3.055   8.154 -0.8475 -1.3206  2.4129
  180SOPE  H15Y20610   6.405   2.969   7.995 -2.5126  0.3847  0.1858
  180SOPE  C31620611   6.464   2.855   8.175  0.0348 -0.0362  0.1055
  180SOPE  H16X20612   6.572   2.874   8.159 -0.1306 -0.3792 -1.7186
  180SOPE  H16Y20613   6.437   2.755   8.133 -0.0215  1.4118 -3.7134
  180SOPE  C31720614   6.432   2.854   8.319  0.1128 -0.3965 -0.1628
  180SOPE  H17X20615   6.328   2.821   8.341  0.4862 -1.6163 -0.1189
  180SOPE  H17Y20616   6.435   2.959   8.355  2.0304  0.0127 -1.4005
  180SOPE  C31820617   6.524   2.765   8.413  0.0829 -0.1782 -0.2691
  180SOPE  H18X20618   6.458   2.712   8.485 -1.1969  0.0658 -1.2464
  180SOPE  H18Y20619   6.595   2.833   8.465  1.0383 -1.5273  0.2652
  180SOPE  H18Z20620   6.579   2.688   8.354 -1.3466 -2.0745  0.7492
  181SOPE     N20621   5.138   2.111   6.041 -0.3135 -0.8029 -0.2583
  181SOPE   HN120622   5.234   2.140   6.014 -0.8345  2.0491  0.6356
  181SOPE   HN220623   5.113   2.145   6.136  0.0494  0.1198 -0.4795
  181SOPE   HN320624   5.123   2.008   6.045 -0.9544 -0.6971  0.2635
  181SOPE   C1220625   5.048   2.172   5.940 -0.0016 -0.3435  1.3882
  181SOPE  H12A20626   4.946   2.151   5.979 -0.6813 -1.6385 -0.9011
  181SOPE  H12B20627   5.046   2.128   5.838 -0.7467  0.5451  1.0016
  181SOPE   C1120628   5.076   2.318   5.925 -0.2314 -0.2419 -0.2298
  181SOPE  H11A20629   5.056   2.367   6.023  3.1160  0.3607  0.2665
  181SOPE  H11B20630   5.005   2.367   5.856 -1.0502 -0.1794  0.6407
  181SOPE     P20631   5.305   2.451   5.926 -0.5767  0.3045 -0.2270
  181SOPE   O1320632   5.235   2.573   5.874  0.2714 -0.1056 -0.2229
  181SOPE   O1420633   5.434   2.414   5.876  0.2160  0.2497  0.4150
  181SOPE   O1220634   5.214   2.327   5.885  0.4961  0.0861 -0.1878
  181SOPE   O1120635   5.295   2.438   6.086  0.7550 -0.4046 -0.0364
  181SOPE    C120636   5.318   2.555   6.164 -0.2294 -0.6706  0.3724
  181SOPE    HA20637   5.230   2.623   6.175  0.1318 -0.1599  0.1465
  181SOPE    HB20638   5.399   2.611   6.113 -0.9092 -0.5401 -0.6063
  181SOPE    C220639   5.357   2.512   6.310  0.2842 -0.4827  1.0330
  181SOPE    HS20640   5.388   2.599   6.373 -2.3292 -0.2408  2.1267
  181SOPE   O2120641   5.452   2.408   6.304  0.3645 -0.0319  0.1580
  181SOPE   C2120642   5.574   2.445   6.348 -0.3065  0.5701 -0.2469
  181SOPE   O2220643   5.610   2.558   6.348 -0.3880 -0.8415 -0.9002
  181SOPE   C2220644   5.661   2.331   6.399 -0.6542  0.0445 -0.1908
  181SOPE   H2R20645   5.731   2.315   6.315  1.4569 -0.9303  1.6461
  181SOPE   H2S20646   5.599   2.240   6.409 -1.8237  0.8514  0.1835
  181SOPE    C320647   5.231   2.456   6.379  0.1764  0.1431 -0.2232
  181SOPE    HX20648   5.203   2.365   6.322 -1.4963  0.4949 -0.0041
  181SOPE    HY20649   5.151   2.530   6.360  0.7209  0.8027 -0.0101
  181SOPE   O3120650   5.248   2.426   6.519 -0.3256  0.0863 -0.6792
  181SOPE   C3120651   5.274   2.529   6.601  0.4246  0.1524 -0.3359
  181SOPE   O3220652   5.297   2.645   6.571  0.9228  0.0949 -0.0025
  181SOPE   C3220653   5.286   2.468   6.740  0.2151  0.4119 -1.2813
  181SOPE   H2X20654   5.189   2.450   6.791  1.8022  0.5334  2.0120
  181SOPE   H2Y20655   5.327   2.547   6.806  0.9224 -1.0156  0.0475
  181SOPE   C2320656   5.712   2.372   6.538  0.2645 -0.4398 -0.1409
  181SOPE   H3R20657   5.632   2.360   6.613 -0.2153 -3.7841 -1.0198
  181SOPE   H3S20658   5.735   2.481   6.536 -0.8118 -0.2051 -0.2024
  181SOPE   C2420659   5.829   2.290   6.589 -0.1326 -0.2877  0.1981
  181SOPE   H4R20660   5.794   2.185   6.598 -1.8517  0.3029  0.7172
  181SOPE   H4S20661   5.913   2.284   6.516  0.5864 -2.4801  1.1435
  181SOPE   C2520662   5.875   2.341   6.724 -0.4361 -0.0533  0.3943
  181SOPE   H5R20663   5.923   2.441   6.726  0.0383 -0.1068 -2.6428
  181SOPE   H5S20664   5.786   2.344   6.790 -0.4732  2.2485  0.3241
  181SOPE   C2620665   5.972   2.241   6.787 -0.7277 -0.3650 -0.3166
  181SOPE   H6R20666   5.934   2.137   6.779 -1.4974 -0.2318  1.2429
  181SOPE   H6S20667   6.069   2.237   6.731 -2.5216 -2.4301 -3.5874
  181SOPE   C2720668   5.993   2.269   6.935  0.7619  0.2300 -0.3157
  181SOPE   H7R20669   6.055   2.358   6.957  2.5703 -0.9268 -0.4863
  181SOPE   H7S20670   5.892   2.287   6.977  0.6891 -0.6753 -0.0737
  181SOPE   C2820671   6.072   2.147   7.004 -0.0616 -0.9344  0.3507
  181SOPE   H8R20672   6.151   2.117   6.932 -0.1068 -1.1904  0.4064
  181SOPE   H8S20673   6.124   2.197   7.088 -1.2785  4.4881 -1.6913
  181SOPE   C2920674   5.985   2.033   7.057 -0.9650  0.7590  0.1499
  181SOPE   H9120675   5.959   1.954   6.985  1.7001 -1.1784  1.1607
  181SOPE  C21020676   5.943   2.013   7.180  0.5126 -0.4985 -0.2062
  181SOPE  H10120677   5.880   1.924   7.194 -2.4336  1.5732  0.5945
  181SOPE  C21120678   5.967   2.108   7.296  0.3428 -0.3325  0.6854
  181SOPE  H11R20679   6.059   2.165   7.273 -0.4193  0.7588  0.2052
  181SOPE  H11S20680   5.999   2.045   7.381  0.2858 -0.7441  0.4053
  181SOPE  C21220681   5.861   2.205   7.351 -0.1864 -0.0872 -0.6137
  181SOPE  H12R20682   5.827   2.268   7.266  1.0170  2.2653  0.5283
  181SOPE  H12S20683   5.912   2.274   7.422 -2.7171  1.1877  0.0510
  181SOPE  C21320684   5.741   2.134   7.408  0.4084  0.0648  0.2200
  181SOPE  H13R20685   5.697   2.058   7.341  1.2212  0.8567 -1.2566
  181SOPE  H13S20686   5.671   2.220   7.419  0.0666  0.4339 -3.5893
  181SOPE  C21420687   5.766   2.079   7.551  0.8773  0.3128  0.3184
  181SOPE  H14R20688   5.855   2.013   7.561  1.3737  1.0402  0.8026
  181SOPE  H14S20689   5.676   2.017   7.571  0.6319  0.2408 -0.9066
  181SOPE  C21520690   5.792   2.185   7.657 -0.4411 -0.5652 -0.5650
  181SOPE  H15R20691   5.729   2.274   7.633  1.0622  1.0642  1.2426
  181SOPE  H15S20692   5.897   2.221   7.666 -1.4416  2.4069  0.4828
  181SOPE  C21620693   5.752   2.141   7.803  0.7525  0.3538  0.5519
  181SOPE  H16R20694   5.641   2.129   7.799  0.6488  1.5778 -1.4925
  181SOPE  H16S20695   5.762   2.222   7.878  0.8787 -0.3698  1.3290
  181SOPE  C21720696   5.819   2.015   7.855 -0.5075  0.2301 -0.3480
  181SOPE  H17R20697   5.930   2.030   7.855 -0.6465  1.7968  1.7725
  181SOPE  H17S20698   5.785   1.929   7.794  1.8615  0.5208 -2.2226
  181SOPE  C21820699   5.797   1.988   8.005 -0.1905  0.4487 -1.1219
  181SOPE  H18R20700   5.827   1.888   8.043 -1.1406  0.8063  0.7180
  181SOPE  H18S20701   5.689   1.985   8.031  0.3108  2.3401  1.6998
  181SOPE  H18T20702   5.841   2.067   8.070 -2.0918  0.8266 -0.2110
  181SOPE   C3320703   5.376   2.349   6.764  0.2161  0.0167  0.4798
  181SOPE   H3X20704   5.472   2.343   6.709  0.3056  0.4107  0.5906
  181SOPE   H3Y20705   5.323   2.258   6.728  0.7987 -0.0564 -0.2231
  181SOPE   C3420706   5.414   2.311   6.910  0.1650 -0.4417  0.0677
  181SOPE   H4X20707   5.488   2.386   6.944  0.1098  0.2831 -1.3404
  181SOPE   H4Y20708   5.451   2.206   6.911  0.8098 -0.5182 -5.3125
  181SOPE   C3520709   5.298   2.305   7.010 -0.3011 -0.1822  0.4455
  181SOPE   H5X20710   5.216   2.241   6.970 -0.1276  1.1077 -2.1361
  181SOPE   H5Y20711   5.251   2.405   7.020  1.1056  0.5404  0.0423
  181SOPE   C3620712   5.353   2.260   7.147 -0.1148 -0.3840  0.1150
  181SOPE   H6X20713   5.448   2.317   7.150 -0.6364  0.4810  0.4854
  181SOPE   H6Y20714   5.379   2.153   7.134  2.1508  0.0465  0.6610
  181SOPE   C3720715   5.277   2.293   7.279 -0.0799 -0.1616 -0.1772
  181SOPE   H7X20716   5.193   2.223   7.295  1.0502 -1.0063  2.5331
  181SOPE   H7Y20717   5.237   2.397   7.279 -1.5130 -0.6671  1.9589
  181SOPE   C3820718   5.378   2.266   7.393 -0.0266  0.0518  0.0971
  181SOPE   H8X20719   5.476   2.316   7.379  0.1657 -0.0709  0.9432
  181SOPE   H8Y20720   5.407   2.160   7.405 -0.9653 -0.1786  0.4476
  181SOPE   C3920721   5.331   2.301   7.535  0.8540 -0.0798 -0.2240
  181SOPE   H9X20722   5.246   2.232   7.554 -1.9669  2.8715 -1.1842
  181SOPE   H9Y20723   5.285   2.402   7.529  1.5111  0.2057 -0.5017
  181SOPE  C31020724   5.447   2.282   7.633 -0.2753  0.3271 -0.2191
  181SOPE  H10X20725   5.527   2.357   7.615 -0.5142  0.2186 -1.8436
  181SOPE  H10Y20726   5.501   2.188   7.609  1.7808  0.8881  1.7908
  181SOPE  C31120727   5.402   2.285   7.779 -0.0277 -0.2329  0.0890
  181SOPE  H11X20728   5.339   2.375   7.801 -1.2200  0.0361 -3.7342
  181SOPE  H11Y20729   5.488   2.291   7.849 -1.1647 -1.1653  1.6330
  181SOPE  C31220730   5.321   2.158   7.824 -0.0552  0.4492 -0.5440
  181SOPE  H12X20731   5.399   2.079   7.830  1.5785  2.0652  0.5694
  181SOPE  H12Y20732   5.250   2.118   7.748 -1.6429 -2.0401  2.0466
  181SOPE  C31320733   5.252   2.191   7.963 -0.0661 -0.2675  0.3071
  181SOPE  H13X20734   5.178   2.115   7.996 -1.5125  0.6365 -0.7249
  181SOPE  H13Y20735   5.209   2.293   7.976  0.5753 -0.0323  0.6410
  181SOPE  C31420736   5.367   2.192   8.066  0.0373 -0.1373 -0.5690
  181SOPE  H14X20737   5.454   2.261   8.059 -0.3466  0.4847  0.6432
  181SOPE  H14Y20738   5.407   2.089   8.067  0.5101  0.0252  1.4151
  181SOPE  C31520739   5.313   2.225   8.209 -0.2120 -0.0712 -0.2154
  181SOPE  H15X20740   5.390   2.185   8.279 -0.2294 -2.4904 -1.4609
  181SOPE  H15Y20741   5.231   2.157   8.240  0.2369 -0.8801 -0.7675
  181SOPE  C31620742   5.273   2.367   8.244 -0.5429 -0.0225  0.0340
  181SOPE  H16X20743   5.194   2.395   8.170 -0.9497  0.3396  0.5987
  181SOPE  H16Y20744   5.365   2.429   8.233 -0.0095 -0.9787 -1.1036
  181SOPE  C31720745   5.207   2.373   8.382 -0.2369  0.3651 -0.1478
  181SOPE  H17X20746   5.277   2.335   8.459  0.8426  0.5984 -0.9860
  181SOPE  H17Y20747   5.114   2.311   8.374 -1.0392  1.3626  1.1240
  181SOPE  C31820748   5.185   2.522   8.417 -0.5807  0.9455 -1.1692
  181SOPE  H18X20749   5.159   2.529   8.524  0.6468 -1.3321 -0.6538
  181SOPE  H18Y20750   5.117   2.574   8.346 -0.2088  1.2720 -1.2870
  181SOPE  H18Z20751   5.280   2.579   8.411 -1.6207  3.0630  0.9827
  182SOPE     N20752   0.708   2.164   5.968 -0.2705  0.0983 -0.1504
  182SOPE   HN120753   0.614   2.122   5.973  0.1870 -0.8834  0.3771
  182SOPE   HN220754   0.739   2.160   5.868 -0.2158 -0.2237 -0.1197
  182SOPE   HN320755   0.778   2.108   6.021  0.4796  0.6175 -0.5549
  182SOPE   C1220756   0.690   2.304   6.018  0.2233 -0.7713 -0.4689
  182SOPE  H12A20757   0.590   2.341   5.987  0.0059 -1.6573 -0.8662
  182SOPE  H12B20758   0.774   2.365   5.979 -0.3352 -0.0027 -0.5020
  182SOPE   C1120759   0.689   2.307   6.177  0.1265  0.3396  0.1553
  182SOPE  H11A20760   0.622   2.232   6.223  3.1490 -2.7684 -0.1313
  182SOPE  H11B20761   0.640   2.404   6.201 -0.0992  0.0516  0.8660
  182SOPE     P20762   0.879   2.157   6.275  0.0397  0.1598  0.1017
  182SOPE   O1320763   1.027   2.161   6.253  0.7241 -0.6747  0.1405
  182SOPE   O1420764   0.814   2.052   6.194  0.1553  0.3783 -0.0542
  182SOPE   O1220765   0.816   2.295   6.235  0.0572  0.0147 -0.2562
  182SOPE   O1120766   0.833   2.128   6.424  0.5182  0.4696  0.9310
  182SOPE    C120767   0.797   2.235   6.515  0.2080  0.5552 -0.2662
  182SOPE    HA20768   0.706   2.222   6.579 -0.2030  0.9655 -0.7524
  182SOPE    HB20769   0.797   2.338   6.473  0.7974  2.7786  4.4947
  182SOPE    C220770   0.904   2.239   6.624  0.0252  0.7936  0.6549
  182SOPE    HS20771   0.894   2.341   6.667 -1.1249  1.3292 -0.8026
  182SOPE   O2120772   1.033   2.230   6.556  0.6931 -0.1561 -0.3227
  182SOPE   C2120773   1.140   2.287   6.607 -0.4791  0.0293 -0.4891
  182SOPE   O2220774   1.145   2.345   6.710  0.4199 -0.1204 -0.4517
  182SOPE   C2220775   1.263   2.291   6.513  0.4295  0.4357  0.8349
  182SOPE   H2R20776   1.319   2.386   6.523  1.0019  0.0224  1.7654
  182SOPE   H2S20777   1.229   2.264   6.411 -0.1819 -2.6736  1.7382
  182SOPE    C320778   0.884   2.126   6.724 -0.3787  0.2629 -0.2409
  182SOPE    HX20779   0.932   2.039   6.674  1.7389  1.2013  0.0932
  182SOPE    HY20780   0.777   2.099   6.737 -0.2336 -1.1838 -1.6869
  182SOPE   O3120781   0.939   2.153   6.852  0.5923 -0.4226  0.1691
  182SOPE   C3120782   1.053   2.106   6.874 -0.2108  0.4119  0.8024
  182SOPE   O3220783   1.118   2.025   6.803  0.3668 -0.3237 -0.3653
  182SOPE   C3220784   1.101   2.162   7.007  0.9427 -0.0843  0.0750
  182SOPE   H2X20785   1.029   2.119   7.080 -0.6308  1.4681 -0.4947
  182SOPE   H2Y20786   1.079   2.269   6.988  1.5404 -0.0252 -0.3483
  182SOPE   C2320787   1.355   2.173   6.556 -0.2127 -0.5986  0.3954
  182SOPE   H3R20788   1.427   2.149   6.475  0.5893 -0.8987  1.1787
  182SOPE   H3S20789   1.299   2.079   6.579  1.0729 -1.2662  0.8941
  182SOPE   C2420790   1.427   2.202   6.685 -0.0255  0.4001 -0.2292
  182SOPE   H4R20791   1.489   2.292   6.665  0.9670 -0.0637  0.6570
  182SOPE   H4S20792   1.360   2.235   6.768  1.4462  0.5628  0.9307
  182SOPE   C2520793   1.508   2.081   6.735  0.4929 -0.0059 -0.0851
  182SOPE   H5R20794   1.434   2.003   6.763 -0.0163  0.1491 -0.9602
  182SOPE   H5S20795   1.580   2.045   6.659 -0.2933  0.5880 -1.1427
  182SOPE   C2620796   1.592   2.121   6.852 -0.8538  0.5958  0.3274
  182SOPE   H6R20797   1.691   2.160   6.821  0.7566 -1.7891  2.0831
  182SOPE   H6S20798   1.536   2.206   6.897 -1.2601  0.6821 -0.3351
  182SOPE   C2720799   1.618   2.011   6.953  0.0566 -0.1069  0.3529
  182SOPE   H7R20800   1.522   1.980   7.000 -0.8062 -0.3752 -1.4881
  182SOPE   H7S20801   1.653   1.916   6.909 -2.3305 -1.1530  0.5516
  182SOPE   C2820802   1.716   2.056   7.060 -0.2823  0.3047 -0.5065
  182SOPE   H8R20803   1.810   2.098   7.019  0.3705 -1.2668 -0.6833
  182SOPE   H8S20804   1.667   2.136   7.120 -1.3124 -0.1168 -0.7612
  182SOPE   C2920805   1.756   1.943   7.155  0.0650 -0.7531  0.1618
  182SOPE   H9120806   1.837   1.871   7.136  2.0916  0.8800  2.0890
  182SOPE  C21020807   1.681   1.916   7.266 -0.7187  0.3595  0.1125
  182SOPE  H10120808   1.713   1.834   7.333  0.7256  0.0937 -0.8538
  182SOPE  C21120809   1.550   1.989   7.307 -0.2057 -0.1245 -0.3430
  182SOPE  H11R20810   1.462   1.925   7.283  0.1308 -0.6660 -0.1459
  182SOPE  H11S20811   1.536   2.085   7.253 -0.7402 -0.3408 -0.5975
  182SOPE  C21220812   1.547   2.024   7.457 -0.3576  0.4466 -0.9395
  182SOPE  H12R20813   1.542   1.927   7.512  0.8548 -0.1517 -1.8547
  182SOPE  H12S20814   1.451   2.080   7.463 -0.3453  0.7657 -2.9863
  182SOPE  C21320815   1.653   2.117   7.516 -0.1605  0.1400 -0.5995
  182SOPE  H13R20816   1.676   2.190   7.435 -1.1247 -0.6363 -1.6000
  182SOPE  H13S20817   1.743   2.051   7.519 -1.5706 -1.8460  0.2025
  182SOPE  C21420818   1.629   2.172   7.654  0.2878  0.1226 -1.2318
  182SOPE  H14R20819   1.524   2.205   7.665 -0.8394 -3.7278  1.5211
  182SOPE  H14S20820   1.693   2.262   7.671 -0.8455  0.9556 -1.2384
  182SOPE  C21520821   1.652   2.062   7.758 -0.0315 -0.2163 -0.3533
  182SOPE  H15R20822   1.704   2.101   7.849  0.8303 -1.4790 -0.2621
  182SOPE  H15S20823   1.721   1.988   7.711  1.0752  0.9966 -0.6930
  182SOPE  C21620824   1.524   1.999   7.804 -0.8075 -0.0390  0.5309
  182SOPE  H16R20825   1.478   1.950   7.715  1.1771  0.1075 -0.6332
  182SOPE  H16S20826   1.457   2.080   7.840 -0.8493  0.7838 -1.3332
  182SOPE  C21720827   1.531   1.894   7.914 -0.2342 -0.3410 -0.0711
  182SOPE  H17R20828   1.433   1.863   7.955 -0.6312 -2.8514 -2.6555
  182SOPE  H17S20829   1.597   1.938   7.992 -0.0662 -0.7514  0.0213
  182SOPE  C21820830   1.592   1.769   7.860 -0.2127  0.1601  0.8513
  182SOPE  H18R20831   1.531   1.714   7.784  0.9029  0.3973 -0.2475
  182SOPE  H18S20832   1.620   1.698   7.939 -0.1268  0.0145  0.6906
  182SOPE  H18T20833   1.679   1.796   7.797  0.9392 -2.7360  1.0728
  182SOPE   C3320834   1.250   2.138   7.041 -0.3220 -0.2219  0.1926
  182SOPE   H3X20835   1.301   2.125   6.943  0.9456 -0.1255  0.8156
  182SOPE   H3Y20836   1.270   2.041   7.092 -1.2118 -0.0485  0.8974
  182SOPE   C3420837   1.327   2.256   7.106  0.5578  0.4279 -0.7372
  182SOPE   H4X20838   1.291   2.355   7.072  0.4214  0.2698 -1.0669
  182SOPE   H4Y20839   1.436   2.240   7.090  0.2841 -0.5268 -1.7722
  182SOPE   C3520840   1.299   2.243   7.257 -0.0152 -0.3906  0.1412
  182SOPE   H5X20841   1.313   2.136   7.285 -1.5721 -0.8220 -0.6297
  182SOPE   H5Y20842   1.193   2.257   7.284  0.6660 -0.3553  3.1278
  182SOPE   C3620843   1.377   2.350   7.326  0.5689 -1.1018 -0.7486
  182SOPE   H6X20844   1.364   2.454   7.288 -0.8023 -0.0180  2.3515
  182SOPE   H6Y20845   1.485   2.327   7.330  0.7124 -0.3368 -0.0063
  182SOPE   C3720846   1.332   2.359   7.474 -0.1918  0.5582 -0.0706
  182SOPE   H7X20847   1.339   2.258   7.521  0.7023  0.6329 -0.0198
  182SOPE   H7Y20848   1.224   2.386   7.475 -0.5298 -0.7143  1.1369
  182SOPE   C3820849   1.418   2.464   7.543 -0.1410 -0.1521  0.4532
  182SOPE   H8X20850   1.407   2.559   7.487 -0.5670 -1.1568 -1.2454
  182SOPE   H8Y20851   1.527   2.445   7.543 -0.1116 -0.8357 -3.4939
  182SOPE   C3920852   1.373   2.490   7.691 -0.3474  0.1406  0.7983
  182SOPE   H9X20853   1.402   2.400   7.749 -2.8760 -1.5338 -0.3504
  182SOPE   H9Y20854   1.262   2.503   7.686 -0.3504  0.6585  1.8220
  182SOPE  C31020855   1.437   2.610   7.760 -0.0722 -0.1211 -0.2972
  182SOPE  H10X20856   1.400   2.702   7.709  2.6562  1.0321 -0.3986
  182SOPE  H10Y20857   1.547   2.616   7.743  0.1900 -0.6296  1.0816
  182SOPE  C31120858   1.413   2.601   7.909  1.1100  0.1251  0.1555
  182SOPE  H11X20859   1.436   2.495   7.930 -3.3181 -1.0170  0.2320
  182SOPE  H11Y20860   1.304   2.611   7.931  1.0776 -0.4609  0.2604
  182SOPE  C31220861   1.488   2.700   8.001 -0.2461  0.1417  0.8996
  182SOPE  H12X20862   1.422   2.789   7.995 -2.3450 -1.4501 -0.7374
  182SOPE  H12Y20863   1.587   2.719   7.954 -0.3186  0.6346  0.9361
  182SOPE  C31320864   1.498   2.638   8.144 -0.1157  0.0309 -0.2833
  182SOPE  H13X20865   1.552   2.541   8.146  2.1389  1.1898 -1.2431
  182SOPE  H13Y20866   1.393   2.620   8.175  0.3297  1.0771  1.9695
  182SOPE  C31420867   1.547   2.734   8.257 -0.4433  0.4566 -0.0667
  182SOPE  H14X20868   1.490   2.825   8.228 -0.5400  0.6902  0.8493
  182SOPE  H14Y20869   1.653   2.767   8.247 -1.2622  3.7515  0.8884
  182SOPE  C31520870   1.517   2.696   8.404  0.0474 -0.0003  0.4759
  182SOPE  H15X20871   1.559   2.781   8.462 -0.1155  1.2107 -1.1008
  182SOPE  H15Y20872   1.562   2.599   8.431 -1.1055 -0.0805  2.3035
  182SOPE  C31620873   1.367   2.692   8.450  0.3277 -0.0984 -0.4903
  182SOPE  H16X20874   1.329   2.607   8.389  1.4166 -0.1642 -1.1168
  182SOPE  H16Y20875   1.326   2.793   8.428 -0.4166 -0.6176 -1.6265
  182SOPE  C31720876   1.347   2.652   8.601  0.2472  0.2583 -0.3068
  182SOPE  H17X20877   1.406   2.733   8.650 -1.7018  0.1114  2.4548
  182SOPE  H17Y20878   1.383   2.554   8.638 -0.0544  1.0525  2.2619
  182SOPE  C31820879   1.204   2.669   8.655  0.8331  0.5396 -0.0582
  182SOPE  H18X20880   1.188   2.636   8.760 -1.6285 -2.7892 -1.3078
  182SOPE  H18Y20881   1.126   2.612   8.601  0.1646  1.1926  0.1995
  182SOPE  H18Z20882   1.168   2.773   8.640 -0.3606  0.0797 -0.4879
  183SOPE     N20883   2.423   0.710   6.255  0.1235 -0.1070 -0.2087
  183SOPE   HN120884   2.496   0.691   6.184 -1.9088 -0.9557 -2.1857
  183SOPE   HN220885   2.326   0.682   6.229 -0.4584 -0.4839  2.1232
  183SOPE   HN320886   2.403   0.813   6.256 -0.7727 -0.2629  1.2528
  183SOPE   C1220887   2.458   0.663   6.400 -1.0360  0.2325  0.8703
  183SOPE  H12A20888   2.436   0.554   6.394  0.1034  0.0493 -3.9372
  183SOPE  H12B20889   2.398   0.718   6.475 -0.7886  4.1116 -1.4901
  183SOPE   C1120890   2.604   0.691   6.440  0.4498  0.6351  0.0819
  183SOPE  H11A20891   2.613   0.653   6.545 -1.7760  0.8422  0.3914
  183SOPE  H11B20892   2.611   0.801   6.435  0.5548  0.6973  1.2746
  183SOPE     P20893   2.857   0.625   6.397 -0.4753 -0.1171  0.1185
  183SOPE   O1320894   2.907   0.758   6.435 -0.2359  0.2589 -0.2993
  183SOPE   O1420895   2.943   0.555   6.297  1.0353  0.0710  0.1834
  183SOPE   O1220896   2.703   0.626   6.357  0.0767 -0.3628  0.2225
  183SOPE   O1120897   2.852   0.543   6.532  0.0062 -0.2716  0.0445
  183SOPE    C120898   2.777   0.423   6.547  0.0679  0.1139 -0.5019
  183SOPE    HA20899   2.797   0.351   6.464  1.0822  2.1008 -2.0420
  183SOPE    HB20900   2.670   0.453   6.558  0.1325 -0.1539  1.3078
  183SOPE    C220901   2.823   0.345   6.679 -0.2387 -0.5065 -0.1326
  183SOPE    HS20902   2.781   0.243   6.685 -1.8859 -0.0126 -1.8784
  183SOPE   O2120903   2.786   0.420   6.799  0.1902  0.5591 -0.1402
  183SOPE   C2120904   2.667   0.420   6.836  0.5873  0.0297 -0.6037
  183SOPE   O2220905   2.567   0.372   6.780 -0.9158 -0.0608  0.4867
  183SOPE   C2220906   2.652   0.499   6.973 -0.0931 -0.1424  0.0278
  183SOPE   H2R20907   2.634   0.603   6.937 -0.9892 -0.1308  0.4821
  183SOPE   H2S20908   2.745   0.486   7.033 -0.6767  0.2217  1.0490
  183SOPE    C320909   2.975   0.337   6.687  0.3850  0.4106  0.3580
  183SOPE    HX20910   3.023   0.435   6.667  2.6166 -0.9949 -1.7862
  183SOPE    HY20911   3.000   0.266   6.605  0.1996 -0.2755  0.8865
  183SOPE   O3120912   3.017   0.284   6.807 -0.3384 -0.1790 -0.3684
  183SOPE   C3120913   3.077   0.362   6.892  0.6940 -0.0927 -0.2647
  183SOPE   O3220914   3.095   0.480   6.880 -0.4551 -0.3659 -0.7979
  183SOPE   C3220915   3.107   0.277   7.019 -0.5150 -0.1363  0.0269
  183SOPE   H2X20916   3.195   0.217   6.988  0.4100  1.5514 -0.7808
  183SOPE   H2Y20917   3.022   0.206   7.027  0.6810 -2.3007 -3.6869
  183SOPE   C2320918   2.540   0.462   7.068  0.2411  0.4185  0.1050
  183SOPE   H3R20919   2.526   0.353   7.086 -1.4169  0.5588 -0.1355
  183SOPE   H3S20920   2.441   0.487   7.023  0.1609 -0.8605 -0.4850
  183SOPE   C2420921   2.547   0.537   7.196 -0.0920 -0.1596 -0.1394
  183SOPE   H4R20922   2.650   0.531   7.237 -1.0868 -3.2156  2.2934
  183SOPE   H4S20923   2.521   0.643   7.175  0.2916  0.2627  1.3715
  183SOPE   C2520924   2.439   0.486   7.300 -1.3360 -0.5881 -0.0486
  183SOPE   H5R20925   2.342   0.526   7.261 -1.3637  0.0857  0.6961
  183SOPE   H5S20926   2.449   0.377   7.280 -0.8560 -0.6932  0.7277
  183SOPE   C2620927   2.464   0.508   7.447 -0.0721 -0.4782 -0.4313
  183SOPE   H6R20928   2.416   0.428   7.507  2.4015 -0.0175  2.4497
  183SOPE   H6S20929   2.572   0.486   7.464 -0.3986 -0.2997  2.4721
  183SOPE   C2720930   2.428   0.648   7.502 -0.0248  0.7367  0.1213
  183SOPE   H7R20931   2.470   0.634   7.604  1.7744 -1.1299 -0.7953
  183SOPE   H7S20932   2.489   0.724   7.450  1.0849  0.8039  1.4635
  183SOPE   C2820933   2.278   0.684   7.502 -0.3981  0.1890 -0.1165
  183SOPE   H8R20934   2.244   0.682   7.396  1.0989 -0.6461 -0.6131
  183SOPE   H8S20935   2.210   0.603   7.534  1.2660 -0.9923  0.5913
  183SOPE   C2920936   2.260   0.812   7.574  0.0030 -0.5510 -1.2121
  183SOPE   H9120937   2.253   0.901   7.509 -0.3197  0.2245 -0.1590
  183SOPE  C21020938   2.232   0.825   7.709  0.5958  0.8360 -0.2871
  183SOPE  H10120939   2.209   0.922   7.754  1.1567  1.9888 -2.3787
  183SOPE  C21120940   2.226   0.712   7.811  0.0630 -0.0378 -0.5268
  183SOPE  H11R20941   2.250   0.616   7.760  0.0053  0.4215 -1.4287
  183SOPE  H11S20942   2.122   0.702   7.849  0.7216 -0.9760  1.1755
  183SOPE  C21220943   2.324   0.730   7.925  0.5395 -0.0230 -0.0943
  183SOPE  H12R20944   2.423   0.738   7.873  1.0909  0.0140  0.9351
  183SOPE  H12S20945   2.330   0.642   7.992 -2.3559  1.1079  1.8285
  183SOPE  C21320946   2.284   0.849   8.008  1.5038 -0.1328  0.3839
  183SOPE  H13R20947   2.174   0.849   8.022  1.4586 -2.4538  0.3289
  183SOPE  H13S20948   2.310   0.934   7.941  0.9273  0.6014  1.0814
  183SOPE  C21420949   2.360   0.852   8.144  0.2013 -0.2772  1.2367
  183SOPE  H14R20950   2.468   0.861   8.120 -0.1024  2.6695  0.5608
  183SOPE  H14S20951   2.344   0.750   8.185  1.0047 -0.5459  0.9078
  183SOPE  C21520952   2.328   0.966   8.243 -0.8433  0.3896 -0.0870
  183SOPE  H15R20953   2.218   0.978   8.250 -0.6406  2.4053  0.2609
  183SOPE  H15S20954   2.367   1.059   8.196  3.4918  0.2805  2.7290
  183SOPE  C21620955   2.380   0.956   8.390 -0.2331  0.4741  0.3081
  183SOPE  H16R20956   2.491   0.951   8.391 -0.2894 -1.9467  0.8382
  183SOPE  H16S20957   2.352   0.857   8.432 -0.4061 -0.4478 -1.8503
  183SOPE  C21720958   2.322   1.073   8.474 -0.6081  0.0823 -0.1583
  183SOPE  H17R20959   2.212   1.067   8.492 -1.1865  0.0765 -3.1727
  183SOPE  H17S20960   2.352   1.166   8.421 -0.1884  0.7012  1.1229
  183SOPE  C21820961   2.399   1.066   8.611  0.1860 -0.1827 -0.5044
  183SOPE  H18R20962   2.377   0.971   8.663  1.6742 -0.2192  0.1130
  183SOPE  H18S20963   2.367   1.153   8.673 -1.4194  1.3122 -3.1887
  183SOPE  H18T20964   2.508   1.075   8.593  0.2062 -0.7262 -0.6539
  183SOPE   C3320965   3.153   0.367   7.134 -0.5895  0.1103 -1.0710
  183SOPE   H3X20966   3.225   0.439   7.090 -0.4976 -0.2365 -1.4976
  183SOPE   H3Y20967   3.218   0.307   7.200  0.3739 -1.6440 -3.4541
  183SOPE   C3420968   3.041   0.438   7.213  0.3481  0.3268 -0.1975
  183SOPE   H4X20969   2.979   0.502   7.146 -0.6015  0.1365  0.4817
  183SOPE   H4Y20970   3.074   0.503   7.297 -1.1515 -2.4566  2.7779
  183SOPE   C3520971   2.963   0.329   7.277  0.5593  0.0296  0.3332
  183SOPE   H5X20972   3.021   0.249   7.326  1.7313  1.1709  0.8686
  183SOPE   H5Y20973   2.905   0.296   7.188  1.1489  3.3495 -1.4908
  183SOPE   C3620974   2.867   0.383   7.381 -0.8896 -0.8289 -0.3965
  183SOPE   H6X20975   2.771   0.327   7.379 -0.7804 -1.0101 -2.4414
  183SOPE   H6Y20976   2.857   0.491   7.354  1.3869 -0.7635 -1.1297
  183SOPE   C3720977   2.928   0.380   7.523  1.0333 -0.5004  0.0775
  183SOPE   H7X20978   3.021   0.441   7.527  0.1590  1.0931 -2.0631
  183SOPE   H7Y20979   2.966   0.277   7.541  2.4948  0.2054  1.2800
  183SOPE   C3820980   2.826   0.406   7.635  0.0263 -0.1473 -0.5618
  183SOPE   H8X20981   2.795   0.512   7.620  0.9788  0.0705 -1.1079
  183SOPE   H8Y20982   2.870   0.419   7.736 -1.5317 -2.7240  0.5387
  183SOPE   C3920983   2.706   0.315   7.641  0.1271 -0.8663 -0.3565
  183SOPE   H9X20984   2.731   0.212   7.675  0.5840 -0.4133  0.7146
  183SOPE   H9Y20985   2.648   0.311   7.546  2.0342 -2.4915 -1.5231
  183SOPE  C31020986   2.616   0.352   7.765  0.3641 -0.6834  0.5547
  183SOPE  H10X20987   2.536   0.275   7.760 -0.3962  0.1334 -0.0332
  183SOPE  H10Y20988   2.579   0.454   7.740 -0.8830 -1.0944  0.6654
  183SOPE  C31120989   2.679   0.354   7.900  0.4013 -0.5402 -0.0553
  183SOPE  H11X20990   2.765   0.422   7.918  1.9618 -2.7545  1.3967
  183SOPE  H11Y20991   2.714   0.254   7.934  0.3568 -0.4845  0.1538
  183SOPE  C31220992   2.557   0.401   7.988 -0.0748 -0.3600  0.7267
  183SOPE  H12X20993   2.495   0.310   8.005 -1.0986 -0.1249 -1.4970
  183SOPE  H12Y20994   2.516   0.491   7.937 -1.0400 -0.8379  0.6505
  183SOPE  C31320995   2.616   0.437   8.126  0.0922 -0.2539 -0.0662
  183SOPE  H13X20996   2.705   0.503   8.112  0.1059 -0.3036 -0.2145
  183SOPE  H13Y20997   2.650   0.339   8.166  0.2154 -0.1421  0.1059
  183SOPE  C31420998   2.509   0.491   8.218 -0.1952  0.0881  0.0425
  183SOPE  H14X20999   2.403   0.460   8.207 -0.9212  2.6636 -0.9342
  183SOPE  H14Y21000   2.501   0.595   8.179 -1.3033  0.0668  0.1623
  183SOPE  C31521001   2.550   0.480   8.369 -0.4587 -0.2992  0.3226
  183SOPE  H15X21002   2.641   0.544   8.379  0.4157 -1.1882 -1.4187
  183SOPE  H15Y21003   2.586   0.376   8.387  0.0861 -0.1241  0.2505
  183SOPE  C31621004   2.442   0.508   8.464  0.3704 -0.8633  0.1273
  183SOPE  H16X21005   2.353   0.443   8.448 -0.8659 -0.0941  3.2427
  183SOPE  H16Y21006   2.399   0.607   8.437  0.3381 -0.9715 -0.2284
  183SOPE  C31721007   2.470   0.504   8.612  0.5508  0.4587 -0.0115
  183SOPE  H17X21008   2.506   0.402   8.634 -1.1460  0.1791  1.6474
  183SOPE  H17Y21009   2.377   0.516   8.671 -0.2675 -0.0318 -1.1627
  183SOPE  C31821010   2.579   0.602   8.652 -0.0097  0.3848 -0.6753
  183SOPE  H18X21011   2.551   0.702   8.612 -1.0382  0.9610  1.3244
  183SOPE  H18Y21012   2.673   0.571   8.602 -1.4065 -0.8987 -2.6649
  183SOPE  H18Z21013   2.588   0.608   8.763 -1.3600 -1.6416 -0.3909
  184SOPE     N21014   2.570   2.503   5.883 -0.1576 -0.1078 -0.4879
  184SOPE   HN121015   2.504   2.558   5.824 -0.8219 -2.0902 -1.7010
  184SOPE   HN221016   2.528   2.409   5.900 -1.0373  0.2058 -0.8800
  184SOPE   HN321017   2.577   2.538   5.981  1.5881  2.1209 -1.3160
  184SOPE   C1221018   2.706   2.496   5.827 -0.1283  0.5440 -0.3536
  184SOPE  H12A21019   2.752   2.597   5.832 -0.6748  0.7395  1.4077
  184SOPE  H12B21020   2.705   2.453   5.724  0.8959  1.1954 -0.6520
  184SOPE   C1121021   2.810   2.413   5.905 -0.0008  0.6424 -0.4248
  184SOPE  H11A21022   2.804   2.440   6.012 -0.1938  0.2636 -0.3389
  184SOPE  H11B21023   2.909   2.429   5.858  0.5285 -0.1127  0.4146
  184SOPE     P21024   2.858   2.166   5.971  0.0793  0.5214 -0.2172
  184SOPE   O1321025   3.004   2.183   5.936 -0.4044 -0.0787 -0.2294
  184SOPE   O1421026   2.800   2.031   5.945  0.9167  0.4667  0.0265
  184SOPE   O1221027   2.780   2.279   5.891  0.4748  0.7547 -1.0464
  184SOPE   O1121028   2.840   2.195   6.125  0.4976 -0.3395  0.4845
  184SOPE    C121029   2.702   2.226   6.169  0.2223  0.1320  0.5765
  184SOPE    HA21030   2.626   2.163   6.118 -1.8220  3.0801 -0.3022
  184SOPE    HB21031   2.673   2.326   6.132  1.1914 -0.1619 -1.0533
  184SOPE    C221032   2.699   2.204   6.324 -0.4544  0.5580  0.2205
  184SOPE    HS21033   2.781   2.269   6.363 -1.3464  1.1497  1.1772
  184SOPE   O2121034   2.711   2.067   6.350 -0.1720 -0.0717 -0.3997
  184SOPE   C2121035   2.797   2.025   6.446 -0.4700 -0.0184 -0.6812
  184SOPE   O2221036   2.848   2.095   6.528  0.0959 -0.3138  0.4049
  184SOPE   C2221037   2.784   1.878   6.449 -0.5960  0.3025  0.4965
  184SOPE   H2R21038   2.827   1.824   6.362 -1.3189  0.7835 -0.1671
  184SOPE   H2S21039   2.677   1.851   6.465 -0.2138  0.3243  3.8426
  184SOPE    C321040   2.567   2.251   6.383  0.2956 -0.3681 -0.7542
  184SOPE    HX21041   2.487   2.186   6.340 -0.3853 -0.4274  0.5403
  184SOPE    HY21042   2.546   2.357   6.360  1.0196  0.3012  1.4189
  184SOPE   O3121043   2.576   2.237   6.524 -0.2189  0.2915 -0.4877
  184SOPE   C3121044   2.461   2.207   6.592 -0.0617 -0.2367 -0.2374
  184SOPE   O3221045   2.349   2.226   6.538 -0.3475 -0.6023  0.0725
  184SOPE   C3221046   2.488   2.177   6.732  0.3387 -0.5647 -0.5054
  184SOPE   H2X21047   2.531   2.264   6.787  0.4222 -1.0554  0.2155
  184SOPE   H2Y21048   2.571   2.104   6.744 -1.5553 -3.0003 -1.3738
  184SOPE   C2321049   2.865   1.821   6.571 -0.9837 -0.4214  0.3022
  184SOPE   H3R21050   2.958   1.882   6.568 -1.9078  0.9999 -1.9190
  184SOPE   H3S21051   2.884   1.714   6.548 -4.7124 -1.3165  0.7174
  184SOPE   C2421052   2.815   1.833   6.719  0.3487  0.1956  0.7184
  184SOPE   H4R21053   2.837   1.931   6.766 -0.7620 -0.1837  2.0729
  184SOPE   H4S21054   2.705   1.822   6.714  0.0414  2.8634 -2.8996
  184SOPE   C2521055   2.864   1.715   6.806 -0.1113  0.9054 -0.0003
  184SOPE   H5R21056   2.870   1.618   6.752  2.4212  1.7767 -1.4683
  184SOPE   H5S21057   2.968   1.752   6.817 -0.2522  1.3464 -0.1446
  184SOPE   C2621058   2.799   1.704   6.946  0.1078 -0.4659 -0.4678
  184SOPE   H6R21059   2.790   1.801   7.000 -0.6283 -0.4019 -0.7013
  184SOPE   H6S21060   2.693   1.683   6.919 -0.3241 -0.4937  1.1366
  184SOPE   C2721061   2.858   1.595   7.040 -0.0799 -0.3900 -0.3449
  184SOPE   H7R21062   2.883   1.504   6.982  1.5111  0.1398 -0.5331
  184SOPE   H7S21063   2.955   1.642   7.067 -0.2699 -0.3974  0.3753
  184SOPE   C2821064   2.781   1.567   7.166  0.2671 -0.4363 -0.2187
  184SOPE   H8R21065   2.756   1.663   7.216 -0.1844 -1.1267  0.9298
  184SOPE   H8S21066   2.683   1.526   7.135  0.3753 -0.4345 -0.5620
  184SOPE   C2921067   2.857   1.469   7.254  1.1110  0.2805  0.8320
  184SOPE   H9121068   2.876   1.371   7.209 -1.2480  0.2116 -0.1220
  184SOPE  C21021069   2.905   1.483   7.376  0.5163 -0.4775  0.1925
  184SOPE  H10121070   2.962   1.398   7.415 -0.0253 -0.5991  0.7313
  184SOPE  C21121071   2.905   1.602   7.460  0.4597 -0.3126 -0.1573
  184SOPE  H11R21072   2.834   1.675   7.414  1.9352  1.4137  0.1864
  184SOPE  H11S21073   3.001   1.658   7.461  0.2071  0.1266  1.6350
  184SOPE  C21221074   2.849   1.583   7.598  0.0714  0.5575  0.7234
  184SOPE  H12R21075   2.741   1.556   7.597  0.1761  0.1363  0.7578
  184SOPE  H12S21076   2.850   1.683   7.646  1.2107  1.7956 -1.6741
  184SOPE  C21321077   2.936   1.494   7.690  0.4574  0.7884  0.0470
  184SOPE  H13R21078   2.924   1.389   7.656 -0.8657  0.7456  0.5987
  184SOPE  H13S21079   2.890   1.485   7.791  1.2392 -1.4962  0.2559
  184SOPE  C21421080   3.085   1.515   7.711 -0.5379 -0.5016 -0.9708
  184SOPE  H14R21081   3.128   1.538   7.611  1.7020  0.9525  0.2437
  184SOPE  H14S21082   3.131   1.419   7.743 -0.3400 -0.4271 -1.0314
  184SOPE  C21521083   3.112   1.638   7.796  0.3034 -0.2490  0.0169
  184SOPE  H15R21084   3.039   1.631   7.879 -1.0609  0.7879 -1.0413
  184SOPE  H15S21085   3.074   1.719   7.731  1.3076 -0.5708 -1.0102
  184SOPE  C21621086   3.257   1.657   7.835 -0.5009  0.2946  0.7572
  184SOPE  H16R21087   3.261   1.749   7.897 -2.5237 -0.8938  2.8213
  184SOPE  H16S21088   3.319   1.680   7.746 -0.5357  2.5691  1.2726
  184SOPE  C21721089   3.318   1.547   7.933 -0.0085 -0.4409 -0.4686
  184SOPE  H17R21090   3.422   1.581   7.950 -0.1699  0.0164 -0.3602
  184SOPE  H17S21091   3.333   1.452   7.878 -1.3721  0.6287 -2.8742
  184SOPE  C21821092   3.229   1.532   8.054 -0.6844  0.3435  0.3266
  184SOPE  H18R21093   3.126   1.499   8.025 -0.7545  1.0662 -0.2909
  184SOPE  H18S21094   3.221   1.630   8.105  4.7345  1.6370 -0.7315
  184SOPE  H18T21095   3.278   1.460   8.122 -1.1511  1.1227  1.5058
  184SOPE   C3321096   2.358   2.140   6.800 -0.4946  1.1897 -0.9378
  184SOPE   H3X21097   2.306   2.068   6.734  0.4024  0.5206 -0.9420
  184SOPE   H3Y21098   2.290   2.228   6.799 -0.6147  1.1012 -2.2441
  184SOPE   C3421099   2.380   2.086   6.944 -0.1398 -0.1749  0.0143
  184SOPE   H4X21100   2.294   2.022   6.975  0.2504 -1.0309 -0.6680
  184SOPE   H4Y21101   2.380   2.172   7.015  0.8481  1.0601 -1.4164
  184SOPE   C3521102   2.501   1.990   6.966 -0.4671 -0.4041  0.1732
  184SOPE   H5X21103   2.596   2.048   6.957  0.9107 -2.5811 -0.0250
  184SOPE   H5Y21104   2.501   1.912   6.887 -0.7817  0.0082 -0.2369
  184SOPE   C3621105   2.504   1.927   7.105  0.0892  0.2207 -0.2040
  184SOPE   H6X21106   2.548   1.825   7.102 -0.2110  0.1162 -1.4863
  184SOPE   H6Y21107   2.402   1.916   7.146  0.1143 -1.2194 -0.4968
  184SOPE   C3721108   2.603   2.010   7.196 -0.1856  0.2120 -0.0021
  184SOPE   H7X21109   2.585   2.120   7.199  2.2727  0.6900 -0.7144
  184SOPE   H7Y21110   2.697   1.991   7.141 -0.7835 -1.6170 -0.4562
  184SOPE   C3821111   2.637   1.960   7.332 -0.9911 -0.4435 -0.4393
  184SOPE   H8X21112   2.671   1.855   7.332 -1.2613 -0.5485 -1.9980
  184SOPE   H8Y21113   2.542   1.960   7.391 -1.6014 -0.9364 -1.4069
  184SOPE   C3921114   2.743   2.053   7.409  1.0103  0.0655 -0.0126
  184SOPE   H9X21115   2.707   2.157   7.426 -0.1561 -0.5429  1.4843
  184SOPE   H9Y21116   2.834   2.055   7.346  1.3300 -2.7424  0.2431
  184SOPE  C31021117   2.779   1.990   7.547 -0.2141 -1.3394 -0.2256
  184SOPE  H10X21118   2.830   1.892   7.533 -0.2804 -1.7435  1.9656
  184SOPE  H10Y21119   2.689   1.983   7.611  0.2315  0.7968  0.7531
  184SOPE  C31121120   2.882   2.079   7.615  0.3377 -0.0823  0.2270
  184SOPE  H11X21121   2.830   2.172   7.648 -0.9289 -1.2826  1.7214
  184SOPE  H11Y21122   2.960   2.103   7.539 -0.4826  1.5023 -0.1785
  184SOPE  C31221123   2.959   2.011   7.725  0.3084  0.6908  0.6877
  184SOPE  H12X21124   3.035   2.086   7.756 -0.1537  1.6220 -0.3651
  184SOPE  H12Y21125   3.022   1.930   7.682 -0.1069  1.6914 -1.9481
  184SOPE  C31321126   2.853   1.964   7.832 -0.1728 -0.4937  0.0099
  184SOPE  H13X21127   2.813   1.865   7.803 -1.1298 -0.9219  2.4971
  184SOPE  H13Y21128   2.775   2.044   7.834  0.3578  0.0326 -0.0565
  184SOPE  C31421129   2.919   1.943   7.967 -0.0468 -0.5504 -0.0945
  184SOPE  H14X21130   2.931   2.043   8.015 -2.9359 -0.1591 -0.0204
  184SOPE  H14Y21131   3.023   1.905   7.953  0.1367 -0.4883  0.9636
  184SOPE  C31521132   2.838   1.849   8.059  0.2735  0.0319 -0.1225
  184SOPE  H15X21133   2.838   1.743   8.024 -1.9496  0.4501 -1.5989
  184SOPE  H15Y21134   2.731   1.877   8.056 -0.7287 -3.3195 -2.8357
  184SOPE  C31621135   2.884   1.835   8.203  0.4163 -0.1014  0.3018
  184SOPE  H16X21136   2.855   1.926   8.261 -0.0025 -0.2858  0.3847
  184SOPE  H16Y21137   2.994   1.845   8.205  0.7821 -2.7548 -1.7688
  184SOPE  C31721138   2.821   1.715   8.271  0.3739 -0.8454 -0.1261
  184SOPE  H17X21139   2.856   1.627   8.213  1.8549 -1.0587  1.0329
  184SOPE  H17Y21140   2.712   1.728   8.261  0.4290 -1.0856 -1.2142
  184SOPE  C31821141   2.849   1.690   8.418 -0.4592 -0.3673  0.1890
  184SOPE  H18X21142   2.782   1.759   8.474 -0.5236  0.6930 -1.1726
  184SOPE  H18Y21143   2.952   1.723   8.444 -1.3219  2.2518  0.5881
  184SOPE  H18Z21144   2.825   1.585   8.449 -1.2525  0.0202  0.9201
  185SAPI   C1221145   3.424   3.789  11.052  1.0353 -0.2111  0.2322
  185SAPI    H221146   3.337   3.775  11.120 -0.2596 -0.4286 -1.3950
  185SAPI    O221147   3.387   3.903  10.979 -0.3463 -0.2931  0.0213
  185SAPI   HO221148   3.293   3.921  10.980 -0.3905 -0.4343 -0.6933
  185SAPI   C1321149   3.551   3.803  11.134 -0.0050  0.3641 -0.0104
  185SAPI    H321150   3.553   3.701  11.178  1.5120  1.0564  1.6281
  185SAPI    O321151   3.542   3.906  11.229  0.5474 -0.0485  0.4518
  185SAPI   HO321152   3.532   3.993  11.189 -0.7965 -0.8206 -0.9777
  185SAPI   C1421153   3.669   3.824  11.048  0.7298  0.2315  0.1313
  185SAPI    H421154   3.662   3.929  11.013  0.0765  0.9347  2.1936
  185SAPI    O421155   3.786   3.805  11.130  0.4281 -0.1362  0.0607
  185SAPI   HO421156   3.854   3.828  11.066  0.0415 -0.8954 -0.6509
  185SAPI   C1521157   3.673   3.739  10.922  0.0645 -0.8240  0.6905
  185SAPI    H521158   3.748   3.659  10.945  1.1557 -0.0149  0.0613
  185SAPI    O521159   3.734   3.813  10.813  0.0505  0.2301  0.4618
  185SAPI   HO521160   3.825   3.817  10.842 -0.3629  0.5560  1.7892
  185SAPI   C1621161   3.553   3.670  10.880 -0.0487 -0.2994 -0.7106
  185SAPI    H621162   3.515   3.735  10.798  0.5635  0.1258 -0.6600
  185SAPI    O621163   3.572   3.543  10.817 -0.1659 -0.6373 -0.5257
  185SAPI   HO621164   3.514   3.537  10.741 -2.8355 -2.9350  1.5098
  185SAPI   C1121165   3.437   3.663  10.972 -0.2586 -0.4282 -0.6867
  185SAPI    H121166   3.452   3.575  11.038 -2.7918 -2.2754 -2.3663
  185SAPI     P21167   3.244   3.492  10.890 -0.5409  0.1066  0.0478
  185SAPI   O1321168   3.096   3.505  10.880 -0.1401 -0.4328 -0.4382
  185SAPI   O1421169   3.294   3.391  10.985 -0.1325  0.6256 -0.9009
  185SAPI   O1221170   3.315   3.639  10.900 -0.5969 -0.7966  0.2026
  185SAPI   O1121171   3.290   3.457  10.743  0.0287  0.3290 -0.4608
  185SAPI    C121172   3.246   3.551  10.636 -0.4527  0.6127  0.3032
  185SAPI    HA21173   3.136   3.560  10.631 -0.2630  2.2757 -2.2206
  185SAPI    HB21174   3.291   3.650  10.655  0.1354  0.4245 -0.0687
  185SAPI    C221175   3.293   3.495  10.504  0.5225  0.1748  0.3750
  185SAPI    HS21176   3.253   3.391  10.498 -0.7935  0.6534  0.5081
  185SAPI   O2121177   3.435   3.509  10.504 -0.0489  0.8346 -0.0955
  185SAPI   C2121178   3.485   3.412  10.425 -0.0564  0.3254  0.1796
  185SAPI   O2221179   3.427   3.312  10.393 -0.4053  0.0958  0.5376
  185SAPI   C2221180   3.623   3.442  10.377 -0.0248 -0.4085  0.6985
  185SAPI   H2R21181   3.666   3.483  10.471 -1.2390 -0.0652  1.1312
  185SAPI   H2S21182   3.665   3.341  10.358 -0.9155 -0.7482  0.4657
  185SAPI    C321183   3.230   3.574  10.377 -0.2697 -0.1390 -0.0685
  185SAPI    HX21184   3.274   3.676  10.380 -2.4778  0.8865 -0.3629
  185SAPI    HY21185   3.120   3.592  10.378 -0.2911 -0.2808  0.2253
  185SAPI   O3121186   3.281   3.523  10.249 -0.3536  0.2638 -0.1021
  185SAPI   C3121187   3.216   3.424  10.210  0.9306  0.8972 -0.0903
  185SAPI   O3221188   3.126   3.371  10.273  0.2777  0.1486 -0.4253
  185SAPI   C3221189   3.267   3.376  10.073  0.0195 -0.2164 -0.0518
  185SAPI   H2X21190   3.187   3.326  10.014 -1.4234  0.1806  1.4856
  185SAPI   H2Y21191   3.352   3.306  10.087 -3.4222 -4.5419  1.3141
  185SAPI   C2321192   3.617   3.553  10.262  0.2795 -0.4057 -0.0030
  185SAPI   H3R21193   3.563   3.646  10.291 -1.5627 -0.7531 -2.0417
  185SAPI   H3S21194   3.554   3.509  10.182  2.1602 -3.2890 -0.0319
  185SAPI   C2421195   3.759   3.578  10.226  0.5911 -0.1757 -0.1321
  185SAPI   H4R21196   3.787   3.490  10.164  2.2396  1.5318 -1.9536
  185SAPI   H4S21197   3.818   3.585  10.320 -1.8033 -0.0264  1.4627
  185SAPI   C2521198   3.785   3.700  10.135  0.2171  0.7982  0.2234
  185SAPI   H5R21199   3.783   3.804  10.173  0.0841  0.6158  0.7262
  185SAPI   C2621200   3.801   3.701   9.995  0.1586  0.8791 -0.1392
  185SAPI   H6R21201   3.802   3.793   9.935 -0.1701  0.1107 -1.3662
  185SAPI   C2721202   3.787   3.577   9.901 -0.2901  0.1449 -0.3159
  185SAPI   H7R21203   3.715   3.594   9.818  0.3989  2.6846 -0.4948
  185SAPI   H7S21204   3.744   3.494   9.961 -0.7940  1.6153  1.4621
  185SAPI   C2821205   3.916   3.527   9.844  0.0401 -0.5416  0.3006
  185SAPI   H8R21206   3.999   3.600   9.846  1.5130 -2.1659  1.5555
  185SAPI   C2921207   3.934   3.413   9.776 -0.3627 -0.0703 -0.2266
  185SAPI   H9R21208   4.039   3.391   9.752  0.4243  1.7613  1.2726
  185SAPI  C21021209   3.837   3.303   9.746  0.1056  1.3094  0.2102
  185SAPI  H10R21210   3.746   3.311   9.810 -0.3939 -0.0844 -0.2914
  185SAPI  H10S21211   3.872   3.200   9.768 -0.7016  0.7387 -1.0675
  185SAPI  C21121212   3.798   3.311   9.597  0.0443  1.2729 -0.4756
  185SAPI  H11R21213   3.699   3.352   9.570 -1.8254 -1.1998  2.0135
  185SAPI  C21221214   3.878   3.285   9.491  0.2087  0.0732 -0.4938
  185SAPI  H12R21215   3.837   3.286   9.389 -2.1401 -0.0059  0.3820
  185SAPI  C21321216   4.019   3.235   9.502 -0.5050  0.0201 -0.4625
  185SAPI  H13R21217   4.008   3.174   9.594 -0.9656  1.0544  0.1922
  185SAPI  H13S21218   4.089   3.321   9.508 -0.3991 -0.0863 -0.1675
  185SAPI  C21421219   4.069   3.148   9.385  1.0659  0.9499  0.6413
  185SAPI  H14R21220   4.080   3.040   9.402 -2.7389 -0.2346 -2.7305
  185SAPI  C21521221   4.087   3.192   9.260 -0.0541 -0.1154  0.1288
  185SAPI  H15R21222   4.124   3.125   9.181  0.3894  0.9360 -0.5690
  185SAPI  C21621223   4.078   3.334   9.208  0.2112  0.2470 -0.9024
  185SAPI  H16R21224   4.128   3.399   9.283  0.4962  0.4076 -1.2285
  185SAPI  H16S21225   3.973   3.367   9.194 -0.0799 -0.7911 -1.2663
  185SAPI  C21721226   4.155   3.374   9.077 -0.2015 -0.3489 -0.4452
  185SAPI  H17R21227   4.260   3.339   9.090  1.1364  3.3599 -0.1633
  185SAPI  H17S21228   4.165   3.484   9.072  0.7328 -0.4747 -2.6074
  185SAPI  C21821229   4.104   3.334   8.938 -0.2324  0.2084  0.5028
  185SAPI  H18R21230   4.008   3.383   8.910  0.7054  2.1839  0.6264
  185SAPI  H18S21231   4.097   3.223   8.932 -1.8077  0.2092  1.4781
  185SAPI  C21921232   4.195   3.359   8.817 -0.3413 -0.0035 -0.4946
  185SAPI  H19R21233   4.299   3.339   8.850 -0.8134  0.3174  1.2905
  185SAPI  H19S21234   4.202   3.468   8.795  1.8089 -0.3564 -1.7754
  185SAPI  C22021235   4.166   3.273   8.693  0.6559  0.3259 -0.1145
  185SAPI  H20R21236   4.223   3.318   8.608 -0.0870  1.6339  0.0522
  185SAPI  H20S21237   4.057   3.286   8.677  0.6285  2.4807  1.3065
  185SAPI  H20T21238   4.173   3.164   8.712  2.6420  0.5855  0.8906
  185SAPI   C3321239   3.314   3.497   9.985 -0.0969  0.3270 -0.7574
  185SAPI   H3X21240   3.394   3.547  10.044 -1.4297  1.5986  0.0263
  185SAPI   H3Y21241   3.233   3.570   9.967 -0.4421  0.5484  1.3974
  185SAPI   C3421242   3.383   3.464   9.851  0.7179 -0.2726 -0.2688
  185SAPI   H4X21243   3.475   3.405   9.870  0.4016 -1.6917 -2.6628
  185SAPI   H4Y21244   3.415   3.557   9.801  0.9388 -0.3449 -0.2615
  185SAPI   C3521245   3.295   3.376   9.752  0.6349 -0.0984 -0.2236
  185SAPI   H5X21246   3.192   3.417   9.743  0.1400 -1.7057 -2.7378
  185SAPI   H5Y21247   3.288   3.276   9.800 -0.2605  0.9491  2.0097
  185SAPI   C3621248   3.359   3.352   9.611  0.3284 -0.9487 -0.0020
  185SAPI   H6X21249   3.305   3.269   9.561  1.5518 -1.4306 -0.5782
  185SAPI   H6Y21250   3.460   3.311   9.636 -0.7363 -3.1461  0.9247
  185SAPI   C3721251   3.358   3.481   9.524 -0.3176  0.0421 -0.3248
  185SAPI   H7X21252   3.391   3.566   9.587 -2.8150  0.2657  0.7961
  185SAPI   H7Y21253   3.256   3.504   9.488 -0.2617 -1.1937 -1.3532
  185SAPI   C3821254   3.447   3.477   9.404 -0.2021 -0.5413  0.5383
  185SAPI   H8X21255   3.547   3.499   9.446 -1.2020  3.0359  1.4276
  185SAPI   H8Y21256   3.419   3.563   9.340 -0.0939 -0.7806  0.1701
  185SAPI   C3921257   3.455   3.349   9.316 -0.0670  0.2834  0.3237
  185SAPI   H9X21258   3.355   3.310   9.285  1.5515 -2.4046 -1.9025
  185SAPI   H9Y21259   3.494   3.270   9.384  0.6942 -2.7904 -3.3121
  185SAPI  C31021260   3.552   3.358   9.202 -0.0503 -0.2270  0.2888
  185SAPI  H10X21261   3.645   3.408   9.237  1.5667 -2.3861 -0.6889
  185SAPI  H10Y21262   3.503   3.436   9.140 -0.6309 -0.4521  0.4661
  185SAPI  C31121263   3.577   3.218   9.150 -0.8469  0.0711 -0.3342
  185SAPI  H11X21264   3.489   3.151   9.140  0.4630 -2.1895  1.9097
  185SAPI  H11Y21265   3.645   3.175   9.227 -1.2330  2.1999  1.2933
  185SAPI  C31221266   3.646   3.228   9.017 -0.9558 -0.5514  0.0312
  185SAPI  H12X21267   3.734   3.294   9.029 -1.2439 -0.5572  2.6010
  185SAPI  H12Y21268   3.579   3.286   8.950 -0.3795  0.5312  0.3825
  185SAPI  C31321269   3.675   3.090   8.958 -0.7489 -0.0831 -0.3966
  185SAPI  H13X21270   3.585   3.029   8.980 -2.6672  2.1420 -1.6397
  185SAPI  H13Y21271   3.760   3.033   9.002 -1.3529 -2.3901 -2.0520
  185SAPI  C31421272   3.699   3.092   8.807 -0.0244 -0.5131  0.0419
  185SAPI  H14X21273   3.734   2.991   8.777  1.0705 -0.7991  2.1023
  185SAPI  H14Y21274   3.784   3.159   8.780 -0.8459  0.4817 -0.1224
  185SAPI  C31521275   3.580   3.133   8.722 -0.1207 -0.5853 -0.3745
  185SAPI  H15X21276   3.580   3.244   8.724 -0.7694 -0.5605 -1.1381
  185SAPI  H15Y21277   3.501   3.081   8.779  0.8056 -2.2385 -0.5409
  185SAPI  C31621278   3.581   3.099   8.573 -0.2009  0.6683  0.0983
  185SAPI  H16X21279   3.675   3.131   8.524 -1.4237  2.2907 -1.3123
  185SAPI  H16Y21280   3.508   3.155   8.510  0.9370  1.0771 -0.9074
  185SAPI  C31721281   3.570   2.951   8.542 -1.1176  0.5023  0.6457
  185SAPI  H17X21282   3.487   2.915   8.606 -0.2577 -0.0864  1.4527
  185SAPI  H17Y21283   3.665   2.903   8.576 -1.1129  0.3941  0.4819
  185SAPI  C31821284   3.541   2.923   8.396 -0.0471 -0.2114  0.5904
  185SAPI  H18X21285   3.501   2.820   8.383  2.1981 -0.9556 -1.0829
  185SAPI  H18Y21286   3.638   2.930   8.341  0.7614 -0.8698  1.8681
  185SAPI  H18Z21287   3.475   2.998   8.349  1.0367  0.3212 -0.1199
  186SAPI   C1221288   4.378   2.945  11.012  0.1902  0.5488  0.0802
  186SAPI    H221289   4.339   2.968  11.114  0.2213 -0.9067  0.4530
  186SAPI    O221290   4.389   3.066  10.949  0.4104 -0.5001 -0.2181
  186SAPI   HO221291   4.304   3.095  10.916  0.9867  0.6979 -0.7241
  186SAPI   C1321292   4.503   2.857  11.025 -0.0727 -0.6944 -0.2771
  186SAPI    H321293   4.482   2.765  11.083  1.7406  0.2106  1.9475
  186SAPI    O321294   4.594   2.922  11.114 -0.2189 -0.1514 -0.4831
  186SAPI   HO321295   4.634   2.995  11.066 -0.1017  0.3572  0.3523
  186SAPI   C1421296   4.564   2.838  10.892 -0.0076 -0.2088  0.0583
  186SAPI    H421297   4.616   2.934  10.868 -3.1336  1.7923  0.6253
  186SAPI    O421298   4.672   2.744  10.884 -0.5257  0.0129  0.5313
  186SAPI   HO421299   4.752   2.790  10.857  0.4700 -1.8053  0.1695
  186SAPI   C1521300   4.465   2.821  10.775  0.9010  0.0062 -0.4843
  186SAPI    H521301   4.474   2.716  10.742  2.0591  0.5496 -2.0147
  186SAPI    O521302   4.499   2.899  10.667  0.4912 -0.0777  0.7314
  186SAPI   HO521303   4.582   2.874  10.625  2.4919  1.6788  3.3080
  186SAPI   C1621304   4.309   2.836  10.803  0.5392 -0.3132 -0.3159
  186SAPI    H621305   4.285   2.931  10.752  1.6188 -0.4662 -1.1491
  186SAPI    O621306   4.234   2.738  10.736  0.2818  0.2882  0.0164
  186SAPI   HO621307   4.143   2.765  10.751 -0.6889 -2.1353 -0.9522
  186SAPI   C1121308   4.272   2.854  10.948 -0.0059  0.0416 -0.7136
  186SAPI    H121309   4.272   2.755  10.998 -0.3514  0.3342 -0.1118
  186SAPI     P21310   4.008   2.832  10.997  0.1388 -0.1394 -0.0143
  186SAPI   O1321311   3.908   2.935  11.028 -0.4045 -0.7239  0.0922
  186SAPI   O1421312   4.031   2.721  11.091  0.4642  0.2551  0.2126
  186SAPI   O1221313   4.145   2.917  10.966  0.2275  0.3759  0.1608
  186SAPI   O1121314   3.979   2.783  10.847 -0.3289 -0.3198 -0.2423
  186SAPI    C121315   3.915   2.866  10.748  0.0184  0.4016  0.4721
  186SAPI    HA21316   3.823   2.909  10.793  0.9224  3.5144 -0.3763
  186SAPI    HB21317   3.976   2.957  10.726 -1.6778  0.9996 -2.2341
  186SAPI    C221318   3.891   2.789  10.622  0.0007  0.5433  0.1582
  186SAPI    HS21319   3.980   2.773  10.557  1.0141  1.9507  1.1413
  186SAPI   O2121320   3.795   2.844  10.536  0.1478  0.3416  0.2871
  186SAPI   C2121321   3.833   2.949  10.463 -0.2860  0.0895 -0.4211
  186SAPI   O2221322   3.947   2.991  10.454 -0.5102 -0.0329 -0.5139
  186SAPI   C2221323   3.722   2.999  10.379 -0.0735 -0.7968  0.7308
  186SAPI   H2R21324   3.657   3.061  10.446  0.1137  2.0505 -1.5253
  186SAPI   H2S21325   3.765   3.068  10.304 -0.3839  0.2611  1.4915
  186SAPI    C321326   3.830   2.641  10.660  0.1918  0.4284  0.3831
  186SAPI    HX21327   3.747   2.652  10.733 -0.1479 -0.2236  0.0976
  186SAPI    HY21328   3.910   2.589  10.717 -2.3699 -0.5404  3.4093
  186SAPI   O3121329   3.775   2.568  10.549  0.4313 -0.2100  0.2956
  186SAPI   C3121330   3.870   2.506  10.475 -0.8411 -0.8081 -0.2577
  186SAPI   O3221331   3.992   2.500  10.501 -0.3171 -0.4325  0.6832
  186SAPI   C3221332   3.812   2.449  10.354 -0.2919 -0.5115 -1.3853
  186SAPI   H2X21333   3.706   2.421  10.368  0.1621 -1.4421  0.4466
  186SAPI   H2Y21334   3.860   2.350  10.338 -0.7795 -0.7519 -1.3444
  186SAPI   C2321335   3.625   2.898  10.304 -0.2334 -1.0362  0.1922
  186SAPI   H3R21336   3.575   2.837  10.383 -1.0271 -0.2716  0.2918
  186SAPI   H3S21337   3.678   2.832  10.232  1.0274  0.3012 -0.1503
  186SAPI   C2421338   3.526   2.976  10.207 -0.1012  0.6153 -0.5511
  186SAPI   H4R21339   3.472   3.049  10.271 -0.6219 -1.5763  1.6784
  186SAPI   H4S21340   3.450   2.902  10.175  0.6491 -0.6310  0.4291
  186SAPI   C2521341   3.581   3.053  10.087  0.7498 -0.6503 -0.3473
  186SAPI   H5R21342   3.658   3.129  10.107 -1.9949  2.4838 -0.7521
  186SAPI   C2621343   3.538   3.051   9.963  0.3791  0.3323 -0.5305
  186SAPI   H6R21344   3.591   3.125   9.901  0.8604  0.1340 -0.3610
  186SAPI   C2721345   3.430   2.970   9.905  0.0573  0.3732  0.4768
  186SAPI   H7R21346   3.377   3.026   9.824 -0.3475  0.6451  0.9224
  186SAPI   H7S21347   3.351   2.957   9.981  0.1767 -3.2136  0.1337
  186SAPI   C2821348   3.478   2.837   9.844  0.1086 -0.5483 -0.5439
  186SAPI   H8R21349   3.478   2.752   9.914  2.2276 -0.3171 -0.1988
  186SAPI   C2921350   3.516   2.820   9.713  1.1698  0.3799 -0.5053
  186SAPI   H9R21351   3.542   2.719   9.676  3.9439  1.5809 -2.1309
  186SAPI  C21021352   3.524   2.919   9.603  0.3255  0.5945  0.1578
  186SAPI  H10R21353   3.471   3.012   9.633 -0.1047  0.8929 -1.4230
  186SAPI  H10S21354   3.475   2.875   9.514 -1.1703  0.7673  0.8615
  186SAPI  C21121355   3.672   2.956   9.566  0.5723 -0.0141 -0.3705
  186SAPI  H11R21356   3.734   3.009   9.640  3.4720 -1.5278 -1.5879
  186SAPI  C21221357   3.717   2.942   9.436 -0.2645  0.6271  0.7000
  186SAPI  H12R21358   3.818   2.974   9.407 -0.3720  0.1859 -0.1910
  186SAPI  C21321359   3.638   2.905   9.308 -0.0405 -0.2115  0.4062
  186SAPI  H13R21360   3.694   2.928   9.215  0.7896 -2.0397  0.4121
  186SAPI  H13S21361   3.535   2.946   9.312  0.4527  1.3913 -1.6648
  186SAPI  C21421362   3.623   2.750   9.311 -0.5299  0.1679  0.2078
  186SAPI  H14R21363   3.675   2.705   9.397 -1.4307  0.4341  0.9118
  186SAPI  C21521364   3.579   2.670   9.209  0.2645 -0.5185  0.4905
  186SAPI  H15R21365   3.563   2.562   9.223 -2.3470 -0.4309 -1.1829
  186SAPI  C21621366   3.534   2.713   9.077  0.1306 -1.0624  0.3694
  186SAPI  H16R21367   3.557   2.819   9.055  0.1340 -0.3983  3.1538
  186SAPI  H16S21368   3.424   2.699   9.073  0.1404 -0.9083 -0.9488
  186SAPI  C21721369   3.595   2.620   8.967  0.2640  0.1155 -0.0802
  186SAPI  H17R21370   3.556   2.518   8.985 -1.1135  0.2924 -1.8611
  186SAPI  H17S21371   3.706   2.613   8.978  0.1611  0.0650  1.1748
  186SAPI  C21821372   3.570   2.634   8.816 -0.3320  0.0717 -0.0024
  186SAPI  H18R21373   3.646   2.581   8.755 -0.6109 -2.1353  1.4549
  186SAPI  H18S21374   3.563   2.744   8.799 -0.7345  0.4602  2.3396
  186SAPI  C21921375   3.436   2.588   8.766 -0.1436  0.0005 -0.4357
  186SAPI  H19R21376   3.359   2.652   8.814 -2.7667 -1.1559 -2.8402
  186SAPI  H19S21377   3.424   2.489   8.816 -1.0133  1.0860  1.6546
  186SAPI  C22021378   3.408   2.579   8.612 -0.1674  0.3163  0.4220
  186SAPI  H20R21379   3.451   2.488   8.565  0.8481  2.0222 -2.1780
  186SAPI  H20S21380   3.445   2.668   8.557  0.4104 -0.7035 -0.8969
  186SAPI  H20T21381   3.297   2.580   8.604 -0.1110  0.6628 -0.4444
  186SAPI   C3321382   3.829   2.538  10.236  0.0068  0.5536  0.0834
  186SAPI   H3X21383   3.929   2.522  10.192  0.7577  2.6708  0.8704
  186SAPI   H3Y21384   3.817   2.641  10.276  1.5968  1.3190 -1.2910
  186SAPI   C3421385   3.742   2.520  10.118  0.1636  0.1739  0.0395
  186SAPI   H4X21386   3.781   2.583  10.035  1.5931  1.4335  1.6236
  186SAPI   H4Y21387   3.642   2.563  10.142 -0.6535 -0.5191 -1.8559
  186SAPI   C3521388   3.726   2.374  10.063 -0.4150  0.2938 -0.0991
  186SAPI   H5X21389   3.629   2.332  10.099  0.4403  0.0285  2.0288
  186SAPI   H5Y21390   3.808   2.309  10.098  1.5428  2.6818  0.0039
  186SAPI   C3621391   3.731   2.367   9.911  0.5834 -0.1675 -0.3056
  186SAPI   H6X21392   3.708   2.259   9.901  2.8323 -1.4672  5.0815
  186SAPI   H6Y21393   3.839   2.367   9.883  0.1476  1.8764 -2.2496
  186SAPI   C3721394   3.646   2.467   9.837  0.1883 -0.0623  0.6611
  186SAPI   H7X21395   3.677   2.574   9.844 -1.0764  0.3350  0.3870
  186SAPI   H7Y21396   3.540   2.464   9.868 -0.2982 -0.9490 -0.9787
  186SAPI   C3821397   3.635   2.438   9.687 -0.3271  0.0400  0.5628
  186SAPI   H8X21398   3.581   2.518   9.632 -0.1967  0.1376  0.5797
  186SAPI   H8Y21399   3.557   2.359   9.678 -0.6809  0.5899 -2.5972
  186SAPI   C3921400   3.758   2.384   9.619 -0.2772  0.1785  0.0357
  186SAPI   H9X21401   3.789   2.286   9.661  0.0711  0.5532  0.6808
  186SAPI   H9Y21402   3.841   2.456   9.638 -1.0826  1.3516 -0.7316
  186SAPI  C31021403   3.746   2.382   9.464  0.3607  0.2450 -0.2114
  186SAPI  H10X21404   3.728   2.479   9.412 -0.9872  0.2729  0.2543
  186SAPI  H10Y21405   3.673   2.301   9.443  1.0612 -1.0603  2.0398
  186SAPI  C31121406   3.887   2.338   9.399 -0.0414 -0.5741 -0.4451
  186SAPI  H11X21407   3.892   2.235   9.440 -2.8190  0.0117  1.6394
  186SAPI  H11Y21408   3.961   2.402   9.453 -1.9345  0.1659  1.4091
  186SAPI  C31221409   3.895   2.336   9.245  0.0002 -0.6652 -0.2147
  186SAPI  H12X21410   3.992   2.291   9.214 -0.1183 -0.1892 -1.3378
  186SAPI  H12Y21411   3.910   2.441   9.211 -0.8515 -0.3570  0.3309
  186SAPI  C31321412   3.784   2.254   9.192  0.3378  0.3760  0.0086
  186SAPI  H13X21413   3.687   2.308   9.199 -0.8717 -0.8487 -4.1858
  186SAPI  H13Y21414   3.763   2.168   9.259 -3.7210  0.5233 -0.7866
  186SAPI  C31421415   3.803   2.221   9.044 -0.3985  0.0940 -0.1838
  186SAPI  H14X21416   3.867   2.130   9.047  0.1297  0.4844  0.4256
  186SAPI  H14Y21417   3.857   2.306   8.997 -1.0256 -0.3983 -1.8819
  186SAPI  C31521418   3.680   2.197   8.957 -1.0393  0.3529 -0.2100
  186SAPI  H15X21419   3.613   2.286   8.968  0.7371  1.6928  0.3898
  186SAPI  H15Y21420   3.633   2.110   9.008 -1.3879 -0.4976 -1.9329
  186SAPI  C31621421   3.710   2.159   8.812 -0.6846 -0.2485  0.1200
  186SAPI  H16X21422   3.628   2.101   8.765 -1.1086  1.9463 -2.0556
  186SAPI  H16Y21423   3.797   2.093   8.825 -0.8177 -0.0546  2.4288
  186SAPI  C31721424   3.742   2.277   8.712  0.6576  0.3004 -0.9730
  186SAPI  H17X21425   3.843   2.316   8.738 -0.2126  1.7218  0.4905
  186SAPI  H17Y21426   3.669   2.358   8.736 -2.0845 -1.8537 -1.5930
  186SAPI  C31821427   3.743   2.225   8.571  0.3953 -0.2821 -0.5981
  186SAPI  H18X21428   3.762   2.301   8.492 -2.7313  1.2214 -0.0540
  186SAPI  H18Y21429   3.646   2.180   8.543 -1.9621  3.4810  0.7703
  186SAPI  H18Z21430   3.823   2.151   8.547 -0.0064 -0.6734 -0.7469
  187SAPI   C1221431   1.053   6.125   6.148  0.3629 -0.1605  0.2375
  187SAPI    H221432   1.104   6.214   6.190 -1.0759  0.9745 -0.3590
  187SAPI    O221433   0.918   6.154   6.120 -0.1846  0.4556 -0.0059
  187SAPI   HO221434   0.878   6.166   6.207  0.9416 -0.5270  0.6907
  187SAPI   C1321435   1.132   6.089   6.032 -0.3312 -0.4505  0.8012
  187SAPI    H321436   1.233   6.063   6.069 -0.0623 -0.6718 -0.0683
  187SAPI    O321437   1.149   6.196   5.938  0.0280 -0.1036 -0.9239
  187SAPI   HO321438   1.242   6.199   5.911  0.0711 -0.4521 -0.8128
  187SAPI   C1421439   1.081   5.970   5.960  0.4612  0.1324 -0.2839
  187SAPI    H421440   0.998   6.011   5.898  2.6727  0.9667 -2.8498
  187SAPI    O421441   1.174   5.924   5.864 -0.0222 -0.3398  0.6111
  187SAPI   HO421442   1.160   5.983   5.789 -0.4520 -1.5206 -0.2710
  187SAPI   C1521443   1.024   5.852   6.040  0.1384 -0.4830  0.0893
  187SAPI    H521444   1.099   5.771   6.047  0.5811 -0.0641  0.2174
  187SAPI    O521445   0.910   5.783   5.976 -0.0115 -0.1717  0.0804
  187SAPI   HO521446   0.889   5.704   6.025 -2.8286 -0.2999 -1.1645
  187SAPI   C1621447   0.998   5.881   6.193  0.0223 -0.5291 -0.1171
  187SAPI    H621448   0.888   5.900   6.195  0.1823  0.8536 -1.9074
  187SAPI    O621449   1.031   5.774   6.276  0.2950 -0.0612 -0.0857
  187SAPI   HO621450   0.999   5.766   6.366  1.2503 -2.9982  0.1088
  187SAPI   C1121451   1.066   6.004   6.241  0.3259 -0.2243  0.2253
  187SAPI    H121452   1.175   5.984   6.251  0.3252 -1.6796 -1.9457
  187SAPI     P21453   1.098   6.095   6.496  0.4659 -0.1775  0.4506
  187SAPI   O1321454   1.000   6.141   6.596 -0.4603  0.1526 -0.1631
  187SAPI   O1421455   1.197   6.196   6.446  0.5743  0.7741 -0.4943
  187SAPI   O1221456   1.016   6.035   6.370  0.7411 -0.6904  0.5740
  187SAPI   O1121457   1.177   5.971   6.542  0.3396  0.3423  0.5854
  187SAPI    C121458   1.312   5.946   6.515  0.3708 -0.2630 -0.4808
  187SAPI    HA21459   1.335   5.938   6.407 -1.3101 -2.4985 -0.7370
  187SAPI    HB21460   1.368   6.025   6.570 -0.8477 -0.0943  0.5592
  187SAPI    C221461   1.350   5.810   6.572 -0.4585  0.1489 -0.4090
  187SAPI    HS21462   1.284   5.732   6.529 -3.8372  2.3137  0.5069
  187SAPI   O2121463   1.358   5.809   6.715 -0.5587  0.3194 -0.8189
  187SAPI   C2121464   1.236   5.784   6.771  0.6340  0.4264 -1.0655
  187SAPI   O2221465   1.135   5.737   6.719  0.0177 -0.5658  0.6401
  187SAPI   C2221466   1.235   5.832   6.916  0.3370  0.1702 -0.1777
  187SAPI   H2R21467   1.306   5.762   6.966 -0.2286 -0.2067  0.0987
  187SAPI   H2S21468   1.265   5.939   6.910 -2.1176  0.8334 -1.8514
  187SAPI    C321469   1.495   5.786   6.513  0.5107  0.4975  0.0402
  187SAPI    HX21470   1.548   5.879   6.542 -0.6044  1.2793 -0.3607
  187SAPI    HY21471   1.500   5.787   6.402  0.0157  1.8960  0.0159
  187SAPI   O3121472   1.572   5.680   6.580  0.1324  0.0820  0.1455
  187SAPI   C3121473   1.553   5.562   6.518 -0.4405 -0.7005 -0.1836
  187SAPI   O3221474   1.470   5.541   6.429 -0.0974  0.8974 -0.2865
  187SAPI   C3221475   1.657   5.464   6.563 -0.4348  0.2899 -0.1563
  187SAPI   H2X21476   1.750   5.516   6.597 -0.3334  0.6960 -1.0377
  187SAPI   H2Y21477   1.669   5.403   6.472 -1.2410 -0.9968  0.5788
  187SAPI   C2321478   1.102   5.828   6.983 -0.3858  0.4911  0.1277
  187SAPI   H3R21479   1.050   5.730   6.978 -0.9737  0.8145 -0.1957
  187SAPI   H3S21480   1.034   5.883   6.915 -0.7131 -0.3796 -0.2683
  187SAPI   C2421481   1.103   5.882   7.124 -0.3435  0.4342 -1.0879
  187SAPI   H4R21482   1.000   5.919   7.141 -0.3491 -0.1603  0.3539
  187SAPI   H4S21483   1.182   5.960   7.134  0.5566 -0.5954  0.2140
  187SAPI   C2521484   1.130   5.765   7.218  0.0004 -0.2101 -0.8476
  187SAPI   H5R21485   1.095   5.664   7.193  1.6376 -0.3898 -2.6461
  187SAPI   C2621486   1.214   5.782   7.325 -0.4966 -0.4518  1.0990
  187SAPI   H6R21487   1.239   5.688   7.378  0.3775 -0.1677  1.2087
  187SAPI   C2721488   1.290   5.896   7.380  0.8214  0.3104 -0.0090
  187SAPI   H7R21489   1.222   5.967   7.432  0.0186  0.3168 -1.0310
  187SAPI   H7S21490   1.326   5.965   7.300  0.3390  0.3110 -0.2267
  187SAPI   C2821491   1.409   5.847   7.457 -0.0085 -0.0213 -0.0007
  187SAPI   H8R21492   1.487   5.797   7.398  0.8635 -0.8083  1.7492
  187SAPI   C2921493   1.441   5.870   7.587 -0.2358 -0.4489 -0.2396
  187SAPI   H9R21494   1.518   5.812   7.639 -0.2135  1.0449  1.5040
  187SAPI  C21021495   1.342   5.943   7.679 -0.6852  0.2507 -0.1140
  187SAPI  H10R21496   1.258   5.876   7.707  0.5907 -0.9116  1.1653
  187SAPI  H10S21497   1.300   6.029   7.624  0.7746  1.8591  1.1739
  187SAPI  C21121498   1.413   5.997   7.803  0.1554 -0.1007 -0.0634
  187SAPI  H11R21499   1.472   6.088   7.785 -1.0855  0.9641  1.0303
  187SAPI  C21221500   1.425   5.936   7.925  0.3603  0.0811  0.8509
  187SAPI  H12R21501   1.483   5.990   8.001 -0.2911  0.3045  1.1913
  187SAPI  C21321502   1.366   5.804   7.971  0.2427  0.0260 -0.0397
  187SAPI  H13R21503   1.428   5.754   8.049 -2.6759 -0.6710  2.0115
  187SAPI  H13S21504   1.362   5.734   7.885 -1.2535  2.5409 -2.1355
  187SAPI  C21421505   1.220   5.802   8.011 -0.0909 -0.3227  0.1965
  187SAPI  H14R21506   1.160   5.881   7.964 -0.5226 -0.2247  0.9084
  187SAPI  C21521507   1.165   5.704   8.090  0.2229 -0.1527 -0.3529
  187SAPI  H15R21508   1.066   5.725   8.134  0.4263  1.9914 -0.7947
  187SAPI  C21621509   1.234   5.585   8.148  0.0011 -0.6519 -0.0643
  187SAPI  H16R21510   1.323   5.553   8.089 -0.5131 -2.3328  0.0131
  187SAPI  H16S21511   1.169   5.495   8.138 -1.5985  0.3217  1.1735
  187SAPI  C21721512   1.264   5.617   8.300  0.8315 -0.4564 -0.0773
  187SAPI  H17R21513   1.178   5.630   8.368  0.7192 -0.7413 -0.1628
  187SAPI  H17S21514   1.328   5.708   8.309  2.6086 -1.8407  2.6324
  187SAPI  C21821515   1.341   5.501   8.375 -0.4276 -0.2360  0.2620
  187SAPI  H18R21516   1.424   5.463   8.311 -0.9261 -1.5701  0.3741
  187SAPI  H18S21517   1.271   5.416   8.382 -0.1376 -0.6242 -1.2267
  187SAPI  C21921518   1.387   5.562   8.509  0.6191  0.2225 -0.8407
  187SAPI  H19R21519   1.301   5.550   8.579  0.0047  1.2304 -1.3890
  187SAPI  H19S21520   1.395   5.672   8.521 -0.9991  0.1428  2.0307
  187SAPI  C22021521   1.505   5.494   8.575 -0.2391 -0.6740  0.2365
  187SAPI  H20R21522   1.594   5.524   8.517  1.1241  1.6282  3.2330
  187SAPI  H20S21523   1.499   5.384   8.569 -0.3188 -0.7046  0.7712
  187SAPI  H20T21524   1.528   5.535   8.676 -1.1497 -0.6008  0.4235
  187SAPI   C3321525   1.593   5.386   6.678 -0.0480  0.1999  0.9992
  187SAPI   H3X21526   1.632   5.286   6.705  0.7712  0.3373  0.3478
  187SAPI   H3Y21527   1.484   5.378   6.656 -0.4131  2.6282  1.5641
  187SAPI   C3421528   1.591   5.467   6.808  0.3204 -0.4499 -0.4328
  187SAPI   H4X21529   1.531   5.561   6.801  0.5459 -0.3509 -1.0882
  187SAPI   H4Y21530   1.697   5.492   6.829  0.0677 -0.6320  1.1891
  187SAPI   C3521531   1.534   5.390   6.931  0.2586  0.4155 -0.0753
  187SAPI   H5X21532   1.589   5.295   6.945  1.7420  1.2454 -0.0235
  187SAPI   H5Y21533   1.426   5.365   6.921 -0.1247  1.4529  1.2379
  187SAPI   C3621534   1.555   5.470   7.060 -0.0592 -0.5655  0.4424
  187SAPI   H6X21535   1.503   5.567   7.049  0.3195 -0.4018  0.1072
  187SAPI   H6Y21536   1.663   5.488   7.077 -0.2658 -1.7274  3.8227
  187SAPI   C3721537   1.492   5.399   7.184 -0.5533 -0.4488 -0.2291
  187SAPI   H7X21538   1.499   5.290   7.166  0.6302  0.1031 -4.0821
  187SAPI   H7Y21539   1.389   5.435   7.202 -0.0986  0.8597 -0.0907
  187SAPI   C3821540   1.570   5.425   7.308 -0.3195  0.1091 -0.7943
  187SAPI   H8X21541   1.581   5.534   7.325 -0.7785  0.0064  0.2890
  187SAPI   H8Y21542   1.673   5.386   7.300 -0.6287 -1.2091  1.0034
  187SAPI   C3921543   1.511   5.349   7.430  0.2462 -0.1441  0.0505
  187SAPI   H9X21544   1.500   5.239   7.419  1.1640 -0.2755  0.3749
  187SAPI   H9Y21545   1.405   5.382   7.439 -0.0690 -1.7015  3.6039
  187SAPI  C31021546   1.581   5.376   7.562  0.1112  0.3449  0.4430
  187SAPI  H10X21547   1.690   5.356   7.562  0.1622  0.6239  1.0090
  187SAPI  H10Y21548   1.541   5.294   7.625 -1.2089 -0.7744 -1.6953
  187SAPI  C31121549   1.550   5.520   7.619  0.2745  0.1515 -0.3079
  187SAPI  H11X21550   1.440   5.526   7.613  0.2196 -0.0154  0.4046
  187SAPI  H11Y21551   1.604   5.595   7.558  2.3664 -0.4084  0.7316
  187SAPI  C31221552   1.591   5.533   7.767 -0.1068  0.0600 -0.3485
  187SAPI  H12X21553   1.520   5.471   7.824  0.2966 -0.4841 -0.4300
  187SAPI  H12Y21554   1.581   5.641   7.790 -2.6224 -0.0629 -0.6296
  187SAPI  C31321555   1.737   5.513   7.797 -0.1724  0.4412 -0.6214
  187SAPI  H13X21556   1.806   5.554   7.721  1.8468  1.6229  1.7103
  187SAPI  H13Y21557   1.762   5.404   7.797 -1.7518  0.0276 -2.8863
  187SAPI  C31421558   1.792   5.582   7.923 -0.1241  0.3167 -0.1512
  187SAPI  H14X21559   1.817   5.688   7.900  1.5591  0.0033  0.1037
  187SAPI  H14Y21560   1.894   5.545   7.947  1.0619  2.9864 -0.6027
  187SAPI  C31521561   1.705   5.559   8.042 -0.2184  0.6680  0.4053
  187SAPI  H15X21562   1.672   5.453   8.037 -2.0147  1.2445 -0.8326
  187SAPI  H15Y21563   1.613   5.617   8.020  0.4135  0.1584 -4.7230
  187SAPI  C31621564   1.752   5.612   8.177 -0.3094 -0.1225  0.4712
  187SAPI  H16X21565   1.672   5.587   8.250 -1.4936  0.0748 -0.7173
  187SAPI  H16Y21566   1.753   5.722   8.188 -0.3758 -0.1180  0.4378
  187SAPI  C31721567   1.887   5.558   8.216 -0.8178  0.0065 -0.1651
  187SAPI  H17X21568   1.955   5.617   8.151  1.1044 -1.0405  0.8052
  187SAPI  H17Y21569   1.911   5.453   8.191  0.5697  0.3139 -0.2119
  187SAPI  C31821570   1.930   5.591   8.355 -0.3093  0.3589  0.2026
  187SAPI  H18X21571   1.876   5.529   8.430  0.2545  1.2012  1.3313
  187SAPI  H18Y21572   1.905   5.695   8.384  0.5879  0.8849 -0.8705
  187SAPI  H18Z21573   2.039   5.574   8.367 -0.5765 -1.9383 -0.1571
  188SAPI   C1221574   4.071   0.811   6.411  0.2501 -0.0986  0.3013
  188SAPI    H221575   4.122   0.755   6.492  0.1213 -1.8613 -0.7851
  188SAPI    O221576   3.938   0.763   6.391  0.7249 -0.2449 -0.1756
  188SAPI   HO221577   3.946   0.667   6.390  0.7077 -0.2577  0.5242
  188SAPI   C1321578   4.064   0.960   6.438  0.2859  0.5767 -0.3003
  188SAPI    H321579   4.170   0.985   6.460  1.2772 -1.0345 -2.8085
  188SAPI    O321580   3.998   1.000   6.559  0.2618  0.4393  1.1195
  188SAPI   HO321581   3.908   0.966   6.563  0.4559 -0.1600  0.6448
  188SAPI   C1421582   4.031   1.045   6.322 -0.6873  0.7635  0.7435
  188SAPI    H421583   3.921   1.032   6.319 -0.7486  1.4102 -0.7677
  188SAPI    O421584   4.076   1.177   6.347  0.4725 -0.6153  0.3229
  188SAPI   HO421585   3.994   1.228   6.348  0.0452 -1.0917 -2.3021
  188SAPI   C1521586   4.080   1.015   6.177  0.1895 -0.0334 -0.1433
  188SAPI    H521587   4.188   1.039   6.178  0.6669 -1.9260 -1.2427
  188SAPI    O521588   4.003   1.098   6.084 -0.8582 -0.0330  0.4454
  188SAPI   HO521589   4.068   1.150   6.036  0.3268 -1.7366  0.1057
  188SAPI   C1621590   4.082   0.867   6.149 -0.1876 -0.3321  0.4624
  188SAPI    H621591   3.976   0.835   6.136  0.1257 -1.4977  0.6151
  188SAPI    O621592   4.147   0.837   6.023  0.1501  0.1996  0.6308
  188SAPI   HO621593   4.147   0.741   6.023 -2.0141  0.1301 -0.4885
  188SAPI   C1121594   4.138   0.793   6.275 -0.5024  0.7428  0.3363
  188SAPI    H121595   4.245   0.819   6.292 -0.7990  2.0681  0.3244
  188SAPI     P21596   4.247   0.543   6.311 -0.1013 -0.1895  0.1915
  188SAPI   O1321597   4.377   0.610   6.322 -0.5737 -0.2140  0.5000
  188SAPI   O1421598   4.241   0.419   6.228 -0.4890 -0.0215 -0.8935
  188SAPI   O1221599   4.143   0.647   6.245  0.7660 -0.1097 -0.0156
  188SAPI   O1121600   4.190   0.523   6.460  0.6622 -0.5159  0.4215
  188SAPI    C121601   4.090   0.431   6.489 -0.2931 -0.0122  0.0101
  188SAPI    HA21602   3.994   0.487   6.498  0.4672  1.0389  3.2113
  188SAPI    HB21603   4.076   0.360   6.406  2.2379  0.3810 -0.8642
  188SAPI    C221604   4.121   0.345   6.614  0.8027  0.4496  0.4145
  188SAPI    HS21605   4.032   0.280   6.626  1.8476 -0.8434  1.4848
  188SAPI   O2121606   4.142   0.420   6.737 -0.1744 -0.0093  0.3643
  188SAPI   C2121607   4.042   0.499   6.771 -0.2354  0.4264 -0.6209
  188SAPI   O2221608   3.931   0.481   6.730 -0.0997 -0.1028  0.7116
  188SAPI   C2221609   4.091   0.612   6.867 -0.3436 -0.5435 -0.2131
  188SAPI   H2R21610   4.195   0.584   6.897 -0.0458  2.3582  1.9149
  188SAPI   H2S21611   4.109   0.702   6.805 -0.8345 -1.2147 -1.3448
  188SAPI    C321612   4.251   0.257   6.589  0.2240  0.3241 -0.1536
  188SAPI    HX21613   4.321   0.343   6.580 -0.3529  0.8273  0.1321
  188SAPI    HY21614   4.248   0.203   6.492 -1.8021 -1.4141  0.7993
  188SAPI   O3121615   4.299   0.173   6.693  0.0949  0.5779 -0.2688
  188SAPI   C3121616   4.228   0.065   6.719  0.2173  1.1260  0.2553
  188SAPI   O3221617   4.125   0.029   6.665 -0.0428  0.0757  0.5634
  188SAPI   C3221618   4.299  -0.022   6.829 -0.6109 -0.1264 -0.1666
  188SAPI   H2X21619   4.389  -0.055   6.772 -1.4081  2.2124 -3.0439
  188SAPI   H2Y21620   4.230  -0.108   6.837 -1.0649  0.0776 -1.5814
  188SAPI   C2321621   4.003   0.638   6.988  0.2579 -0.4780  0.2855
  188SAPI   H3R21622   3.935   0.551   7.003 -0.6032  0.5403  2.8895
  188SAPI   H3S21623   3.950   0.734   6.974  0.6083 -0.0676  1.5729
  188SAPI   C2421624   4.070   0.659   7.120 -0.2973  0.0476  0.3652
  188SAPI   H4R21625   3.993   0.703   7.188 -0.0254 -0.5268  1.0558
  188SAPI   H4S21626   4.146   0.739   7.106  0.6962 -0.8635  0.4921
  188SAPI   C2521627   4.122   0.526   7.169 -0.0368  0.4147 -0.8032
  188SAPI   H5R21628   4.193   0.489   7.093  0.6090  0.7732 -0.3810
  188SAPI   C2621629   4.085   0.453   7.282 -0.5361  0.2724 -0.2468
  188SAPI   H6R21630   4.138   0.358   7.300  0.3752  0.1119 -3.2285
  188SAPI   C2721631   3.972   0.481   7.381 -0.8701  0.6674  0.3004
  188SAPI   H7R21632   3.876   0.496   7.327 -1.4413 -2.2347  0.3787
  188SAPI   H7S21633   3.993   0.577   7.434  0.1230  0.2793  0.6157
  188SAPI   C2821634   3.952   0.369   7.480 -0.2924 -0.4598 -0.7127
  188SAPI   H8R21635   3.854   0.318   7.481 -1.4599  1.6707  0.0508
  188SAPI   C2921636   4.029   0.327   7.585  0.5094 -0.3177  0.1579
  188SAPI   H9R21637   3.988   0.248   7.650  1.0204  1.1441  2.3469
  188SAPI  C21021638   4.158   0.380   7.625 -0.2575  0.3605 -0.6393
  188SAPI  H10R21639   4.195   0.446   7.543  2.7255 -0.9121 -0.4437
  188SAPI  H10S21640   4.235   0.300   7.620 -0.4411  0.1812 -0.6211
  188SAPI  C21121641   4.154   0.451   7.756  0.2608  0.1269 -0.8224
  188SAPI  H11R21642   4.124   0.556   7.754  0.3142  0.1415 -0.8777
  188SAPI  C21221643   4.191   0.407   7.881  0.0700  0.4638 -0.4115
  188SAPI  H12R21644   4.177   0.478   7.964  1.5702 -0.1193  0.3600
  188SAPI  C21321645   4.223   0.262   7.911 -0.0212 -0.4148  0.1007
  188SAPI  H13R21646   4.321   0.249   7.963 -0.9609  1.5209  2.5617
  188SAPI  H13S21647   4.236   0.208   7.814 -1.1609  0.3247 -0.4758
  188SAPI  C21421648   4.128   0.182   7.999 -0.5987  1.0326 -0.1931
  188SAPI  H14R21649   4.026   0.170   7.959 -0.6124 -0.9985  0.3761
  188SAPI  C21521650   4.148   0.141   8.122  0.6094  0.9602  0.0060
  188SAPI  H15R21651   4.072   0.077   8.170 -0.2199 -0.5039 -2.9722
  188SAPI  C21621652   4.274   0.147   8.205  0.0312  0.8784 -0.3017
  188SAPI  H16R21653   4.355   0.182   8.137 -1.4719  0.8765 -2.1777
  188SAPI  H16S21654   4.305   0.041   8.220  0.6183  0.4468 -3.7792
  188SAPI  C21721655   4.265   0.207   8.345  0.2806  0.6611 -0.2418
  188SAPI  H17R21656   4.366   0.196   8.390 -0.4859  0.3644  1.4577
  188SAPI  H17S21657   4.187   0.152   8.403 -1.4750 -0.1974 -3.1667
  188SAPI  C21821658   4.220   0.351   8.368 -0.3240 -0.4036  0.8235
  188SAPI  H18R21659   4.112   0.358   8.343  0.4795  2.1203 -2.7327
  188SAPI  H18S21660   4.266   0.428   8.302 -1.4330 -0.4796 -0.0590
  188SAPI  C21921661   4.242   0.397   8.512  0.7933  0.2756  0.2257
  188SAPI  H19R21662   4.335   0.350   8.552 -0.3306 -1.8012  0.5018
  188SAPI  H19S21663   4.160   0.368   8.581  1.2997 -1.2188  0.2230
  188SAPI  C22021664   4.262   0.549   8.533  0.0421  0.3386 -0.0532
  188SAPI  H20R21665   4.161   0.591   8.513 -0.8639 -1.3447  0.7639
  188SAPI  H20S21666   4.346   0.582   8.468  0.1629  0.1884  0.0252
  188SAPI  H20T21667   4.286   0.574   8.639 -1.2636  0.6243  0.1985
  188SAPI   C3321668   4.332   0.053   6.959  0.8330  0.6719  0.1776
  188SAPI   H3X21669   4.389   0.148   6.945  0.9498  0.5360 -0.2831
  188SAPI   H3Y21670   4.403  -0.020   7.005 -0.8287 -1.2165 -0.1330
  188SAPI   C3421671   4.204   0.059   7.041  0.1519 -0.3476  0.0218
  188SAPI   H4X21672   4.154  -0.040   7.044 -1.2830  0.3077 -1.3006
  188SAPI   H4Y21673   4.148   0.128   6.975  0.8326  0.6112  0.4185
  188SAPI   C3521674   4.219   0.115   7.188 -0.3033 -0.0855  0.5635
  188SAPI   H5X21675   4.119   0.136   7.232 -0.6361  0.9760 -0.6313
  188SAPI   H5Y21676   4.269   0.214   7.175 -1.0543  0.5584  2.2829
  188SAPI   C3621677   4.306   0.041   7.280 -0.3682 -0.7370  0.2296
  188SAPI   H6X21678   4.308   0.104   7.371 -2.9887 -0.2062 -0.0176
  188SAPI   H6Y21679   4.412   0.045   7.245  0.7195 -2.0066  3.0822
  188SAPI   C3721680   4.254  -0.108   7.287 -0.8109  0.5602 -0.2876
  188SAPI   H7X21681   4.287  -0.156   7.192  1.4916 -0.4305  0.9187
  188SAPI   H7Y21682   4.144  -0.094   7.278 -1.0063  1.4024  2.5744
  188SAPI   C3821683   4.300  -0.183   7.413 -0.2522 -0.1297 -0.2953
  188SAPI   H8X21684   4.410  -0.194   7.401 -0.3325 -1.9830  0.3030
  188SAPI   H8Y21685   4.269  -0.289   7.412 -0.0013 -0.2052 -0.2960
  188SAPI   C3921686   4.283  -0.102   7.544 -0.0927 -0.4263 -0.1089
  188SAPI   H9X21687   4.189  -0.043   7.547 -0.4671 -0.8610 -1.8509
  188SAPI   H9Y21688   4.368  -0.031   7.534  1.0976 -1.7483  0.1756
  188SAPI  C31021689   4.325  -0.172   7.674  0.0161  0.5773  0.6759
  188SAPI  H10X21690   4.424  -0.219   7.656 -1.6172 -3.1870  0.7338
  188SAPI  H10Y21691   4.245  -0.245   7.699 -2.8345  3.2336 -0.0493
  188SAPI  C31121692   4.332  -0.075   7.797 -0.1209  0.9648  0.3404
  188SAPI  H11X21693   4.232  -0.030   7.816 -0.1944  0.9619 -0.0417
  188SAPI  H11Y21694   4.405   0.000   7.760 -0.4062  1.0240 -0.1077
  188SAPI  C31221695   4.377  -0.129   7.928  0.3313 -0.9168  0.3774
  188SAPI  H12X21696   4.363  -0.050   8.005  1.2755 -0.1367 -0.2304
  188SAPI  H12Y21697   4.486  -0.154   7.927  0.9198  1.1881  2.6971
  188SAPI  C31321698   4.303  -0.264   7.968  0.6792  0.0830 -0.2520
  188SAPI  H13X21699   4.336  -0.348   7.905  1.7879 -0.2774  0.7721
  188SAPI  H13Y21700   4.198  -0.244   7.937  1.1069  3.2732 -0.0166
  188SAPI  C31421701   4.314  -0.292   8.119  0.0237  0.9034  0.3834
  188SAPI  H14X21702   4.279  -0.205   8.179  0.0879  0.7736  0.6145
  188SAPI  H14Y21703   4.421  -0.299   8.146  0.0443  2.0350  0.6431
  188SAPI  C31521704   4.222  -0.409   8.166 -0.1281  0.5514 -0.4244
  188SAPI  H15X21705   4.122  -0.377   8.131 -0.8180  0.4226  1.3286
  188SAPI  H15Y21706   4.199  -0.417   8.274  0.8441 -0.1598 -0.2533
  188SAPI  C31621707   4.260  -0.550   8.116  0.4251  0.7381 -0.5041
  188SAPI  H16X21708   4.350  -0.589   8.169 -1.9982 -2.7746  1.4051
  188SAPI  H16Y21709   4.290  -0.541   8.009  2.6553 -1.3925 -0.1610
  188SAPI  C31721710   4.140  -0.648   8.114  0.0309 -0.0038  0.5648
  188SAPI  H17X21711   4.164  -0.738   8.054  0.0116 -0.2801  0.9721
  188SAPI  H17Y21712   4.057  -0.600   8.058  0.1765  0.0482  0.3935
  188SAPI  C31821713   4.081  -0.696   8.255  0.5026 -0.4633 -0.1550
  188SAPI  H18X21714   4.154  -0.760   8.309  0.7888 -1.7149 -1.9516
  188SAPI  H18Y21715   3.988  -0.756   8.258 -1.7073  2.6720 -0.0596
  188SAPI  H18Z21716   4.073  -0.614   8.330 -0.0075 -1.3831  0.8211
  189POPC     N21717   3.852   0.037  10.692 -0.6593 -0.3941 -0.3327
  189POPC   C1221718   3.927   0.166  10.724 -0.5873 -0.0958  0.0056
  189POPC  H12A21719   3.962   0.220  10.638 -2.0432 -0.3473 -0.7701
  189POPC  H12B21720   4.023   0.145  10.770 -0.4002  0.1897 -0.2499
  189POPC   C1321721   3.920  -0.038  10.579 -0.3234 -0.5472  0.3051
  189POPC  H13A21722   3.864  -0.125  10.549  0.1875  0.0090 -2.5150
  189POPC  H13B21723   3.929   0.027  10.494  1.3785 -0.3110  0.6329
  189POPC  H13C21724   4.022  -0.052  10.612 -1.0404 -0.6961  2.6283
  189POPC   C1421725   3.852  -0.043  10.818  0.1643 -0.0265 -0.1979
  189POPC  H14A21726   3.948  -0.049  10.867  0.5168 -0.9618 -0.9747
  189POPC  H14B21727   3.785   0.004  10.888  0.6704  0.8888 -0.3088
  189POPC  H14C21728   3.820  -0.146  10.805 -1.5503  0.1109  2.1598
  189POPC   C1521729   3.712   0.073  10.649 -0.1606  0.3208  1.2982
  189POPC  H15A21730   3.655  -0.018  10.635 -2.0635  1.3084  2.1743
  189POPC  H15B21731   3.726   0.126  10.556  0.8199 -1.3525  0.4312
  189POPC  H15C21732   3.664   0.134  10.724 -0.0296  3.0502 -0.6889
  189POPC   C1121733   3.854   0.274  10.807  0.1838 -0.0103 -0.3652
  189POPC  H11A21734   3.931   0.337  10.858  0.3052  0.2256 -0.8392
  189POPC  H11B21735   3.794   0.220  10.883 -0.5897  1.6938  0.2997
  189POPC     P21736   3.816   0.471  10.639  0.5085 -0.3004  0.0908
  189POPC   O1321737   3.961   0.474  10.641 -0.5172  0.2199  0.8941
  189POPC   O1421738   3.746   0.592  10.683 -0.1250 -1.0541  0.1921
  189POPC   O1221739   3.761   0.355  10.733  0.1422  0.0966 -0.0313
  189POPC   O1121740   3.765   0.439  10.497 -0.2488 -0.3699  0.7928
  189POPC    C121741   3.625   0.421  10.468 -0.1803  0.3347 -0.8172
  189POPC    HA21742   3.574   0.520  10.467 -3.6438 -1.2086  1.9105
  189POPC    HB21743   3.578   0.357  10.547  1.3366  0.9035  0.6026
  189POPC    C221744   3.619   0.362  10.329 -0.0961 -0.0178  0.3470
  189POPC    HS21745   3.682   0.270  10.322  1.1848  0.8787 -0.0910
  189POPC   O2121746   3.657   0.459  10.230  0.7340 -0.1750  0.0771
  189POPC   C2121747   3.772   0.435  10.169  0.0978  0.0588 -0.3750
  189POPC   O2221748   3.846   0.344  10.193  0.3015 -0.1719 -0.5402
  189POPC   C2221749   3.785   0.536  10.046  0.1382  0.0130 -0.0324
  189POPC   H2R21750   3.885   0.530   9.998  0.2352  0.5579  0.0939
  189POPC   H2S21751   3.786   0.637  10.093  1.0628  0.4287 -0.9022
  189POPC    C321752   3.473   0.311  10.295 -0.2610 -0.0103 -0.3415
  189POPC    HX21753   3.402   0.389  10.328 -0.6458 -0.4269 -0.1691
  189POPC    HY21754   3.445   0.228  10.364 -0.0673  0.0662 -0.1693
  189POPC   O3121755   3.460   0.285  10.158 -0.3471 -0.0742  0.1118
  189POPC   C3121756   3.334   0.269  10.124 -0.0613 -0.5405  0.2290
  189POPC   O3221757   3.240   0.264  10.199 -0.1647 -0.0155 -0.0386
  189POPC   C3221758   3.323   0.253   9.973 -0.5156  0.0862 -0.0718
  189POPC   H2X21759   3.427   0.233   9.938 -0.7044  1.1900 -1.3309
  189POPC   H2Y21760   3.307   0.360   9.951 -0.2478  0.5133  1.6714
  189POPC   C2321761   3.675   0.531   9.941  0.0141  0.3800  0.0428
  189POPC   H3R21762   3.577   0.566   9.979 -0.1630 -0.9486  0.8719
  189POPC   H3S21763   3.650   0.427   9.911 -2.0908  0.7971  0.2348
  189POPC   C2421764   3.714   0.597   9.811 -0.1968  0.2969  0.0818
  189POPC   H4R21765   3.815   0.574   9.771  0.3806  0.2343  1.5299
  189POPC   H4S21766   3.729   0.705   9.832  2.5932  0.2642 -1.2712
  189POPC   C2521767   3.608   0.566   9.695 -0.4298  0.1024  0.0971
  189POPC   H5R21768   3.572   0.461   9.695 -2.5947  0.7667  1.8374
  189POPC   H5S21769   3.668   0.590   9.605 -1.1406  1.0107 -0.1345
  189POPC   C2621770   3.483   0.658   9.695 -0.0427  0.6007  0.3730
  189POPC   H6R21771   3.419   0.634   9.783 -1.5971 -2.4664 -1.4265
  189POPC   H6S21772   3.435   0.634   9.598 -1.0227  2.1200  0.4540
  189POPC   C2721773   3.516   0.810   9.699  0.1611 -0.0821 -0.7898
  189POPC   H7R21774   3.601   0.831   9.631 -0.0657 -0.9432 -1.3695
  189POPC   H7S21775   3.551   0.837   9.801  2.0333 -0.0507 -1.4029
  189POPC   C2821776   3.393   0.896   9.668 -0.8283  0.5737 -0.3862
  189POPC   H8R21777   3.308   0.847   9.721  0.8581 -0.7579  1.2462
  189POPC   H8S21778   3.360   0.897   9.562 -3.4980 -0.2536  0.3543
  189POPC   C2921779   3.414   1.038   9.724 -0.6254  0.6342 -0.0429
  189POPC   H9121780   3.412   1.043   9.834  1.6068  0.2451  0.0450
  189POPC  C21021781   3.466   1.142   9.654  0.2592 -0.5755 -0.6191
  189POPC  H10121782   3.476   1.242   9.700  0.3614 -0.6103 -0.5652
  189POPC  C21121783   3.487   1.147   9.501  0.0842  0.3062 -0.2393
  189POPC  H11R21784   3.410   1.089   9.446  0.9306 -0.2482 -0.8717
  189POPC  H11S21785   3.586   1.102   9.475 -0.7697 -1.3393 -0.8019
  189POPC  C21221786   3.483   1.296   9.452  0.3375  0.1605 -0.0397
  189POPC  H12R21787   3.507   1.372   9.529  0.5654  0.9659 -0.8829
  189POPC  H12S21788   3.376   1.312   9.425  0.0288 -1.0514  0.4006
  189POPC  C21321789   3.568   1.314   9.329  0.1072  0.4928  0.4607
  189POPC  H13R21790   3.536   1.243   9.250 -0.7885 -0.8042  1.9304
  189POPC  H13S21791   3.677   1.296   9.340  0.1235  0.8334  0.8915
  189POPC  C21421792   3.540   1.460   9.280 -0.3007 -0.2556  0.0682
  189POPC  H14R21793   3.571   1.536   9.356  1.8122  0.2734 -1.2262
  189POPC  H14S21794   3.430   1.471   9.272 -0.3017  0.3503  0.7213
  189POPC  C21521795   3.605   1.499   9.143  0.7454 -0.2497 -0.2780
  189POPC  H15R21796   3.573   1.432   9.060 -1.8198 -0.4097  0.7443
  189POPC  H15S21797   3.711   1.482   9.171  1.1117 -0.1475 -1.5313
  189POPC  C21621798   3.598   1.650   9.099  0.0927 -0.3774 -0.4995
  189POPC  H16R21799   3.671   1.713   9.153  1.3467 -1.0467 -1.3618
  189POPC  H16S21800   3.494   1.689   9.104  0.4958  0.5592  1.2186
  189POPC  C21721801   3.627   1.672   8.951  0.2388  0.3767  0.4368
  189POPC  H17R21802   3.547   1.619   8.894 -0.8002  2.3630 -0.0403
  189POPC  H17S21803   3.728   1.636   8.923 -0.8053 -1.2707 -1.4661
  189POPC  C21821804   3.614   1.818   8.911  0.3518 -0.4662 -0.3539
  189POPC  H18R21805   3.514   1.859   8.938  0.1601 -1.0005 -0.2285
  189POPC  H18S21806   3.621   1.832   8.801 -0.6212  1.8164 -0.1774
  189POPC  H18T21807   3.691   1.882   8.958 -0.4431 -0.9884  1.8145
  189POPC   C3321808   3.209   0.154   9.925 -0.0280 -0.1155  0.3190
  189POPC   H3X21809   3.110   0.204   9.935 -0.0836 -0.3205  0.8005
  189POPC   H3Y21810   3.213   0.061   9.984  0.4290 -1.0969 -1.1902
  189POPC   C3421811   3.223   0.127   9.775  0.4537 -0.0711  0.4326
  189POPC   H4X21812   3.131   0.079   9.736  1.8332 -2.3637 -0.1924
  189POPC   H4Y21813   3.304   0.057   9.745  0.2760  0.6033 -1.7981
  189POPC   C3521814   3.252   0.255   9.692  0.5255  0.2821 -0.0061
  189POPC   H5X21815   3.352   0.292   9.722  0.6637 -0.7209  0.8533
  189POPC   H5Y21816   3.169   0.323   9.721 -0.6838 -0.6870 -1.0606
  189POPC   C3621817   3.252   0.240   9.541 -0.1527  0.0180  0.2725
  189POPC   H6X21818   3.336   0.172   9.517  0.9339  0.8040  1.6823
  189POPC   H6Y21819   3.278   0.339   9.497 -0.1186 -0.9811 -2.1126
  189POPC   C3721820   3.126   0.182   9.486  0.5531  0.2327 -0.1592
  189POPC   H7X21821   3.038   0.207   9.549  0.0637  0.7769 -1.0343
  189POPC   H7Y21822   3.138   0.072   9.483  0.5062  0.2448 -1.0736
  189POPC   C3821823   3.104   0.216   9.340  0.3787 -0.3489 -0.5362
  189POPC   H8X21824   3.198   0.204   9.282  1.0132  0.2627  0.3398
  189POPC   H8Y21825   3.067   0.321   9.344 -0.1405 -0.5436 -0.2364
  189POPC   C3921826   3.005   0.127   9.268  0.4230 -0.6964 -0.0932
  189POPC   H9X21827   2.925   0.115   9.344 -3.5491  2.3984 -3.2729
  189POPC   H9Y21828   3.049   0.026   9.252  0.8815 -0.6647  0.9195
  189POPC  C31021829   2.936   0.183   9.146  0.1136  0.0684  0.7870
  189POPC  H10X21830   2.893   0.285   9.154 -0.3719 -0.0513 -0.1991
  189POPC  H10Y21831   2.858   0.108   9.122  2.6815 -3.0949  1.4550
  189POPC  C31121832   3.023   0.170   9.018 -0.6307 -0.6856 -0.1096
  189POPC  H11X21833   3.060   0.066   9.029  1.4879  0.1074  0.8185
  189POPC  H11Y21834   3.110   0.239   9.026 -0.1423 -1.4407  1.4909
  189POPC  C31221835   2.945   0.195   8.887 -0.3091  0.2329 -0.1441
  189POPC  H12X21836   2.903   0.298   8.895 -0.6063  0.3306 -2.3776
  189POPC  H12Y21837   2.866   0.118   8.877 -1.0269  0.8711  0.4994
  189POPC  C31321838   3.037   0.186   8.763  0.5445  0.6707 -0.0331
  189POPC  H13X21839   3.063   0.079   8.752  1.0241  0.8461 -0.6568
  189POPC  H13Y21840   3.128   0.250   8.772  0.2647  1.0489  0.0994
  189POPC  C31421841   2.970   0.231   8.630 -0.1039 -0.2744  0.2923
  189POPC  H14X21842   2.867   0.189   8.620  0.1294 -0.3653 -2.1420
  189POPC  H14Y21843   3.020   0.199   8.537  0.2340 -0.2862  0.4779
  189POPC  C31521844   2.940   0.382   8.617 -0.5719  0.6299 -0.1543
  189POPC  H15X21845   3.032   0.443   8.635 -1.8548  2.6900 -0.2416
  189POPC  H15Y21846   2.871   0.404   8.701  1.2733 -0.5443  1.7939
  189POPC  C31621847   2.879   0.410   8.476  0.0237  0.0679  0.3765
  189POPC  H16X21848   2.957   0.391   8.399 -0.3497  0.6226 -0.1455
  189POPC  H16Y21849   2.856   0.518   8.466 -1.7117 -0.0758  2.1071
  189POPC  H16Z21850   2.802   0.337   8.445  2.3114 -1.8420 -1.1490
  190POPC     N21851   5.115   4.156  10.431 -0.3670  0.1512 -0.5368
  190POPC   C1221852   5.235   4.072  10.390 -0.3010  0.2500  0.0422
  190POPC  H12A21853   5.292   4.122  10.313  0.4126  1.5408  1.3551
  190POPC  H12B21854   5.193   3.982  10.350 -2.1619  1.3781 -0.6798
  190POPC   C1321855   4.995   4.054  10.472 -0.1864 -1.0108  0.4423
  190POPC  H13A21856   4.901   4.100  10.499 -1.7111 -2.3684 -2.1351
  190POPC  H13B21857   4.984   3.991  10.385  1.3624  0.1933 -0.7002
  190POPC  H13C21858   5.032   3.991  10.551  0.6430 -0.8957  0.1622
  190POPC   C1421859   5.139   4.252  10.535  0.5196  0.1311  0.6154
  190POPC  H14A21860   5.212   4.325  10.504  3.2206 -2.8628 -0.6965
  190POPC  H14B21861   5.043   4.297  10.557 -1.5555 -2.7262 -1.7578
  190POPC  H14C21862   5.191   4.211  10.620  0.5065  2.0949  1.6161
  190POPC   C1521863   5.060   4.235  10.318 -0.3783 -0.2622 -0.3537
  190POPC  H15A21864   5.030   4.166  10.241 -2.0265  1.2340 -1.1099
  190POPC  H15B21865   5.130   4.307  10.277 -2.0368  1.1890 -0.7470
  190POPC  H15C21866   4.975   4.297  10.343 -0.1716  0.2068 -0.8012
  190POPC   C1121867   5.336   4.026  10.505 -0.1734 -0.1863  0.2662
  190POPC  H11A21868   5.369   4.111  10.568  1.5164 -0.6038 -0.0106
  190POPC  H11B21869   5.425   3.975  10.460 -1.6980  0.7204 -4.3381
  190POPC     P21870   5.250   3.783  10.559  0.0500 -0.0455  0.0035
  190POPC   O1321871   5.104   3.760  10.549  0.1552 -0.3757  0.2574
  190POPC   O1421872   5.321   3.699  10.657  0.1867 -0.1032  0.3217
  190POPC   O1221873   5.269   3.940  10.601  0.1746 -0.2493  0.1997
  190POPC   O1121874   5.307   3.765  10.416 -0.1358  0.2737 -0.0017
  190POPC    C121875   5.233   3.683  10.320  0.3053 -0.0449 -0.0810
  190POPC    HA21876   5.298   3.673  10.230  1.5525 -0.2050  0.8045
  190POPC    HB21877   5.140   3.737  10.294  0.1273 -0.7971 -1.0720
  190POPC    C221878   5.219   3.528  10.358 -0.5135 -0.3254  0.3961
  190POPC    HS21879   5.219   3.517  10.469 -2.4213 -0.9579  0.3697
  190POPC   O2121880   5.339   3.471  10.308 -0.0732  0.2320 -0.8109
  190POPC   C2121881   5.375   3.348  10.340 -0.5225  0.2925  1.1381
  190POPC   O2221882   5.313   3.259  10.387  0.3288  0.2908  0.1294
  190POPC   C2221883   5.510   3.321  10.277 -0.0755  0.4301  0.2086
  190POPC   H2R21884   5.560   3.259  10.355 -1.0013  2.9482  3.0275
  190POPC   H2S21885   5.568   3.415  10.263 -3.8717  2.8205 -0.8400
  190POPC    C321886   5.095   3.461  10.292  0.3788 -0.1089 -0.1783
  190POPC    HX21887   5.009   3.517  10.337 -1.0053 -2.3422  0.1227
  190POPC    HY21888   5.078   3.354  10.315 -0.5922 -0.2291 -1.3314
  190POPC   O3121889   5.091   3.476  10.148  0.5627 -0.1121  0.6006
  190POPC   C3121890   5.002   3.418  10.073  1.0796  0.0366  0.6521
  190POPC   O3221891   4.914   3.344  10.124 -0.2918 -0.3675 -0.1373
  190POPC   C3221892   5.018   3.460   9.928 -0.2575 -0.3804 -0.0449
  190POPC   H2X21893   5.102   3.395   9.893 -1.2347 -1.8886  0.3201
  190POPC   H2Y21894   5.053   3.565   9.921 -1.7096  0.2348  1.4470
  190POPC   C2321895   5.499   3.240  10.140 -0.2033 -1.1819  0.3847
  190POPC   H3R21896   5.419   3.163  10.148 -1.1838 -0.4606 -1.8004
  190POPC   H3S21897   5.598   3.194  10.122  0.8004  0.4801  1.3505
  190POPC   C2421898   5.454   3.334  10.024  0.8502 -0.5939 -0.4171
  190POPC   H4R21899   5.526   3.418  10.013 -0.0652  0.3044  0.2862
  190POPC   H4S21900   5.358   3.378  10.060  1.4173  0.2107  0.1503
  190POPC   C2521901   5.424   3.276   9.886 -0.0015  1.4392  0.7186
  190POPC   H5R21902   5.334   3.210   9.887 -0.0794  1.1112 -4.1376
  190POPC   H5S21903   5.503   3.203   9.859 -3.4340 -1.3617 -3.2652
  190POPC   C2621904   5.391   3.374   9.773 -0.0615 -0.6196  0.8199
  190POPC   H6R21905   5.488   3.418   9.743 -0.1473 -0.7877  0.2874
  190POPC   H6S21906   5.329   3.455   9.817 -1.8077  0.5043 -3.2123
  190POPC   C2721907   5.310   3.298   9.670 -0.1266  0.2693 -0.3505
  190POPC   H7R21908   5.206   3.291   9.706 -0.4340 -0.5491 -1.3568
  190POPC   H7S21909   5.349   3.195   9.675 -0.1207  0.3109  0.7328
  190POPC   C2821910   5.303   3.371   9.539  0.5290 -0.3831 -0.4184
  190POPC   H8R21911   5.291   3.480   9.555 -2.7856 -0.8089  0.8923
  190POPC   H8S21912   5.219   3.336   9.475  0.8358 -0.0435 -1.0118
  190POPC   C2921913   5.425   3.334   9.454  0.8384  1.2299 -0.4407
  190POPC   H9121914   5.515   3.389   9.486  1.9853 -0.6533 -0.3037
  190POPC  C21021915   5.445   3.256   9.341 -0.1894 -0.1218  0.3535
  190POPC  H10121916   5.546   3.251   9.296 -0.7876  0.1972 -1.0876
  190POPC  C21121917   5.330   3.179   9.277  0.0206 -0.5705  0.5069
  190POPC  H11R21918   5.268   3.128   9.355 -1.0027 -1.2225 -0.6919
  190POPC  H11S21919   5.386   3.094   9.232  3.1016  2.3265 -1.6121
  190POPC  C21221920   5.239   3.249   9.177  0.2949 -0.5763 -0.9208
  190POPC  H12R21921   5.175   3.313   9.242 -0.3259  0.0185 -2.0796
  190POPC  H12S21922   5.181   3.171   9.122 -1.6044  0.6393 -0.7541
  190POPC  C21321923   5.287   3.371   9.090 -0.9000 -0.8379 -0.1688
  190POPC  H13R21924   5.364   3.330   9.022 -0.2461 -2.1675  1.3244
  190POPC  H13S21925   5.322   3.452   9.157  0.8475  0.4021 -2.4239
  190POPC  C21421926   5.181   3.433   9.001  0.7317 -0.0086  0.4629
  190POPC  H14R21927   5.222   3.527   8.958  0.7241  0.4668  1.4543
  190POPC  H14S21928   5.096   3.457   9.069  1.4065  0.1681  1.2606
  190POPC  C21521929   5.139   3.342   8.891 -0.4400 -0.1963  0.3390
  190POPC  H15R21930   5.076   3.256   8.923 -1.2974  0.2991  0.0074
  190POPC  H15S21931   5.232   3.302   8.845  0.3322  1.8650  0.0185
  190POPC  C21621932   5.071   3.418   8.774  0.3875 -0.9923 -0.0955
  190POPC  H16R21933   5.148   3.481   8.725  0.3889 -1.9312 -1.3354
  190POPC  H16S21934   4.977   3.472   8.801  0.7857 -0.1984 -0.2680
  190POPC  C21721935   5.037   3.326   8.653  0.3799  0.4628 -0.1357
  190POPC  H17R21936   4.969   3.243   8.680 -1.7583  0.6153 -4.2749
  190POPC  H17S21937   5.133   3.290   8.609 -1.3882 -1.7334 -2.5017
  190POPC  C21821938   4.974   3.401   8.539 -0.2233  0.5066  0.3158
  190POPC  H18R21939   5.012   3.506   8.546 -1.4188  0.9011  1.2238
  190POPC  H18S21940   4.864   3.408   8.550 -0.0875  1.2992  1.2986
  190POPC  H18T21941   5.003   3.355   8.442 -1.4699  2.4401 -1.0646
  190POPC   C3321942   4.899   3.429   9.838  0.2134 -1.1873  0.9363
  190POPC   H3X21943   4.808   3.491   9.851  1.2190  0.6754 -0.4554
  190POPC   H3Y21944   4.877   3.322   9.860  0.1800 -1.0795  1.4285
  190POPC   C3421945   4.924   3.430   9.687  0.1492 -0.4692  0.3200
  190POPC   H4X21946   4.986   3.340   9.667 -0.2184 -0.9511  1.2993
  190POPC   H4Y21947   4.979   3.526   9.677 -0.9770  0.0800 -0.9899
  190POPC   C3521948   4.792   3.436   9.605  0.0211 -0.3212  0.8008
  190POPC   H5X21949   4.727   3.520   9.637 -1.5400  0.4395 -3.5861
  190POPC   H5Y21950   4.737   3.341   9.623 -0.8670 -0.2754 -1.3267
  190POPC   C3621951   4.821   3.470   9.461  0.6663 -0.4230  0.2051
  190POPC   H6X21952   4.891   3.407   9.403  0.8167  0.4364 -0.5769
  190POPC   H6Y21953   4.874   3.567   9.474  0.3240 -0.5016  2.7505
  190POPC   C3721954   4.691   3.507   9.391  0.1157 -0.4816 -0.3319
  190POPC   H7X21955   4.655   3.597   9.445  0.6989 -0.5064  0.1067
  190POPC   H7Y21956   4.609   3.433   9.396 -0.8893  0.5745 -0.7056
  190POPC   C3821957   4.718   3.541   9.240  0.6407  0.1546 -0.8861
  190POPC   H8X21958   4.806   3.610   9.244  1.8985 -1.4163 -0.2855
  190POPC   H8Y21959   4.627   3.598   9.211 -0.7454 -0.3173  2.0932
  190POPC   C3921960   4.741   3.425   9.146  0.1126  0.1230 -0.1305
  190POPC   H9X21961   4.667   3.343   9.149  0.7897 -0.5039 -0.2720
  190POPC   H9Y21962   4.833   3.373   9.180 -1.2135 -0.6699  2.5926
  190POPC  C31021963   4.764   3.474   9.005  0.1012 -0.1337  0.9144
  190POPC  H10X21964   4.800   3.394   8.935  2.4702  1.1616  0.5325
  190POPC  H10Y21965   4.849   3.544   8.993 -1.2965  1.2091 -2.2841
  190POPC  C31121966   4.639   3.544   8.950 -0.5668 -0.0038  0.1688
  190POPC  H11X21967   4.641   3.645   8.996  1.8805 -0.9907  2.4861
  190POPC  H11Y21968   4.549   3.494   8.992  0.1376 -0.6740  0.9134
  190POPC  C31221969   4.645   3.569   8.793 -0.7196  0.0542 -0.1534
  190POPC  H12X21970   4.710   3.491   8.749 -0.3423  0.5143 -0.4317
  190POPC  H12Y21971   4.692   3.667   8.768 -0.7417  0.1460  0.1595
  190POPC  C31321972   4.509   3.576   8.721  0.7709 -0.9282 -0.3097
  190POPC  H13X21973   4.451   3.666   8.753  1.4602 -0.3211 -0.7406
  190POPC  H13Y21974   4.443   3.492   8.752 -3.2388  1.7253 -0.8295
  190POPC  C31421975   4.524   3.572   8.570 -1.0587  0.3904 -0.3778
  190POPC  H14X21976   4.547   3.469   8.534  2.0345 -0.1606  2.6812
  190POPC  H14Y21977   4.604   3.639   8.533 -1.8152  3.8890  3.5813
  190POPC  C31521978   4.396   3.615   8.499  0.7602 -0.3519  0.4756
  190POPC  H15X21979   4.376   3.718   8.535  1.1712  0.3744 -1.2669
  190POPC  H15Y21980   4.314   3.551   8.537  0.5845 -0.6803 -0.4379
  190POPC  C31621981   4.406   3.604   8.342 -0.6391 -0.2552  0.0200
  190POPC  H16X21982   4.380   3.500   8.312 -0.4703  0.1119 -1.4797
  190POPC  H16Y21983   4.506   3.631   8.301 -1.0868 -0.2986 -1.1403
  190POPC  H16Z21984   4.334   3.675   8.297  1.2725  1.8582  0.0953
  191POPC     N21985   5.974   5.947   6.092  0.2617 -0.5480  0.1672
  191POPC   C1221986   6.079   5.888   5.994 -0.2098 -0.0259 -0.6275
  191POPC  H12A21987   6.030   5.802   5.951  2.0991 -0.6308 -2.2613
  191POPC  H12B21988   6.161   5.843   6.049 -0.2256 -1.2411 -1.5664
  191POPC   C1321989   6.024   6.067   6.163  1.0556 -0.3983  0.1275
  191POPC  H13A21990   6.052   6.136   6.085  0.0724 -0.2248 -0.0891
  191POPC  H13B21991   5.948   6.111   6.226  1.1432  0.2514 -0.2150
  191POPC  H13C21992   6.116   6.039   6.212  0.8028 -2.0972 -0.3120
  191POPC   C1421993   5.847   5.986   6.021 -0.9316  0.5245  0.4044
  191POPC  H14A21994   5.787   6.050   6.084 -0.5552  1.0778  0.2192
  191POPC  H14B21995   5.872   6.048   5.935 -0.0308  1.1982  1.1314
  191POPC  H14C21996   5.792   5.897   5.995 -0.2102  0.4864 -1.0988
  191POPC   C1521997   5.919   5.842   6.192  0.4297 -1.1338  0.0850
  191POPC  H15A21998   5.993   5.786   6.247 -1.9339 -3.6679  0.9690
  191POPC  H15B21999   5.855   5.771   6.141  1.8881 -0.2825 -3.1715
  191POPC  H15C22000   5.853   5.890   6.263 -0.9509 -2.6003 -0.1427
  191POPC   C1122001   6.152   5.977   5.893 -0.1369 -0.4119  0.0060
  191POPC  H11A22002   6.074   6.026   5.832  1.2150  2.1999  0.2410
  191POPC  H11B22003   6.218   5.909   5.835  1.5115  0.0832  1.2293
  191POPC     P22004   6.364   6.040   6.008 -0.4371 -0.3919 -0.0727
  191POPC   O1322005   6.437   6.161   6.034  0.3594 -0.1543 -0.4431
  191POPC   O1422006   6.428   5.942   5.919  0.3023  0.0915 -0.7869
  191POPC   O1222007   6.227   6.078   5.949 -0.4657  0.2438 -0.4900
  191POPC   O1122008   6.336   5.969   6.148  0.3849  0.3126 -0.7643
  191POPC    C122009   6.422   5.994   6.258  0.3348  0.5381 -0.1319
  191POPC    HA22010   6.458   6.099   6.263  0.4521  0.4406  1.8670
  191POPC    HB22011   6.510   5.927   6.254 -1.9478 -2.6725 -0.1073
  191POPC    C222012   6.349   5.968   6.391 -0.1937 -0.1540 -0.4544
  191POPC    HS22013   6.317   5.862   6.383 -0.5361 -0.1465  0.7241
  191POPC   O2122014   6.238   6.058   6.398  0.0069 -0.0470 -0.5159
  191POPC   C2122015   6.141   6.029   6.483 -0.5121  0.0632 -0.5055
  191POPC   O2222016   6.119   5.915   6.522  0.1615 -0.3499  0.1149
  191POPC   C2222017   6.074   6.162   6.519  0.7994  0.1467  0.1797
  191POPC   H2R22018   6.005   6.188   6.436  2.3069  1.5929 -0.7012
  191POPC   H2S22019   6.155   6.238   6.531  1.3856 -0.6812  1.7464
  191POPC    C322020   6.447   5.989   6.508  0.2687 -0.7538 -0.2209
  191POPC    HX22021   6.485   6.093   6.500 -2.8847  0.4220 -1.7511
  191POPC    HY22022   6.528   5.915   6.489 -1.1401 -2.4381  0.1108
  191POPC   O3122023   6.395   5.977   6.639  0.6870  0.2114 -0.1391
  191POPC   C3122024   6.417   5.858   6.689  0.1106  0.0296  0.1286
  191POPC   O3222025   6.478   5.768   6.638 -0.6050  0.0420 -0.3002
  191POPC   C3222026   6.360   5.855   6.834 -0.6540  0.0568 -0.0941
  191POPC   H2X22027   6.323   5.750   6.836  1.4964 -0.7314  0.3378
  191POPC   H2Y22028   6.287   5.939   6.842 -1.4940 -0.5973 -0.6655
  191POPC   C2322029   5.988   6.163   6.647  0.2404 -0.5200  0.7400
  191POPC   H3R22030   5.885   6.129   6.619 -0.0857 -0.2085  1.5317
  191POPC   H3S22031   5.964   6.268   6.674 -1.7831 -0.5270 -0.7937
  191POPC   C2422032   6.042   6.076   6.771 -0.1204 -0.0752 -0.0529
  191POPC   H4R22033   6.145   6.116   6.781  0.1540 -1.1196  1.6151
  191POPC   H4S22034   6.047   5.966   6.752  0.4445 -0.0781  0.0987
  191POPC   C2522035   5.962   6.103   6.896  0.1878  0.8524 -0.1648
  191POPC   H5R22036   5.855   6.076   6.886 -0.3655  1.5042  2.9149
  191POPC   H5S22037   5.961   6.212   6.920 -0.5171  0.4458  1.9296
  191POPC   C2622038   6.012   6.027   7.026  0.2761  0.8605  0.2077
  191POPC   H6R22039   6.110   6.069   7.055  0.1678  1.5134 -0.3439
  191POPC   H6S22040   6.038   5.924   6.994 -0.2737  0.7408  0.1360
  191POPC   C2722041   5.921   6.039   7.150 -0.3044 -0.4400 -0.5484
  191POPC   H7R22042   5.830   5.978   7.131 -0.0246 -0.7656 -0.8665
  191POPC   H7S22043   5.894   6.147   7.153 -0.9256 -0.6106  1.3038
  191POPC   C2822044   5.983   5.999   7.302  0.0639  0.5586  0.0717
  191POPC   H8R22045   6.013   5.893   7.285  0.0976  0.4726  0.6507
  191POPC   H8S22046   5.888   5.991   7.359 -1.4451  0.9539 -2.2560
  191POPC   C2922047   6.097   6.081   7.348 -0.3939  0.1001 -0.6660
  191POPC   H9122048   6.181   6.073   7.277  0.4983  2.5971  0.0246
  191POPC  C21022049   6.109   6.157   7.456  0.2142  0.1600 -0.6144
  191POPC  H10122050   6.205   6.212   7.462  0.3669  0.0761 -1.9646
  191POPC  C21122051   5.992   6.164   7.555 -0.6741  0.2275  0.1627
  191POPC  H11R22052   6.027   6.138   7.657 -1.0138  0.3051  0.3016
  191POPC  H11S22053   5.912   6.090   7.533 -0.7039  0.6142 -1.0673
  191POPC  C21222054   5.920   6.302   7.565 -1.1550  0.1750 -0.4052
  191POPC  H12R22055   5.862   6.319   7.471 -2.6884 -0.3322  0.4143
  191POPC  H12S22056   5.994   6.385   7.565  0.4490 -1.1746 -1.6688
  191POPC  C21322057   5.826   6.323   7.688  0.2932  0.4084 -0.5526
  191POPC  H13R22058   5.811   6.428   7.723  0.6501  0.0361  0.7721
  191POPC  H13S22059   5.881   6.271   7.769 -0.1248  0.7713 -0.0276
  191POPC  C21422060   5.683   6.262   7.673  0.0562 -0.4443 -0.0879
  191POPC  H14R22061   5.675   6.161   7.628 -2.5596 -0.7231  0.8299
  191POPC  H14S22062   5.635   6.336   7.606  1.5530 -0.0543 -0.7726
  191POPC  C21522063   5.598   6.251   7.797 -0.6062 -0.1359  0.5800
  191POPC  H15R22064   5.499   6.219   7.757 -0.3389 -0.8856  0.4870
  191POPC  H15S22065   5.591   6.352   7.842  3.9129  1.4378 -1.5986
  191POPC  C21622066   5.650   6.156   7.915  0.4217  0.3576  0.3091
  191POPC  H16R22067   5.738   6.203   7.964 -0.9058  2.0187  1.2184
  191POPC  H16S22068   5.680   6.057   7.875 -1.7853  0.1943 -1.1217
  191POPC  C21722069   5.547   6.125   8.028 -0.1465 -0.2767  0.1808
  191POPC  H17R22070   5.591   6.065   8.111 -0.5005 -2.1745 -0.9543
  191POPC  H17S22071   5.465   6.065   7.983 -0.0408  0.3862 -0.9404
  191POPC  C21822072   5.479   6.246   8.081 -0.0835  0.0010 -0.3018
  191POPC  H18R22073   5.423   6.300   8.001 -0.3138  0.9397  0.4707
  191POPC  H18S22074   5.557   6.307   8.132 -1.7259  0.8679  1.2536
  191POPC  H18T22075   5.409   6.224   8.163  0.1894 -0.3333 -0.1580
  191POPC   C3322076   6.469   5.883   6.942  0.5446 -0.8019  0.0054
  191POPC   H3X22077   6.531   5.975   6.934  0.6253 -0.9649 -1.5384
  191POPC   H3Y22078   6.540   5.800   6.959 -1.9596 -3.0584  0.0027
  191POPC   C3422079   6.378   5.906   7.072 -0.5545 -0.5952  0.0938
  191POPC   H4X22080   6.316   5.815   7.083 -1.4233 -0.3550 -2.2558
  191POPC   H4Y22081   6.307   5.989   7.051 -0.5438  0.0168  2.2433
  191POPC   C3522082   6.453   5.916   7.206  0.2628  0.1601  0.7835
  191POPC   H5X22083   6.519   5.827   7.213 -0.1805 -0.1994  0.4525
  191POPC   H5Y22084   6.385   5.900   7.292  0.5369  0.4638  1.0611
  191POPC   C3622085   6.534   6.042   7.230  0.0663 -1.1576 -0.7032
  191POPC   H6X22086   6.620   6.045   7.159  1.8094  0.0219  1.3522
  191POPC   H6Y22087   6.591   6.038   7.325 -0.0749  2.3529 -0.3508
  191POPC   C3722088   6.476   6.187   7.227  0.6997  0.1782  0.3150
  191POPC   H7X22089   6.397   6.197   7.304 -0.1240 -1.0636 -0.3346
  191POPC   H7Y22090   6.416   6.198   7.134 -0.3260  1.4989  1.0940
  191POPC   C3822091   6.585   6.296   7.241  0.3095 -0.0075  0.2602
  191POPC   H8X22092   6.534   6.387   7.201  1.2255  0.3925 -0.0239
  191POPC   H8Y22093   6.668   6.262   7.175 -0.7932 -5.1141  1.1152
  191POPC   C3922094   6.628   6.338   7.380 -0.1623  0.0069  1.0610
  191POPC   H9X22095   6.630   6.242   7.436 -0.2282 -0.8799 -0.3936
  191POPC   H9Y22096   6.551   6.398   7.433  1.1605  1.2062  1.7021
  191POPC  C31022097   6.772   6.402   7.378  0.2373 -0.0844 -0.4655
  191POPC  H10X22098   6.764   6.496   7.320 -0.6539  1.5259  2.1098
  191POPC  H10Y22099   6.836   6.338   7.314 -0.5050 -0.3664 -0.9435
  191POPC  C31122100   6.833   6.421   7.516 -0.9307 -0.5758  0.1469
  191POPC  H11X22101   6.824   6.337   7.588  1.2401 -0.6939  0.3495
  191POPC  H11Y22102   6.772   6.499   7.565  0.6745  0.2596  0.8826
  191POPC  C31222103   6.973   6.487   7.501  0.5008 -0.4503 -0.5901
  191POPC  H12X22104   6.961   6.551   7.411 -2.6052  0.1161  0.1026
  191POPC  H12Y22105   7.044   6.404   7.480  2.1496  0.4099  1.2329
  191POPC  C31322106   7.014   6.569   7.621  0.2102 -0.4221  0.0411
  191POPC  H13X22107   6.926   6.632   7.646 -2.0886 -2.8851 -1.3231
  191POPC  H13Y22108   7.099   6.630   7.584  0.0050 -0.5523 -0.6641
  191POPC  C31422109   7.063   6.490   7.743 -0.2087  0.1022  0.0567
  191POPC  H14X22110   6.973   6.439   7.783 -0.6582  1.4400  0.8418
  191POPC  H14Y22111   7.092   6.559   7.826  0.5372 -2.0181  1.6444
  191POPC  C31522112   7.173   6.386   7.719  0.3323 -0.0847  0.3730
  191POPC  H15X22113   7.261   6.431   7.668 -0.0302  1.6207  1.1584
  191POPC  H15Y22114   7.141   6.310   7.646  0.1447 -0.2021  0.5758
  191POPC  C31622115   7.221   6.318   7.849 -0.3725  0.1423 -0.4508
  191POPC  H16X22116   7.258   6.389   7.927  0.0386  0.1860 -0.6785
  191POPC  H16Y22117   7.300   6.242   7.832 -1.3943 -1.0577 -0.0058
  191POPC  H16Z22118   7.145   6.259   7.904  0.0089 -0.5044 -0.6006
  192POPC     N22119   4.700   2.785   6.052  0.0367 -0.4022  0.2518
  192POPC   C1222120   4.740   2.636   6.061 -0.2943 -0.1222 -0.2225
  192POPC  H12A22121   4.745   2.590   5.964  1.1378 -0.2630 -0.1021
  192POPC  H12B22122   4.677   2.583   6.131  1.5279 -0.8054  0.9863
  192POPC   C1322123   4.810   2.873   5.994 -0.5349 -0.2125 -0.2515
  192POPC  H13A22124   4.771   2.974   5.993 -1.0588 -0.4096 -0.1085
  192POPC  H13B22125   4.891   2.864   6.065 -2.0852 -0.2882  1.6010
  192POPC  H13C22126   4.850   2.837   5.901 -0.5513 -1.8740  0.3470
  192POPC   C1422127   4.583   2.811   5.958 -0.0075 -0.6107 -0.0759
  192POPC  H14A22128   4.576   2.917   5.936 -1.1535 -1.0015 -1.7763
  192POPC  H14B22129   4.606   2.761   5.865 -1.0920 -0.3864 -0.4822
  192POPC  H14C22130   4.490   2.780   6.003 -0.3266  1.1678  0.6053
  192POPC   C1522131   4.670   2.836   6.186 -0.7098  0.6920  0.4597
  192POPC  H15A22132   4.760   2.814   6.241 -0.6279 -0.4995 -0.1182
  192POPC  H15B22133   4.593   2.774   6.231  0.7760 -1.5404  0.0770
  192POPC  H15C22134   4.656   2.943   6.187  0.1818  0.8137  0.9106
  192POPC   C1122135   4.884   2.609   6.118  0.5024 -0.1710 -0.7689
  192POPC  H11A22136   4.965   2.666   6.067 -0.4642  2.4809  0.4962
  192POPC  H11B22137   4.914   2.503   6.098  0.7197 -0.3895  0.6386
  192POPC     P22138   4.831   2.546   6.359 -0.4781  0.0695  0.5881
  192POPC   O1322139   4.937   2.472   6.424 -0.2670 -0.2709  0.3588
  192POPC   O1422140   4.721   2.469   6.298  0.3365 -0.5594  0.0284
  192POPC   O1222141   4.891   2.648   6.256  0.0788  0.6302  0.0314
  192POPC   O1122142   4.771   2.650   6.458  0.0813 -0.3197 -0.2310
  192POPC    C122143   4.851   2.688   6.568  0.7991  0.0241 -0.0269
  192POPC    HA22144   4.818   2.793   6.585  2.7617  0.3910  2.0954
  192POPC    HB22145   4.960   2.687   6.546  0.7695  0.4879 -0.2087
  192POPC    C222146   4.807   2.627   6.704 -0.4292 -0.3338  0.3664
  192POPC    HS22147   4.847   2.525   6.721 -1.8450 -1.3191 -1.7753
  192POPC   O2122148   4.662   2.633   6.711  0.1959  0.7283  0.1196
  192POPC   C2122149   4.591   2.528   6.669 -0.0039 -0.2066  0.1629
  192POPC   O2222150   4.634   2.422   6.639 -0.7294 -0.3298 -0.7842
  192POPC   C2222151   4.437   2.565   6.665 -0.1430 -0.4924  0.1673
  192POPC   H2R22152   4.393   2.482   6.605  0.6975 -0.7419 -0.1150
  192POPC   H2S22153   4.419   2.661   6.611 -2.6904 -0.9138  0.1505
  192POPC    C322154   4.863   2.724   6.812 -0.4006  0.6569  0.1735
  192POPC    HX22155   4.837   2.827   6.780  0.1143  0.8501  0.3570
  192POPC    HY22156   4.974   2.732   6.813 -0.3518  0.6451 -1.6973
  192POPC   O3122157   4.803   2.705   6.942  0.5042 -0.3441 -0.1452
  192POPC   C3122158   4.854   2.599   7.017 -1.0227  0.1109  0.9091
  192POPC   O3222159   4.936   2.519   6.966 -0.2577  0.6844  0.5035
  192POPC   C3222160   4.822   2.622   7.161 -0.2869 -0.7159 -0.0215
  192POPC   H2X22161   4.718   2.584   7.170 -1.9401  2.8764 -2.0331
  192POPC   H2Y22162   4.822   2.729   7.188  1.3584 -1.0031  1.3103
  192POPC   C2322163   4.376   2.561   6.815  0.0769  0.3886  0.3508
  192POPC   H3R22164   4.398   2.477   6.884  1.1180 -1.3448 -1.9497
  192POPC   H3S22165   4.268   2.550   6.792  0.3283 -2.9504  0.3059
  192POPC   C2422166   4.398   2.694   6.887 -0.3119 -0.3689  0.3411
  192POPC   H4R22167   4.354   2.771   6.820  2.6575  0.1945 -1.1473
  192POPC   H4S22168   4.507   2.715   6.896 -0.5522  1.3288 -0.3016
  192POPC   C2522169   4.338   2.711   7.024  0.0115  0.3488 -0.6845
  192POPC   H5R22170   4.229   2.727   7.013 -0.0163 -0.5320 -1.8531
  192POPC   H5S22171   4.379   2.812   7.048 -0.2697  0.8469 -2.1942
  192POPC   C2622172   4.392   2.608   7.133  0.5540 -0.2146 -0.3157
  192POPC   H6R22173   4.503   2.608   7.135  0.6481 -0.6154 -2.4159
  192POPC   H6S22174   4.348   2.512   7.099  0.1681  0.1327 -0.8280
  192POPC   C2722175   4.331   2.650   7.264  0.0686  0.1572 -0.2593
  192POPC   H7R22176   4.224   2.651   7.235  0.5365  1.0123 -2.0731
  192POPC   H7S22177   4.361   2.753   7.296 -0.8407  1.0652 -2.1431
  192POPC   C2822178   4.361   2.549   7.381 -0.1577 -0.6456 -0.3116
  192POPC   H8R22179   4.308   2.460   7.340 -3.5540  1.9091 -2.0040
  192POPC   H8S22180   4.296   2.575   7.468 -1.3402  0.8091 -1.5596
  192POPC   C2922181   4.502   2.529   7.415 -0.3223 -0.9415  0.3353
  192POPC   H9122182   4.567   2.511   7.328  0.3242  1.9609  0.1108
  192POPC  C21022183   4.553   2.520   7.539  0.3093 -0.1257  0.6281
  192POPC  H10122184   4.656   2.489   7.561  0.3461 -0.9811 -0.6377
  192POPC  C21122185   4.479   2.533   7.669 -0.4005  0.4748  0.0657
  192POPC  H11R22186   4.384   2.477   7.667 -0.8490  1.1552  1.3927
  192POPC  H11S22187   4.440   2.636   7.678 -0.3759  0.6403 -1.4822
  192POPC  C21222188   4.548   2.480   7.788 -0.8697 -1.0003 -0.4799
  192POPC  H12R22189   4.642   2.532   7.814 -0.7538  0.2127 -3.0316
  192POPC  H12S22190   4.587   2.376   7.775  0.1518 -0.9729  1.8944
  192POPC  C21322191   4.457   2.486   7.913 -0.6306 -0.1013  0.1780
  192POPC  H13R22192   4.359   2.435   7.898  0.1784 -1.5131 -0.5529
  192POPC  H13S22193   4.435   2.587   7.952 -0.7840 -0.6781  1.6551
  192POPC  C21422194   4.535   2.415   8.022 -0.3434 -0.8541 -0.1689
  192POPC  H14R22195   4.634   2.467   8.022 -1.2266  1.0235  2.5439
  192POPC  H14S22196   4.546   2.306   8.004 -0.7789 -1.1220  1.1235
  192POPC  C21522197   4.479   2.444   8.157 -0.0454  0.2864 -1.0125
  192POPC  H15R22198   4.369   2.429   8.154  0.0331 -1.1466  1.0963
  192POPC  H15S22199   4.482   2.552   8.185 -0.5354  0.1920 -0.5722
  192POPC  C21622200   4.537   2.366   8.269 -0.2858  0.6395 -0.4621
  192POPC  H16R22201   4.637   2.409   8.290 -0.4328  0.8286 -0.1485
  192POPC  H16S22202   4.549   2.256   8.258 -0.7854  0.6744 -1.5302
  192POPC  C21722203   4.451   2.371   8.397  0.7260 -0.6739  0.1185
  192POPC  H17R22204   4.349   2.340   8.369  0.5645  0.4410 -0.6122
  192POPC  H17S22205   4.453   2.478   8.430 -0.7654 -0.6804  0.2751
  192POPC  C21822206   4.513   2.274   8.501  0.3762  0.1686  0.6306
  192POPC  H18R22207   4.478   2.170   8.489  1.6413 -0.2916  0.7872
  192POPC  H18S22208   4.481   2.309   8.602 -2.9039 -0.6908  0.0186
  192POPC  H18T22209   4.623   2.265   8.487 -0.0811 -3.5162 -2.1095
  192POPC   C3322210   4.915   2.547   7.259 -0.1963 -0.8199 -0.7216
  192POPC   H3X22211   5.019   2.559   7.223  0.1224  1.3341  0.7340
  192POPC   H3Y22212   4.898   2.441   7.234 -0.7507 -1.1834  1.0465
  192POPC   C3422213   4.904   2.580   7.407 -0.6393  0.4791 -0.2757
  192POPC   H4X22214   4.797   2.601   7.427 -0.9901 -2.2017  1.1985
  192POPC   H4Y22215   4.968   2.666   7.435  0.7591 -0.8244  0.7580
  192POPC   C3522216   4.946   2.459   7.494  0.6238  0.2428  0.2228
  192POPC   H5X22217   5.051   2.426   7.476  0.0282 -1.5762 -0.1201
  192POPC   H5Y22218   4.893   2.367   7.462  2.7897 -0.9316 -0.2049
  192POPC   C3622219   4.918   2.469   7.646  0.4248  0.0547 -0.1171
  192POPC   H6X22220   4.825   2.523   7.672  0.4620  1.7619 -2.9913
  192POPC   H6Y22221   5.002   2.526   7.691 -0.7361 -1.4567  4.4666
  192POPC   C3722222   4.911   2.337   7.722  0.1577  0.3979 -0.2775
  192POPC   H7X22223   4.998   2.273   7.696 -0.9138 -0.5796 -1.6682
  192POPC   H7Y22224   4.815   2.290   7.691 -0.2164  1.1753 -0.3095
  192POPC   C3822225   4.906   2.358   7.875  0.8479  0.2770 -0.8631
  192POPC   H8X22226   4.822   2.430   7.889  2.2110  1.8698 -0.5031
  192POPC   H8Y22227   4.991   2.414   7.919  2.4372 -1.1205 -2.0121
  192POPC   C3922228   4.872   2.230   7.947  0.2420  0.0962 -0.6217
  192POPC   H9X22229   4.956   2.160   7.924  0.7289  0.3751  0.2473
  192POPC   H9Y22230   4.777   2.186   7.911 -3.1544  5.6201  0.5153
  192POPC  C31022231   4.864   2.251   8.091 -0.1664 -0.5606 -0.6095
  192POPC  H10X22232   4.771   2.309   8.105 -0.0309 -0.9667  2.8597
  192POPC  H10Y22233   4.947   2.308   8.139 -1.4264 -0.7848  2.0147
  192POPC  C31122234   4.849   2.125   8.185 -0.4233 -0.6579 -0.2808
  192POPC  H11X22235   4.936   2.063   8.153  0.7770  0.6018  0.4336
  192POPC  H11Y22236   4.751   2.077   8.165 -0.3625 -1.1141  0.4709
  192POPC  C31222237   4.848   2.169   8.336  0.0565  0.2882  0.5700
  192POPC  H12X22238   4.765   2.243   8.344 -0.2058 -0.0268  0.8475
  192POPC  H12Y22239   4.939   2.224   8.366 -0.9969  0.6007  3.5889
  192POPC  C31322240   4.836   2.051   8.429  0.5131  0.5616 -0.3510
  192POPC  H13X22241   4.734   2.007   8.427  0.8610 -0.4407  1.3260
  192POPC  H13Y22242   4.822   2.086   8.533  0.2749 -0.4163 -0.0381
  192POPC  C31422243   4.951   1.943   8.418  0.1873  0.8140 -0.1459
  192POPC  H14X22244   5.045   1.999   8.398 -0.0612  1.7853  1.2395
  192POPC  H14Y22245   4.933   1.880   8.328 -2.4144  1.1286  0.0917
  192POPC  C31522246   4.959   1.863   8.549  0.8051 -0.2682 -0.1721
  192POPC  H15X22247   4.967   1.932   8.636 -0.1294 -1.0259  0.5366
  192POPC  H15Y22248   5.044   1.795   8.570  1.5856  0.7722  0.1835
  192POPC  C31622249   4.841   1.774   8.586 -0.1076 -0.8429  0.1180
  192POPC  H16X22250   4.873   1.730   8.683 -0.0504  1.8372  1.4025
  192POPC  H16Y22251   4.822   1.692   8.513 -0.6142 -0.4440 -0.2097
  192POPC  H16Z22252   4.747   1.832   8.596 -0.0353 -0.4563 -1.1878
  193SOD    SOD22253   5.027   1.007   4.721 -0.2821 -0.2195 -0.1994
  194SOD    SOD22254   4.460   1.421  10.740  0.4271  0.1301 -0.1896
  195SOD    SOD22255   3.526   5.918   5.159  0.3735  0.0308  0.7647
  196SOD    SOD22256   0.629   1.162   0.193  0.2329 -0.0468  0.4096
  197SOD    SOD22257   2.192   0.136   2.180 -0.2068  0.2089  0.2079
  198SOD    SOD22258   3.991   5.611  14.106  0.2238  0.0761  0.6763
  199SOD    SOD22259   3.551   3.481   1.039  0.1938  0.0728 -0.4466
  200SOD    SOD22260   0.852   4.727   5.790  0.2047  0.2096 -0.0075
  201SOD    SOD22261   0.548   5.740  11.127 -0.3159 -0.3215  0.2951
  202SOD    SOD22262   4.681   3.646  13.974 -0.3537 -0.0203  0.0056
  203SOD    SOD22263   4.265   0.746  12.123 -0.0516  0.0496  0.1834
  204SOD    SOD22264   2.721   4.971   1.466  0.1339 -0.3736  0.2920
  205SOD    SOD22265   4.851   0.568  15.616  0.3792 -0.2644  0.1617
  206SOD    SOD22266   1.758   6.245  16.067 -0.2396 -0.1104 -0.2508
  207SOD    SOD22267   2.492   2.777   1.768  0.3690  0.4883 -0.0436
  208SOD    SOD22268   6.762   6.247   1.892  0.2671  0.0462 -0.0186
  209SOD    SOD22269   5.686   3.693   4.074 -0.1189 -0.3219 -0.4108
  210SOD    SOD22270   5.940   1.973   0.263 -0.0994  0.3593  0.4361
  211SOD    SOD22271   4.770   0.224  13.199  0.1471 -0.0806 -0.0222
  212SOD    SOD22272   1.121   4.272  13.923 -0.0764 -0.0738 -0.1678
  213SOD    SOD22273   2.991   1.504  15.127  0.0563 -0.0414  0.3632
  214SOD    SOD22274   2.318   5.824  12.390  0.1195 -0.2540 -0.2554
  215SOD    SOD22275   1.945   2.283   2.426  0.3230 -0.1845 -0.1586
  216SOD    SOD22276   5.212   1.406  16.676 -0.2376  0.0920  0.8050
  217SOD    SOD22277   5.173   6.205  13.382 -0.2016  0.1568  0.5126
  218SOD    SOD22278   3.772   5.560   6.194  0.0965  0.0921 -0.1378
  219SOD    SOD22279   0.250   0.548  10.815  0.2622  0.1407 -0.2228
  220SOD    SOD22280   6.705   4.804   4.675  0.3394 -0.0152  0.2095
  221SOD    SOD22281   4.663   0.655  10.850  0.4295  0.1969 -0.0757
  222SOD    SOD22282   0.313   2.700   2.674 -0.0340 -0.0436  0.3433
  223SOD    SOD22283   1.638   2.534  15.686  0.1001 -0.0821  0.8681
  224SOD    SOD22284   1.309   1.837   5.629 -0.4186 -0.1958 -0.0236
  225SOD    SOD22285   3.753   0.625  14.329 -0.1520 -0.0673  0.0448
  226SOD    SOD22286   6.388   5.895   5.440  0.8627  0.4523 -0.1027
  227SOD    SOD22287   2.896   0.013   2.479 -0.1406 -0.0901 -0.3654
  228SOD    SOD22288   2.797   5.406   2.648  0.1441 -0.3657  0.3040
  229SOD    SOD22289   6.542   1.506  11.265  0.2337 -0.7393 -0.1586
  230SOD    SOD22290   0.622   5.013   1.435  0.0902  0.2649 -0.0424
  231SOD    SOD22291   3.982   2.337  16.738 -0.1279  0.3455  0.0178
  232SOD    SOD22292   1.728   5.741   0.506 -0.5045  0.2284  0.0070
  233SOD    SOD22293   5.104   0.305  16.943 -0.5566  0.2146 -0.1244
  234SOD    SOD22294   2.664   6.526  13.687  0.2701 -0.2140 -0.3691
  235SOD    SOD22295   1.725   1.061  16.816  0.0648 -0.3921 -0.1227
  236SOD    SOD22296   1.466   2.204  14.292  0.0477  0.1682  0.0529
  237SOD    SOD22297   4.542   4.022   4.942  0.2387  0.2539  0.3225
  238SOD    SOD22298   3.637   1.483   2.338 -0.7110 -0.3564 -0.6885
  239SOD    SOD22299   5.140   3.515   2.126 -0.3203 -0.2185  0.3652
  240SOD    SOD22300   0.316   4.017  16.036  0.2247  0.1157  0.4287
  241SOD    SOD22301   0.844   2.543  10.689 -0.2375  0.1779 -0.4242
  242SOD    SOD22302   2.808   1.137  14.733 -0.2758 -0.5370  0.4439
  243SOD    SOD22303   2.921   4.891  13.949  0.2071 -0.1237  0.0528
  244SOD    SOD22304   4.046   4.148  12.059  0.3168 -0.4062 -0.1851
  245SOD    SOD22305   2.948   1.758   5.576  0.2827 -0.2173  0.1102
  246SOD    SOD22306   0.091   0.032  14.943 -0.4456  0.4938 -0.0443
  247SOD    SOD22307   4.429   6.775   5.091  0.3441  0.0493  0.0657
  248SOD    SOD22308   3.950   6.339  11.375  0.2003  0.4169  0.3082
  249SOD    SOD22309   5.448   4.067  13.979  0.1804  0.0068  0.9133
  250SOD    SOD22310   1.074   3.613  11.452 -0.1236  0.0022  0.1607
  251SOD    SOD22311   6.030   5.358  13.364  0.0105  0.2329  0.6503
  252SOD    SOD22312   1.950   4.573  11.340  0.0897 -0.6053 -0.1477
  253SOD    SOD22313   6.420   1.399   2.489  0.6038 -0.6927  0.2396
  254SOD    SOD22314   1.509   3.329   0.859 -0.3746  0.0494 -0.1491
  255SOD    SOD22315   4.361   3.496  11.493 -0.3827  0.3921  0.2603
  256SOD    SOD22316   1.071   0.146  13.690  0.5200 -0.2144  0.1252
  257SOD    SOD22317   1.038   0.833   5.695 -0.1570  0.8255 -0.6796
  258SOD    SOD22318   1.414   5.303   4.638 -0.1577  0.3018  0.2040
  259SOD    SOD22319   2.132   2.297  11.384 -0.1069  0.0622 -0.1609
  260SOD    SOD22320   1.800   2.322   4.068  0.3815  0.0551 -0.0504
  261SOD    SOD22321   2.957   0.745  12.273  0.1543  0.0838 -0.3760
  262SOD    SOD22322   3.717   2.440  11.645 -0.5255  0.0216 -0.3739
  263SOD    SOD22323   2.611   5.893   5.420  0.2502  0.0968  0.2004
  264SOD    SOD22324   5.820   3.615  16.668 -0.1690  0.1353  0.2020
  265SOD    SOD22325   4.057   5.017  16.558 -0.1418  0.3198 -0.1810
  266SOD    SOD22326   2.611   0.508   5.578 -0.1013  0.4027 -0.4294
  267SOD    SOD22327   6.231   4.482  10.903 -0.0561 -0.3378  0.1426
  268SOD    SOD22328   2.890   5.301  12.533  0.0548 -0.2409  0.0515
  269SOD    SOD22329   0.388   1.206  15.129  0.2750  0.3573 -0.3712
  270CLA    CLA22330   0.965   2.585   0.749 -0.2169 -0.5570  0.2231
  271CLA    CLA22331   1.138   1.895  14.224 -0.0439 -0.0448 -0.2701
  272CLA    CLA22332   3.252   0.534   5.395  0.1091  0.2091  0.0893
  273CLA    CLA22333   3.544   0.221   2.817 -0.0180 -0.3363 -0.1101
  274CLA    CLA22334   0.274   0.578   1.964  0.2218 -0.0233  0.0587
  275CLA    CLA22335   6.421   2.169   3.502  0.2207  0.1977 -0.3185
  276CLA    CLA22336   5.482   0.415  16.328 -0.2147  0.1031 -0.0013
  277CLA    CLA22337   0.120   6.454  13.710  0.0514  0.1081 -0.0814
  278CLA    CLA22338   6.399   1.271   5.043  0.1158 -0.1130 -0.5018
  279CLA    CLA22339   5.843   5.361  12.638  0.0090 -0.1518  0.0530
  280CLA    CLA22340   0.152   6.355  16.345  0.0164  0.0793  0.1371
  281CLA    CLA22341   2.982   1.840   0.688 -0.2976 -0.2426  0.0356
  282CLA    CLA22342   2.689   4.229  14.240 -0.0508 -0.0856  0.2545
  283CLA    CLA22343   3.066   5.866  12.979  0.0258  0.0175 -0.0118
  284CLA    CLA22344   2.176   6.595  12.891 -0.2305 -0.3316 -0.3524
  285CLA    CLA22345   1.633   1.882   3.287 -0.0769 -0.5033 -0.2517
  286CLA    CLA22346   2.782   3.143   4.615 -0.1712  0.2437  0.1351
  287CLA    CLA22347   2.931   5.235   0.370  0.1337 -0.2204 -0.0263
  288CLA    CLA22348   4.509   3.418   5.380 -0.3386 -0.0137  0.0424
  289CLA    CLA22349   0.236   4.321  15.623 -0.0932 -0.0056 -0.0160
  290CLA    CLA22350   6.123   2.389  13.672 -0.3060  0.2266  0.3040
  291CLA    CLA22351   2.466   4.032   1.918 -0.3607  0.0184  0.0017
  292CLA    CLA22352   1.205   3.922   3.384 -0.2305 -0.0188  0.1053
  293CLA    CLA22353   0.940   2.536  11.669 -0.1251 -0.4353 -0.1381
  294CLA    CLA22354   0.285   5.581  15.230 -0.0331  0.2574  0.1433
  295CLA    CLA22355   2.702   5.083  12.583  0.1709 -0.1825  0.4351
  296CLA    CLA22356   0.876   1.141   0.016  0.1844  0.4378 -0.1600
  297CLA    CLA22357   2.870   0.770  11.723 -0.1867  0.1339 -0.0642
  298CLA    CLA22358   2.241   2.220   2.050 -0.3151  0.1854 -0.0442
  299CLA    CLA22359   3.730   6.626  15.240 -0.0647 -0.0821 -0.2435
  300CLA    CLA22360   6.666   1.096   2.998  0.0882 -0.4555 -0.2111
  301CLA    CLA22361   1.266   1.867   4.840 -0.4155 -0.1369  1.0040
  302CLA    CLA22362   6.552   3.991  11.296  0.0276  0.1132  0.5025
  303CLA    CLA22363   5.885   0.718   2.092  0.1803  0.2954 -0.2752
  304CLA    CLA22364   2.977   1.096  16.651  0.2745 -0.1100 -0.2764
  305CLA    CLA22365   5.398   3.343  16.493  0.2556 -0.2412 -0.2627
  306CLA    CLA22366   4.305   4.661   2.911 -0.1201 -0.7374 -0.2344
  307CLA    CLA22367   2.501   1.663  16.433  0.2857  0.1358  0.0855
  308CLA    CLA22368   1.188   4.021   0.005  0.0844  0.1792  0.0184
  309CLA    CLA22369   4.071   0.002  15.507  0.0329  0.0751 -0.2126
  310CLA    CLA22370   1.008   4.076  13.183 -0.2544  0.3443 -0.1327
  311CLA    CLA22371   3.653   5.369   2.279  0.1278 -0.3059  0.0551
  312CLA    CLA22372   4.597   3.964  13.404  0.0166  0.2766  0.0265
  313CLA    CLA22373   6.398   6.469  11.382  0.1094 -0.0433  0.3081
  314CLA    CLA22374   6.527   4.660  15.601  0.1224 -0.0808 -0.1087
  315CLA    CLA22375   3.279   1.805  15.350 -0.0240 -0.0383  0.1979
  316CLA    CLA22376   0.089   1.042  13.932 -0.0401  0.0807  0.1068
  317CLA    CLA22377   1.717   5.993   1.754  0.0739 -0.0498  0.0015
  318CLA    CLA22378   4.463   5.431  14.077  0.3318  0.1755  0.4179
  319CLA    CLA22379   4.235   4.561  15.893 -0.1969  0.1793  0.1768
  320CLA    CLA22380   4.842   1.321  15.087  0.1479 -0.1730 -0.1703
  321CLA    CLA22381   6.154   1.374  12.414  0.1181 -0.2641 -0.1767
  322CLA    CLA22382   1.876   0.518  14.983  0.3361 -0.0892 -0.0231
  323TIP3   OH222383   5.959   3.239  16.360 -0.5146 -0.7012 -0.3089
  323TIP3    H122384   5.979   3.323  16.402 -0.6664 -0.5552 -0.5224
  323TIP3    H222385   6.042   3.208  16.326 -0.4246 -0.7262 -0.0682
  324TIP3   OH222386   5.873   6.051  13.570  0.4182  0.1041  0.2978
  324TIP3    H122387   5.865   5.957  13.586  4.2385 -0.7771 -1.8880
  324TIP3    H222388   5.940   6.081  13.632 -1.5065  1.7653  1.7312
  325TIP3   OH222389   4.773   1.593   0.425 -0.2617 -0.3411 -0.3730
  325TIP3    H122390   4.755   1.555   0.511  0.1079  0.3602  0.0269
  325TIP3    H222391   4.705   1.659   0.413 -0.6902 -0.8755 -0.9034
  326TIP3   OH222392   1.334   1.767  15.156 -0.6123  0.3241  0.4148
  326TIP3    H122393   1.389   1.754  15.079 -0.8979  0.3794  0.1983
  326TIP3    H222394   1.396   1.779  15.228 -0.3121  1.7123 -0.0307
  327TIP3   OH222395   5.539   6.682   0.326  0.0595 -0.1148  0.1331
  327TIP3    H122396   5.463   6.697   0.382  1.0554 -0.1746  1.5412
  327TIP3    H222397   5.523   6.596   0.288  0.0775 -0.7648  1.5369
  328TIP3   OH222398   0.329   4.729  11.453 -0.4588  0.4302 -0.3110
  328TIP3    H122399   0.294   4.785  11.384  0.7542 -0.0372 -1.3422
  328TIP3    H222400   0.418   4.761  11.468 -0.4974  0.1358  0.6184
  329TIP3   OH222401   0.106   4.947   3.255 -0.4861  0.1893  0.0458
  329TIP3    H122402   0.112   4.873   3.315  1.6615  1.6191  1.7320
  329TIP3    H222403   0.164   4.925   3.182  0.2098  0.2265  0.5842
  330TIP3   OH222404   2.503   3.667  13.288  0.4775 -0.1763 -0.3556
  330TIP3    H122405   2.438   3.669  13.358  0.7091 -0.8326 -0.1106
  330TIP3    H222406   2.529   3.758  13.275 -1.4742  0.2750 -1.3875
  331TIP3   OH222407   3.574   0.775  11.319  0.1548  0.3483  0.3281
  331TIP3    H122408   3.496   0.780  11.375 -0.2484  0.2477 -0.2067
  331TIP3    H222409   3.550   0.713  11.251  1.2936 -0.9137  1.0343
  332TIP3   OH222410   5.871   6.146  16.636  0.5232 -0.4059 -0.1066
  332TIP3    H122411   5.872   6.206  16.710 -0.3052 -0.7124  0.1606
  332TIP3    H222412   5.915   6.067  16.668 -0.0055 -0.6087  0.1194
  333TIP3   OH222413   3.237   1.133  15.006  0.0805  0.1467 -0.6788
  333TIP3    H122414   3.303   1.191  14.969  2.1202 -2.1959 -0.9684
  333TIP3    H222415   3.287   1.068  15.055 -2.1601 -0.7318  0.5806
  334TIP3   OH222416   4.685   3.571  13.333  0.0477 -0.0966 -0.0497
  334TIP3    H122417   4.683   3.664  13.356  0.4808  0.3762 -1.7956
  334TIP3    H222418   4.776   3.555  13.307 -0.4533 -0.4969 -1.6510
  335TIP3   OH222419   5.202   6.713   2.350 -0.4259  0.4217 -0.1382
  335TIP3    H122420   5.115   6.751   2.364 -1.8766 -3.3543  3.4584
  335TIP3    H222421   5.259   6.761   2.410 -1.5203 -0.7671  1.9942
  336TIP3   OH222422   3.979   6.296   2.832 -0.4881  0.2161  0.0462
  336TIP3    H122423   4.067   6.263   2.851  0.4909  1.3662 -2.0923
  336TIP3    H222424   3.929   6.279   2.911  2.0139  0.6501  1.8366
  337TIP3   OH222425   4.425   6.317   1.403 -0.1308 -0.2734  0.1462
  337TIP3    H122426   4.513   6.295   1.434 -0.1358  0.3234  0.5960
  337TIP3    H222427   4.401   6.244   1.346  1.1842  0.1919 -1.0509
  338TIP3   OH222428   4.396   6.692  15.095 -0.1722 -0.1744 -0.1526
  338TIP3    H122429   4.389   6.744  15.175 -2.4541 -0.4682 -0.0857
  338TIP3    H222430   4.313   6.644  15.091  0.1779 -0.6886 -2.3491
  339TIP3   OH222431   4.736   0.326   4.630 -0.1969  0.1530 -0.1392
  339TIP3    H122432   4.743   0.232   4.616 -0.3513  0.0886  0.2003
  339TIP3    H222433   4.653   0.351   4.590 -0.4801  0.0263  0.3578
  340TIP3   OH222434   0.591   5.620   6.620 -0.3236 -0.6675  0.5762
  340TIP3    H122435   0.682   5.620   6.652 -0.9492  0.6630  2.5424
  340TIP3    H222436   0.560   5.709   6.636 -2.6279 -1.6260  1.9838
  341TIP3   OH222437   0.915   1.952   2.650 -0.3646  0.2481  0.3580
  341TIP3    H122438   0.966   2.034   2.644 -0.4719  0.4970  2.1298
  341TIP3    H222439   0.981   1.884   2.658 -0.2874  0.3054  0.2171
  342TIP3   OH222440   6.500   4.319   3.219  0.6877  0.0521  0.2596
  342TIP3    H122441   6.476   4.233   3.185 -0.9797  0.9853 -1.1083
  342TIP3    H222442   6.430   4.341   3.281  0.1164  1.1453 -0.7441
  343TIP3   OH222443   4.093   6.160  15.781 -0.0916  0.4100 -0.3665
  343TIP3    H122444   4.031   6.201  15.841  0.7183  2.0347 -0.5604
  343TIP3    H222445   4.052   6.168  15.695  0.0022  0.7203 -0.3846
  344TIP3   OH222446   4.066   2.531   6.342  0.8020  0.7524 -0.6232
  344TIP3    H122447   4.153   2.510   6.376  0.8184 -0.1618 -1.1823
  344TIP3    H222448   4.005   2.494   6.406  0.8239  0.7660 -0.5945
  345TIP3   OH222449   3.376   2.408   0.379  0.5007 -0.5487  0.5412
  345TIP3    H122450   3.447   2.373   0.433 -0.0002 -1.6668  0.5210
  345TIP3    H222451   3.297   2.369   0.417 -0.1217  0.7808  0.6484
  346TIP3   OH222452   0.106   6.368   2.166  0.0878  0.0510 -0.1084
  346TIP3    H122453   0.118   6.450   2.118 -0.0733 -0.4476 -1.0335
  346TIP3    H222454   0.089   6.395   2.256  3.0408  0.9540  0.2879
  347TIP3   OH222455   3.645   1.601  12.202 -0.1961 -0.3623 -0.5800
  347TIP3    H122456   3.552   1.619  12.191 -0.2399 -0.1445  0.1100
  347TIP3    H222457   3.649   1.546  12.281  0.4392  1.4610  0.7110
  348TIP3   OH222458   2.735   2.465  15.397 -0.3008 -0.6800  0.4940
  348TIP3    H122459   2.764   2.548  15.360 -2.0427 -0.2057  0.1010
  348TIP3    H222460   2.790   2.452  15.474  1.2023 -0.0682 -0.4415
  349TIP3   OH222461   0.572   6.014   2.782 -0.0854 -0.5906 -0.9387
  349TIP3    H122462   0.520   6.087   2.749 -0.5336 -0.5990 -0.2598
  349TIP3    H222463   0.551   5.941   2.723 -1.3355 -0.7655 -0.2931
  350TIP3   OH222464   4.157   1.994   1.252  0.3913 -0.1961  0.1618
  350TIP3    H122465   4.172   2.041   1.334  1.1776 -1.9107  1.0511
  350TIP3    H222466   4.079   1.942   1.268  1.0341 -1.1898  0.1450
  351TIP3   OH222467   6.607   1.684   4.296 -0.0976  0.5022 -0.0732
  351TIP3    H122468   6.532   1.634   4.264 -0.6981 -0.3182  2.4529
  351TIP3    H222469   6.569   1.766   4.329  0.2643  0.5692  0.1853
  352TIP3   OH222470   5.490   4.572  13.848 -0.3746 -0.2761 -0.4181
  352TIP3    H122471   5.559   4.596  13.785 -0.6465  1.5236 -0.0836
  352TIP3    H222472   5.495   4.640  13.915 -1.9952 -0.5417 -0.0012
  353TIP3   OH222473   0.015   2.857  13.743 -0.0542  0.5473 -0.4042
  353TIP3    H122474   0.092   2.833  13.794 -0.0452  0.1493 -0.5992
  353TIP3    H222475   0.044   2.853  13.652 -1.0463 -2.5664 -0.6940
  354TIP3   OH222476   3.519   6.730   2.753 -0.2520  0.5288  0.1768
  354TIP3    H122477   3.542   6.819   2.779 -0.0962  0.4437  0.3304
  354TIP3    H222478   3.477   6.692   2.830  0.5796  0.1410  0.4614
  355TIP3   OH222479   3.859   1.822  13.180 -0.3174  0.3214 -0.0262
  355TIP3    H122480   3.866   1.852  13.271 -0.5366 -0.8498  0.4008
  355TIP3    H222481   3.930   1.758  13.171 -0.3568  0.3621 -0.6490
  356TIP3   OH222482   1.669   5.663  12.801 -0.3391  0.1385  0.4185
  356TIP3    H122483   1.764   5.655  12.809 -0.4785  0.3498  3.1582
  356TIP3    H222484   1.642   5.581  12.759  0.9040 -0.7312  1.2463
  357TIP3   OH222485   0.587   6.560  12.103 -0.1832  0.4897  0.0001
  357TIP3    H122486   0.656   6.624  12.121  0.6798 -0.9918  2.5873
  357TIP3    H222487   0.627   6.498  12.042  0.2473  0.4981  0.2678
  358TIP3   OH222488   2.568   0.598  15.503  0.7088  1.0774 -0.0036
  358TIP3    H122489   2.481   0.570  15.532 -0.6570  3.1622 -1.8104
  358TIP3    H222490   2.608   0.635  15.582 -0.2157  0.5694  0.7342
  359TIP3   OH222491   2.712   4.890  10.417 -0.1141  0.3745 -0.6500
  359TIP3    H122492   2.738   4.798  10.409  1.4077  0.8235 -1.2301
  359TIP3    H222493   2.628   4.887  10.462 -0.4934 -1.3413 -1.3841
  360TIP3   OH222494   1.559   5.863  15.928  0.5489 -0.0816  0.2979
  360TIP3    H122495   1.599   5.777  15.940  1.5168  0.3977  0.5594
  360TIP3    H222496   1.465   5.844  15.920  0.7760 -1.1869  0.0252
  361TIP3   OH222497   6.098   1.074  14.998  0.0532 -0.5608 -0.1218
  361TIP3    H122498   6.174   1.034  15.041 -1.6725 -0.8643  2.9202
  361TIP3    H222499   6.116   1.168  15.002  1.0128 -0.6802 -1.0579
  362TIP3   OH222500   4.620   3.176  14.951 -0.2118  0.1090 -0.2879
  362TIP3    H122501   4.658   3.264  14.948  1.3052 -0.4989  0.1113
  362TIP3    H222502   4.692   3.120  14.981 -1.2461 -1.2187 -0.2000
  363TIP3   OH222503   0.402   3.504   5.627 -0.3589  0.3723 -0.2879
  363TIP3    H122504   0.399   3.437   5.695 -0.8596  0.6351 -0.0427
  363TIP3    H222505   0.433   3.459   5.549 -1.8260 -0.4089 -0.4455
  364TIP3   OH222506   2.717   1.209  12.468 -0.4104  0.6416  0.3311
  364TIP3    H122507   2.626   1.233  12.447 -0.8638 -1.0501  0.1807
  364TIP3    H222508   2.708   1.142  12.535  0.7118  0.0332 -0.1159
  365TIP3   OH222509   3.740   0.104  12.981 -0.0905  0.0129 -0.0106
  365TIP3    H122510   3.706   0.014  12.974  0.3602 -0.3511  1.8811
  365TIP3    H222511   3.835   0.093  12.986  0.0037  0.6564 -0.3430
  366TIP3   OH222512   0.172   6.034   0.551 -0.4317  0.3214  1.1014
  366TIP3    H122513   0.166   5.963   0.487 -1.2325  1.2388  0.1188
  366TIP3    H222514   0.162   5.991   0.636 -0.0070 -0.8402  0.5805
  367TIP3   OH222515   5.015   2.134  16.909 -0.3892  0.0323 -0.2607
  367TIP3    H122516   5.028   2.044  16.880 -1.2235  0.3384 -1.6708
  367TIP3    H222517   5.102   2.165  16.931  0.0767 -0.7431 -0.9518
  368TIP3   OH222518   5.401   4.928  11.898 -0.6592 -0.1263 -0.2740
  368TIP3    H122519   5.418   4.938  11.992 -1.0515  0.2799 -0.2484
  368TIP3    H222520   5.340   4.854  11.892 -1.3214  0.4033 -0.1440
  369TIP3   OH222521   6.314   1.213   4.592  0.4458 -0.3998  0.3558
  369TIP3    H122522   6.384   1.165   4.636  0.6373 -0.6589 -0.2156
  369TIP3    H222523   6.235   1.192   4.642  0.5271 -1.3040  0.1229
  370TIP3   OH222524   6.583   0.117   4.087  0.2099 -0.1719 -0.5659
  370TIP3    H122525   6.553   0.040   4.136  1.6520 -0.2151  0.3330
  370TIP3    H222526   6.528   0.189   4.119  0.4421 -0.3975  0.3894
  371TIP3   OH222527   1.834   3.631   0.024 -0.3395 -0.1039  0.3676
  371TIP3    H122528   1.894   3.589   0.086 -0.0932 -0.3571 -0.0324
  371TIP3    H222529   1.816   3.564  -0.041 -0.6491  0.1365  0.2028
  372TIP3   OH222530   5.576   1.141   3.322  0.1216 -0.7038 -0.3040
  372TIP3    H122531   5.561   1.165   3.414  1.4590  0.5522 -0.3746
  372TIP3    H222532   5.539   1.053   3.314  1.5604 -1.5964  1.9290
  373TIP3   OH222533   4.142   1.694   3.905  0.0805  0.0182 -0.6911
  373TIP3    H122534   4.215   1.756   3.915  1.3650 -1.2918 -1.6409
  373TIP3    H222535   4.083   1.716   3.978  1.4346  1.0758  0.1538
  374TIP3   OH222536   1.604   4.109   3.589  0.5952 -0.1257 -0.7609
  374TIP3    H122537   1.650   4.064   3.660 -0.8623 -0.4100  0.0384
  374TIP3    H222538   1.560   4.182   3.632 -2.3548 -1.7181 -0.8393
  375TIP3   OH222539   1.357   5.570   2.865  0.1687 -0.3891  0.1482
  375TIP3    H122540   1.265   5.547   2.853  0.5250 -0.7663 -2.5549
  375TIP3    H222541   1.361   5.664   2.848  0.1099 -0.0665  1.7580
  376TIP3   OH222542   3.186   2.860   1.489  0.2509 -0.0270  0.1461
  376TIP3    H122543   3.106   2.913   1.488  0.1788 -0.1041  1.0406
  376TIP3    H222544   3.256   2.924   1.472  0.3140  0.6811  2.7005
  377TIP3   OH222545   2.142   0.685  15.779  0.5574 -0.1781 -0.7324
  377TIP3    H122546   2.137   0.765  15.727  1.3421 -0.6308 -1.5198
  377TIP3    H222547   2.057   0.643  15.767  0.4855  0.0631 -1.0806
  378TIP3   OH222548   0.679   0.468   4.162 -0.1616 -0.2386  0.3187
  378TIP3    H122549   0.690   0.478   4.257  0.0663 -0.1053  0.2781
  378TIP3    H222550   0.765   0.487   4.126  0.2046 -1.9395  0.2154
  379TIP3   OH222551   6.726   6.338  11.050  0.6009  0.1030  0.0139
  379TIP3    H122552   6.686   6.422  11.074  1.8762  1.4110 -2.1547
  379TIP3    H222553   6.820   6.356  11.051  0.8323 -0.7952 -2.1143
  380TIP3   OH222554   4.409   3.297  11.606  0.2944  0.4241 -0.4876
  380TIP3    H122555   4.434   3.281  11.697  0.9359 -1.4508 -0.9478
  380TIP3    H222556   4.361   3.217  11.580 -1.0953  1.5006 -1.3919
  381TIP3   OH222557   3.798   3.912   0.921  0.2934 -0.2514  0.3290
  381TIP3    H122558   3.812   4.002   0.951 -0.2407 -0.2426  0.5450
  381TIP3    H222559   3.878   3.892   0.872  0.4364  0.3247  0.3111
  382TIP3   OH222560   5.078   1.436  12.446  0.3544 -0.4190  0.6074
  382TIP3    H122561   5.126   1.499  12.392 -0.7052 -1.8989 -2.3370
  382TIP3    H222562   5.141   1.366  12.463 -0.2238 -1.8168 -2.2811
  383TIP3   OH222563   3.647   5.317   2.987  0.3592  0.1773 -0.6030
  383TIP3    H122564   3.722   5.363   2.949  0.5588  1.7899  1.6023
  383TIP3    H222565   3.611   5.377   3.052  0.1910 -2.4703  1.9762
  384TIP3   OH222566   4.437   6.106  12.389 -0.7700  0.0194 -0.0170
  384TIP3    H122567   4.388   6.094  12.470 -0.2790 -0.4920  0.2124
  384TIP3    H222568   4.383   6.065  12.322 -0.3785 -1.0880  0.3331
  385TIP3   OH222569   1.716   1.641   5.565  0.5039  0.1978 -0.3810
  385TIP3    H122570   1.718   1.573   5.633  0.1720  1.2303  0.6808
  385TIP3    H222571   1.783   1.613   5.502  2.2053  0.1878  1.3377
  386TIP3   OH222572   6.686   3.590  11.231 -0.4873  0.1312 -0.7046
  386TIP3    H122573   6.686   3.600  11.135  1.3599  0.9529 -0.6539
  386TIP3    H222574   6.739   3.663  11.262 -0.9116 -0.2424  0.9573
  387TIP3   OH222575   2.435   4.168   1.634 -0.0692 -0.2653  0.0449
  387TIP3    H122576   2.456   4.137   1.722 -0.7762 -1.5949 -0.2318
  387TIP3    H222577   2.352   4.214   1.643 -0.4906 -0.9941 -0.0232
  388TIP3   OH222578   4.607   6.661   2.430  0.5481 -0.6514  0.4148
  388TIP3    H122579   4.667   6.734   2.445 -1.6457  1.1910  0.7067
  388TIP3    H222580   4.525   6.702   2.401 -1.3186 -2.8267  2.1660
  389TIP3   OH222581   5.745   3.309  13.610 -0.7227 -0.2310  0.3262
  389TIP3    H122582   5.677   3.323  13.675 -0.0374 -0.0765  1.0336
  389TIP3    H222583   5.822   3.353  13.646 -0.1032 -0.8603 -0.1939
  390TIP3   OH222584   4.611   1.145   1.985 -0.3187 -0.0438  0.2956
  390TIP3    H122585   4.651   1.058   1.989  0.9506  0.4703 -0.8380
  390TIP3    H222586   4.597   1.169   2.077  2.7964  0.1083  0.8254
  391TIP3   OH222587   0.531   2.090   5.137 -0.2975 -0.1901  0.3369
  391TIP3    H122588   0.461   2.127   5.083 -1.3839 -0.7659  1.3092
  391TIP3    H222589   0.491   2.014   5.179  1.0656 -0.8199  0.5481
  392TIP3   OH222590   4.946   3.001   3.038  0.2690 -0.0340 -0.3152
  392TIP3    H122591   4.879   2.936   3.060  0.8642 -0.3619  0.6005
  392TIP3    H222592   4.996   2.962   2.967  0.1649 -0.2598 -0.2634
  393TIP3   OH222593   4.425   4.410   2.455  0.5305  0.0034  0.1910
  393TIP3    H122594   4.393   4.396   2.366  1.0708  0.5715 -0.0977
  393TIP3    H222595   4.418   4.324   2.496 -0.0033 -0.1987 -0.3056
  394TIP3   OH222596   3.053   5.445  11.798  0.5744  0.4362 -0.8114
  394TIP3    H122597   3.131   5.429  11.851  0.1684  1.2021  0.0431
  394TIP3    H222598   2.983   5.395  11.840  0.0253  1.8268  0.0107
  395TIP3   OH222599   5.005   5.238  16.509 -0.6774 -0.4545 -0.5073
  395TIP3    H122600   5.081   5.292  16.529 -0.9446 -0.2174 -0.1026
  395TIP3    H222601   4.933   5.280  16.558 -0.8432 -1.2900 -0.0192
  396TIP3   OH222602   0.779   4.235   2.476  0.6016 -0.5565 -0.4612
  396TIP3    H122603   0.789   4.324   2.510  0.5704 -1.6964  2.9140
  396TIP3    H222604   0.866   4.197   2.481  0.7427 -0.5965 -2.4826
  397TIP3   OH222605   3.631   3.033  12.513  0.4431  0.3587 -0.2677
  397TIP3    H122606   3.643   3.125  12.533  1.8653  0.0785  0.3253
  397TIP3    H222607   3.658   3.024  12.421 -0.3628  0.6342 -0.5394
  398TIP3   OH222608   3.928   1.365  14.231  0.0766 -0.3767  0.7867
  398TIP3    H122609   3.973   1.306  14.291  2.1261  1.1206  0.8663
  398TIP3    H222610   3.927   1.449  14.277 -0.4826  0.2348 -0.2938
  399TIP3   OH222611   3.876   5.132  12.144  0.2603 -0.6824 -0.0313
  399TIP3    H122612   3.919   5.059  12.187  0.8144  0.2129  0.9718
  399TIP3    H222613   3.863   5.197  12.213 -0.5097  0.0431 -0.8295
  400TIP3   OH222614   1.284   2.057   1.137  0.1098  0.6681 -0.0402
  400TIP3    H122615   1.223   2.055   1.211 -0.6462 -1.0501 -0.6573
  400TIP3    H222616   1.238   2.108   1.070 -1.0041 -1.1587 -0.7360
  401TIP3   OH222617   1.804   6.777   4.078  0.0136  0.2467 -0.1053
  401TIP3    H122618   1.746   6.846   4.110  0.8792  0.8299  0.2228
  401TIP3    H222619   1.767   6.696   4.114 -1.0397  0.5143 -0.5392
  402TIP3   OH222620   6.177   4.841  12.998 -0.1757  0.5047  0.2078
  402TIP3    H122621   6.227   4.808  12.923  0.5752 -0.8281  1.2359
  402TIP3    H222622   6.130   4.764  13.030 -0.1931  0.9628  1.3198
  403TIP3   OH222623   3.980   5.792  16.351  0.2429  0.6858 -0.1031
  403TIP3    H122624   3.947   5.857  16.413  1.4203  0.9129  0.2998
  403TIP3    H222625   4.060   5.830  16.315 -0.3674  0.5280 -1.7371
  404TIP3   OH222626   3.045   5.854   4.970 -0.1370 -0.0982  0.0542
  404TIP3    H122627   3.107   5.786   4.942 -2.1098 -1.7576 -0.5505
  404TIP3    H222628   3.047   5.919   4.900  0.4896 -0.4346 -0.2460
  405TIP3   OH222629   3.734   6.006   4.726  0.0487  0.0202  0.5287
  405TIP3    H122630   3.646   5.995   4.691 -0.2196  3.8224 -0.4231
  405TIP3    H222631   3.721   6.043   4.813  0.5845  2.0485 -0.1940
  406TIP3   OH222632   5.430   4.796  16.175 -0.4812 -0.2849  0.0925
  406TIP3    H122633   5.478   4.715  16.190  2.6221  1.2060 -0.9228
  406TIP3    H222634   5.467   4.831  16.094 -0.4070  2.9884  1.3906
  407TIP3   OH222635   1.156   0.740   4.140 -0.3443 -0.0292  0.2281
  407TIP3    H122636   1.144   0.829   4.106  1.7474  0.4917  0.7322
  407TIP3    H222637   1.100   0.736   4.218  0.2743  1.1854  0.7558
  408TIP3   OH222638   1.485   3.637  12.418 -0.1732  0.0349  0.1194
  408TIP3    H122639   1.448   3.680  12.340  0.4914 -0.3225 -0.4092
  408TIP3    H222640   1.411   3.591  12.457 -0.2654 -0.8497 -1.0414
  409TIP3   OH222641   4.241   3.035  13.365  0.5779  0.3203  0.4995
  409TIP3    H122642   4.280   2.956  13.403  1.9846 -0.8759 -2.9269
  409TIP3    H222643   4.316   3.092  13.348  0.3658 -0.0079 -1.9430
  410TIP3   OH222644   0.780   4.719  15.951 -0.0645 -0.1631  0.0377
  410TIP3    H122645   0.731   4.722  15.870  0.4717 -0.8418 -0.3295
  410TIP3    H222646   0.753   4.636  15.992  0.5567 -0.4099 -0.0399
  411TIP3   OH222647   6.394   0.265  12.305 -0.2476  0.3718  0.2161
  411TIP3    H122648   6.383   0.282  12.399  1.9896  0.2796  0.5567
  411TIP3    H222649   6.445   0.340  12.273 -1.5324  0.7221 -1.0935
  412TIP3   OH222650   4.825   6.791   0.510  0.3804 -0.2136 -0.3587
  412TIP3    H122651   4.758   6.838   0.561 -0.9395  0.9749 -3.0070
  412TIP3    H222652   4.806   6.698   0.526  0.5815  0.0699  1.9161
  413TIP3   OH222653   6.029   2.033   0.053  0.1768 -0.3927 -0.3535
  413TIP3    H122654   6.035   1.966  -0.016  1.2499 -1.3686  0.6434
  413TIP3    H222655   6.089   2.102   0.024 -2.0980  0.9340 -2.1636
  414TIP3   OH222656   6.643   4.330   1.307  0.1020 -0.2776  0.1966
  414TIP3    H122657   6.634   4.414   1.351  0.3092  0.8137 -1.7409
  414TIP3    H222658   6.553   4.301   1.291  0.0066  0.4426 -0.6503
  415TIP3   OH222659   5.720   2.234  15.030  0.5476 -0.1456 -0.7526
  415TIP3    H122660   5.676   2.274  14.955 -0.5114  2.0868  0.9389
  415TIP3    H222661   5.681   2.146  15.036 -0.1589  0.0472 -2.1331
  416TIP3   OH222662   0.578   2.158   1.738  0.1753  0.2226  0.1223
  416TIP3    H122663   0.615   2.116   1.660  1.7918  0.1984  0.8641
  416TIP3    H222664   0.556   2.247   1.710  2.3555  0.7895  0.0091
  417TIP3   OH222665   4.622   4.012  14.816  0.0047  0.0631 -0.7171
  417TIP3    H122666   4.608   4.004  14.721  1.2092  0.4232 -0.9422
  417TIP3    H222667   4.716   4.027  14.825 -0.2596  1.1661  0.4690
  418TIP3   OH222668   3.237   6.222  12.513  0.0863 -0.4500 -0.5286
  418TIP3    H122669   3.271   6.133  12.518 -0.9305 -0.8952 -1.2582
  418TIP3    H222670   3.211   6.234  12.422 -0.9363  0.1466 -0.1811
  419TIP3   OH222671   6.404   4.038   0.083  0.6456 -0.0835  0.3428
  419TIP3    H122672   6.474   4.102   0.096 -0.2562  0.8427  0.7559
  419TIP3    H222673   6.326   4.080   0.118 -0.7485  0.1085 -2.6721
  420TIP3   OH222674   3.176   4.723  14.247 -0.6904 -0.3607 -0.1809
  420TIP3    H122675   3.269   4.739  14.262 -0.7093 -0.4230  0.0070
  420TIP3    H222676   3.167   4.724  14.151 -0.4601 -0.5585 -0.2065
  421TIP3   OH222677   6.169   0.053  13.302  0.1995 -0.2147 -0.0981
  421TIP3    H122678   6.197   0.142  13.324 -1.8338  0.5583 -0.3940
  421TIP3    H222679   6.153   0.011  13.387 -0.3447  0.2481  0.0375
  422TIP3   OH222680   3.531   0.628   0.951 -0.0247 -0.2217 -0.7049
  422TIP3    H122681   3.459   0.565   0.944 -1.9947  1.4841  2.2437
  422TIP3    H222682   3.488   0.713   0.961  2.5165  1.5001 -2.8120
  423TIP3   OH222683   6.354   5.122   3.309 -0.0736 -0.0849  0.4447
  423TIP3    H122684   6.423   5.185   3.288 -1.1111  0.9556  0.0329
  423TIP3    H222685   6.385   5.039   3.273  1.1959  0.2421  0.7404
  424TIP3   OH222686   5.109   6.444   5.720 -0.3390  0.3794  0.0687
  424TIP3    H122687   5.152   6.527   5.744 -0.7427  0.9578 -1.1413
  424TIP3    H222688   5.019   6.469   5.699 -0.3557 -0.3047 -0.7060
  425TIP3   OH222689   6.596   4.644   4.820  0.1139 -0.1540  0.3663
  425TIP3    H122690   6.561   4.556   4.810  1.2725 -0.5222 -0.6993
  425TIP3    H222691   6.609   4.654   4.915 -0.4809 -0.9373  0.5367
  426TIP3   OH222692   3.611   3.977  12.867  0.5401 -0.2628  0.4082
  426TIP3    H122693   3.548   4.012  12.804  0.3739  1.2510  1.3679
  426TIP3    H222694   3.684   3.948  12.813 -0.7799 -1.7128 -0.6939
  427TIP3   OH222695   4.915   1.573   2.981 -0.1734 -0.0151 -0.0081
  427TIP3    H122696   5.005   1.579   3.013 -0.5605  1.2743  0.9276
  427TIP3    H222697   4.913   1.492   2.929  1.3227 -0.4473  0.5581
  428TIP3   OH222698   1.936   1.224   0.188  0.4887 -0.0118  0.2063
  428TIP3    H122699   1.918   1.318   0.179 -0.7333 -0.1524  0.9905
  428TIP3    H222700   1.989   1.218   0.268 -0.9010 -0.1328  1.1466
  429TIP3   OH222701   1.774   3.684  11.203 -0.1076  0.1944  0.1656
  429TIP3    H122702   1.782   3.779  11.212 -2.0216  0.4388 -0.3226
  429TIP3    H222703   1.805   3.666  11.114 -0.6395  0.5056 -0.0897
  430TIP3   OH222704   2.760   0.338  15.629  0.0193  0.2442 -0.2484
  430TIP3    H122705   2.718   0.409  15.678 -0.7505 -1.6440  2.0201
  430TIP3    H222706   2.716   0.339  15.544 -2.6826  0.1614  1.0396
  431TIP3   OH222707   3.474   5.106   4.660 -0.1835 -0.9602 -0.4324
  431TIP3    H122708   3.524   5.093   4.579 -0.4073 -2.1567 -0.3919
  431TIP3    H222709   3.402   5.043   4.654 -0.7576 -0.3883  0.2599
  432TIP3   OH222710   5.939   2.635   1.159 -0.1793  0.0944 -0.0036
  432TIP3    H122711   5.866   2.576   1.144 -1.1310  0.7421  1.7604
  432TIP3    H222712   5.930   2.661   1.251  1.1558  1.6942 -0.2817
  433TIP3   OH222713   6.430   5.267  14.908  0.3714 -0.3756 -0.0092
  433TIP3    H122714   6.339   5.248  14.930  0.0678  0.5065 -0.4179
  433TIP3    H222715   6.452   5.343  14.962  0.2429  0.5913 -1.2655
  434TIP3   OH222716   4.415   0.678   2.555 -0.0815  0.2673  0.0583
  434TIP3    H122717   4.377   0.751   2.603  0.2892  0.5114 -0.0195
  434TIP3    H222718   4.440   0.615   2.622  0.5095  0.6424  0.1983
  435TIP3   OH222719   0.752   1.025   5.959  0.6112  0.0080 -0.0135
  435TIP3    H122720   0.813   0.964   5.917  0.0701  0.1756 -1.0990
  435TIP3    H222721   0.804   1.104   5.976  0.8207 -0.0125 -0.5282
  436TIP3   OH222722   5.614   1.523  16.864  0.1043 -0.1732 -0.2532
  436TIP3    H122723   5.707   1.501  16.859  0.1612  0.2384 -1.3380
  436TIP3    H222724   5.608   1.588  16.933  0.8153  0.6716 -0.9657
  437TIP3   OH222725   2.060   2.945  12.948  0.1179 -0.3733  0.1248
  437TIP3    H122726   1.983   2.960  13.003  0.7519  0.8505  0.7289
  437TIP3    H222727   2.024   2.925  12.862 -0.8841 -0.7555  0.6163
  438TIP3   OH222728   5.152   2.436   5.608  0.0179  0.2862  0.1074
  438TIP3    H122729   5.152   2.435   5.704 -0.5633  0.2717  0.1075
  438TIP3    H222730   5.191   2.520   5.586 -1.0551  0.8701  0.3712
  439TIP3   OH222731   0.640   1.933  12.769 -0.7572 -0.5992  0.1876
  439TIP3    H122732   0.632   1.945  12.864 -1.2728  0.3820  0.0322
  439TIP3    H222733   0.700   1.859  12.760  0.1918 -0.0098  1.2737
  440TIP3   OH222734   4.706   3.448   3.050 -0.1522 -0.2696  0.0628
  440TIP3    H122735   4.761   3.373   3.029  0.7587  0.1092  0.9968
  440TIP3    H222736   4.705   3.501   2.969 -0.1004 -0.8471 -0.3205
  441TIP3   OH222737   3.755   6.377   4.270 -0.0221 -0.5801  0.1186
  441TIP3    H122738   3.762   6.463   4.229  0.2734 -1.3829 -1.6059
  441TIP3    H222739   3.833   6.371   4.326 -1.2881  1.2016  2.2611
  442TIP3   OH222740   0.888   3.682   1.950  0.1665  0.0730 -0.3501
  442TIP3    H122741   0.976   3.707   1.977  0.2269 -0.6516  0.1810
  442TIP3    H222742   0.848   3.762   1.916  1.3091  0.2258 -1.3775
  443TIP3   OH222743   4.411   3.299  15.483 -0.6352  0.2914  0.5313
  443TIP3    H122744   4.384   3.365  15.546  0.6042  1.3994 -0.0601
  443TIP3    H222745   4.420   3.219  15.534  0.4742  1.2011  1.8072
  444TIP3   OH222746   1.840   4.603   5.060  0.3940 -0.0140 -0.0126
  444TIP3    H122747   1.921   4.566   5.026  1.5530  2.0868  0.2897
  444TIP3    H222748   1.839   4.577   5.152  0.1450 -0.9497 -0.2684
  445TIP3   OH222749   2.524   5.133   5.170  0.1023 -0.0539 -0.5463
  445TIP3    H122750   2.476   5.206   5.130 -0.7960  0.1983  0.9249
  445TIP3    H222751   2.458   5.066   5.187  0.9042 -1.2298 -1.8035
  446TIP3   OH222752   6.759   1.147   3.940 -0.5241  0.1809  0.3935
  446TIP3    H122753   6.754   1.182   4.029 -1.3391  0.4049  0.2637
  446TIP3    H222754   6.669   1.149   3.907 -0.5809 -1.8673  0.2982
  447TIP3   OH222755   6.154   1.339   2.453  0.0955  0.0666  0.0670
  447TIP3    H122756   6.158   1.287   2.373  0.0935  0.6352 -0.3107
  447TIP3    H222757   6.115   1.422   2.426  0.1094  0.2719  0.6543
  448TIP3   OH222758   6.336   4.095   1.580  0.7660 -0.0786  0.1502
  448TIP3    H122759   6.320   4.008   1.545  0.0489  0.1884 -0.2071
  448TIP3    H222760   6.298   4.155   1.516  2.5861  0.5813 -0.3768
  449TIP3   OH222761   6.523   0.344   5.623  0.2510  0.5613 -0.7311
  449TIP3    H122762   6.507   0.276   5.558  1.7402  1.2604 -1.8848
  449TIP3    H222763   6.553   0.419   5.573 -0.8473  1.9432  0.5622
  450TIP3   OH222764   5.820   4.795  14.915  0.2082 -0.2317 -0.5556
  450TIP3    H122765   5.797   4.751  14.997  0.1637 -0.1799 -0.5398
  450TIP3    H222766   5.753   4.863  14.905 -0.0028 -0.4797 -0.8288
  451TIP3   OH222767   4.744   2.555  11.870  0.5473 -0.4297 -0.5718
  451TIP3    H122768   4.688   2.570  11.794 -1.0581 -1.2441  0.3942
  451TIP3    H222769   4.749   2.640  11.914  0.0439 -0.3519 -0.6581
  452TIP3   OH222770   3.912   1.052  12.969 -0.1406 -0.3047 -0.1534
  452TIP3    H122771   3.999   1.086  12.945  0.4910 -1.5867  0.2186
  452TIP3    H222772   3.859   1.130  12.984  0.7248  0.5071 -1.1809
  453TIP3   OH222773   2.423   2.846  10.603 -0.0798  0.4189 -0.2308
  453TIP3    H122774   2.438   2.933  10.639  0.2483 -0.5421  2.1092
  453TIP3    H222775   2.509   2.816  10.575  0.1297  0.1042  0.7477
  454TIP3   OH222776   1.266   5.425  15.774 -0.5304  0.0351  0.5724
  454TIP3    H122777   1.313   5.409  15.856  0.0204  1.9394  0.6919
  454TIP3    H222778   1.174   5.409  15.795 -0.6102  2.0170  2.0765
  455TIP3   OH222779   3.395   0.739  10.496  0.3360 -0.1986 -0.1089
  455TIP3    H122780   3.470   0.739  10.436 -1.3466 -0.2657 -2.3441
  455TIP3    H222781   3.329   0.792  10.451 -0.7479  0.4032  2.0915
  456TIP3   OH222782   4.229   6.536  15.356 -1.0357  0.5311  0.0076
  456TIP3    H122783   4.286   6.579  15.420  0.4439 -0.5166 -0.5535
  456TIP3    H222784   4.168   6.605  15.329  0.5295  1.9828 -0.0370
  457TIP3   OH222785   3.665   5.355  11.775 -0.2787 -0.3487 -0.0348
  457TIP3    H122786   3.705   5.360  11.862  0.0356  3.0947 -0.2220
  457TIP3    H222787   3.574   5.382  11.788 -0.4934 -0.7416 -0.6489
  458TIP3   OH222788   2.818   5.865  12.340  0.2536  0.0485 -0.2868
  458TIP3    H122789   2.898   5.819  12.316  0.1565 -0.1851 -0.1628
  458TIP3    H222790   2.821   5.947  12.290  0.8290  0.2817  0.1229
  459TIP3   OH222791   5.505   4.313  13.959 -0.1211 -0.2917  0.4849
  459TIP3    H122792   5.595   4.326  13.989 -0.3751 -1.0056  1.6115
  459TIP3    H222793   5.483   4.393  13.913  1.6005 -0.6821 -1.1414
  460TIP3   OH222794   1.469   3.034   0.472  0.4652  0.3749  0.0256
  460TIP3    H122795   1.468   2.961   0.532  1.8102  0.9225  0.7570
  460TIP3    H222796   1.514   3.104   0.519  1.6972  0.7820 -1.6244
  461TIP3   OH222797   4.480   1.190  10.682 -0.0554  0.3358  0.5374
  461TIP3    H122798   4.542   1.184  10.610  0.4913  0.0893  1.0268
  461TIP3    H222799   4.466   1.100  10.710  0.0030  0.4556  0.9674
  462TIP3   OH222800   0.774   5.931   0.206 -0.2742 -0.4964 -0.5780
  462TIP3    H122801   0.846   5.980   0.246 -0.6781  1.0103 -1.6051
  462TIP3    H222802   0.785   5.842   0.238 -1.2757  0.7420  3.9133
  463TIP3   OH222803   5.749   0.078   0.087  0.6386 -0.0443  0.4244
  463TIP3    H122804   5.831   0.107   0.047  0.0497 -1.6297 -2.1214
  463TIP3    H222805   5.733  -0.008   0.051 -1.8008 -0.1081  1.4496
  464TIP3   OH222806   3.786   6.163  11.345  0.0907  0.1393 -0.1201
  464TIP3    H122807   3.852   6.093  11.349 -0.2432 -0.2256 -0.7326
  464TIP3    H222808   3.704   6.120  11.371 -0.0657  0.3707 -0.2289
  465TIP3   OH222809   2.717   1.159  12.834 -0.0762  0.2757  0.0759
  465TIP3    H122810   2.734   1.250  12.808 -0.2702  0.2336 -0.2026
  465TIP3    H222811   2.756   1.151  12.921  0.6058  0.4105 -0.2146
  466TIP3   OH222812   1.220   1.860  13.465 -0.5683  0.4538 -0.1919
  466TIP3    H122813   1.206   1.767  13.447  1.7003  0.0039  0.0380
  466TIP3    H222814   1.140   1.903  13.435 -2.0270 -1.6465  0.4768
  467TIP3   OH222815   2.531   3.207   1.587 -0.2220 -0.4002  0.1457
  467TIP3    H122816   2.491   3.159   1.514  1.1069 -0.9649 -0.2506
  467TIP3    H222817   2.558   3.291   1.548 -1.3571  0.1474  0.5122
  468TIP3   OH222818   2.454   1.760   2.712 -0.1952  0.2031 -0.3226
  468TIP3    H122819   2.422   1.828   2.652  0.7462 -0.4834 -1.6419
  468TIP3    H222820   2.379   1.703   2.726 -0.2762  0.0144 -1.3963
  469TIP3   OH222821   2.168   1.150   2.571 -0.2478 -0.0113 -0.2860
  469TIP3    H122822   2.162   1.208   2.648 -0.7531 -0.2455 -0.1450
  469TIP3    H222823   2.175   1.211   2.497 -1.5119  0.2729 -0.2076
  470TIP3   OH222824   5.366   0.962   4.058 -0.3413 -0.7268 -0.7548
  470TIP3    H122825   5.339   1.000   4.142  0.1467  0.3686 -1.0733
  470TIP3    H222826   5.340   1.027   3.993  1.3330 -0.4887 -1.2439
  471TIP3   OH222827   4.035   4.668  13.752  0.1514 -0.6177  0.4147
  471TIP3    H122828   3.993   4.589  13.787  0.4968 -0.8247  0.3644
  471TIP3    H222829   4.053   4.647  13.661  2.0466 -1.2338  0.8924
  472TIP3   OH222830   0.390   2.238  16.862  0.4223  0.1306  0.8416
  472TIP3    H122831   0.436   2.205  16.939  3.0538  1.6062  0.0211
  472TIP3    H222832   0.405   2.333  16.864  2.4519  0.0417 -2.5332
  473TIP3   OH222833   2.029   3.159  16.331  0.0244 -0.2435  0.3799
  473TIP3    H122834   2.092   3.094  16.301  0.1211 -0.5445  1.1876
  473TIP3    H222835   1.963   3.163  16.262 -0.2715 -1.6050  0.5453
  474TIP3   OH222836   6.149   5.093   2.235 -0.1451 -0.6221 -0.3981
  474TIP3    H122837   6.200   5.150   2.177 -1.3270 -0.5070 -1.3692
  474TIP3    H222838   6.102   5.034   2.176 -1.5677 -0.3547  0.4009
  475TIP3   OH222839   3.049   2.293   5.699  0.1181 -0.2806  0.2820
  475TIP3    H122840   2.977   2.352   5.674 -1.2220 -1.4474  1.2098
  475TIP3    H222841   3.018   2.251   5.779  0.7309 -2.6960 -0.6643
  476TIP3   OH222842   0.587   0.006   3.582 -0.4500  0.0964  0.3247
  476TIP3    H122843   0.605   0.094   3.550  0.7125 -0.2627 -0.0551
  476TIP3    H222844   0.540  -0.037   3.511 -2.7889  0.9660  1.2331
  477TIP3   OH222845   2.633   4.371  16.618 -0.0093 -0.5096  0.5414
  477TIP3    H122846   2.648   4.466  16.623  0.8894 -0.6041 -0.1741
  477TIP3    H222847   2.543   4.360  16.650 -0.6901  0.7512 -0.8100
  478TIP3   OH222848   6.476   2.310  14.231  0.0661  0.1614  0.0529
  478TIP3    H122849   6.489   2.394  14.275  1.4094 -0.8469  1.6841
  478TIP3    H222850   6.526   2.317  14.150 -1.8648  1.7902 -1.0907
  479TIP3   OH222851   1.240   2.885  14.267 -0.6093  0.2945  0.1861
  479TIP3    H122852   1.180   2.906  14.339 -1.1770  0.0375 -0.2102
  479TIP3    H222853   1.316   2.942  14.282 -1.2951  1.2186  0.2276
  480TIP3   OH222854   5.345   5.754   0.957 -0.3053 -0.0582 -0.5378
  480TIP3    H122855   5.324   5.662   0.939 -1.0103 -0.5676  2.4048
  480TIP3    H222856   5.423   5.750   1.012  0.3101  1.2008 -1.2915
  481TIP3   OH222857   0.693   4.313   0.773  0.2492 -0.0949  0.0084
  481TIP3    H122858   0.689   4.389   0.831  0.3447  0.4474 -0.6828
  481TIP3    H222859   0.774   4.269   0.797  0.3908  0.2343  0.1530
  482TIP3   OH222860   2.398   3.221  13.755  0.5885 -0.3651 -0.5092
  482TIP3    H122861   2.366   3.307  13.730  0.3617 -0.5176 -0.7408
  482TIP3    H222862   2.371   3.163  13.684 -1.4909 -1.1175  0.8286
  483TIP3   OH222863   6.161   1.196   2.676  0.3835  0.1357  0.3401
  483TIP3    H122864   6.117   1.242   2.604  0.1716 -1.1694 -0.4063
  483TIP3    H222865   6.227   1.258   2.707  0.5197  0.7215 -1.0141
  484TIP3   OH222866   6.658   6.799  14.983 -0.2281 -0.2350 -0.5645
  484TIP3    H122867   6.610   6.776  15.062 -0.9925 -0.9957 -1.2197
  484TIP3    H222868   6.590   6.823  14.920  0.4474  2.0925 -0.4952
  485TIP3   OH222869   3.613   1.447  11.979  0.4555 -0.2159  0.3640
  485TIP3    H122870   3.630   1.480  12.068 -3.1851 -1.2159  1.6176
  485TIP3    H222871   3.553   1.512  11.941  1.1250 -0.3665 -0.9745
  486TIP3   OH222872   4.846   2.735  13.418  0.3595  0.0998 -0.2818
  486TIP3    H122873   4.913   2.680  13.377 -0.2130 -1.1341  0.3851
  486TIP3    H222874   4.818   2.686  13.495 -2.7877 -0.4706 -1.6356
  487TIP3   OH222875   5.177   6.163   6.198 -0.4442  0.0049 -0.2368
  487TIP3    H122876   5.242   6.122   6.141 -0.6883 -0.2924 -0.3037
  487TIP3    H222877   5.225   6.233   6.242  0.6763 -1.9510  1.8559
  488TIP3   OH222878   4.776   3.552   0.702 -0.3853 -0.3759 -0.7367
  488TIP3    H122879   4.804   3.474   0.749  0.3491 -0.2545 -0.9474
  488TIP3    H222880   4.858   3.596   0.678 -0.7513 -0.1822 -1.6868
  489TIP3   OH222881   6.285   0.541   2.979  0.0454 -0.4659  0.2911
  489TIP3    H122882   6.237   0.476   2.927 -0.4689  1.1064 -1.3078
  489TIP3    H222883   6.217   0.587   3.028  0.1181  0.4521 -0.4521
  490TIP3   OH222884   1.981   1.408  12.165 -0.3183 -0.1262 -0.0761
  490TIP3    H122885   1.944   1.320  12.177  1.2164 -0.8853 -0.6871
  490TIP3    H222886   2.075   1.394  12.160 -0.0585  1.5526 -0.3982
  491TIP3   OH222887   4.197   4.076  14.729 -0.1442  0.5558  0.0663
  491TIP3    H122888   4.193   4.072  14.825 -0.2284  2.2986  0.1731
  491TIP3    H222889   4.262   4.144  14.711 -0.6889  0.7802 -1.1080
  492TIP3   OH222890   5.463   1.573   0.106 -0.6000 -0.2890 -0.1225
  492TIP3    H122891   5.519   1.505   0.143 -0.5993 -0.2256 -0.0086
  492TIP3    H222892   5.417   1.610   0.181  1.1569  1.4875  0.1671
  493TIP3   OH222893   1.264   4.959   2.292 -0.4224 -0.2335  0.5035
  493TIP3    H122894   1.230   5.048   2.302 -0.2174 -0.1986  0.9150
  493TIP3    H222895   1.291   4.933   2.380 -1.0066 -0.9207  0.4983
  494TIP3   OH222896   3.468   6.200  16.480 -0.4517  0.3634 -0.2439
  494TIP3    H122897   3.386   6.248  16.489 -1.0361 -0.4420 -1.1237
  494TIP3    H222898   3.534   6.267  16.462 -0.5107  1.2563  2.4639
  495TIP3   OH222899   5.321   2.890   3.984 -0.8735  0.5054 -0.7882
  495TIP3    H122900   5.272   2.829   3.929 -3.3114  0.1455  1.5593
  495TIP3    H222901   5.378   2.834   4.037 -1.5094  0.4478 -0.1539
  496TIP3   OH222902   0.139   0.034  13.144  0.1136 -0.4233 -0.2799
  496TIP3    H122903   0.222   0.040  13.192 -0.8544 -2.0526  1.7610
  496TIP3    H222904   0.136   0.114  13.092  1.4444  1.3577  2.1406
  497TIP3   OH222905   2.312   5.070  14.373  0.6735  0.2194 -0.7286
  497TIP3    H122906   2.368   5.087  14.449  0.4317  0.8095 -0.6717
  497TIP3    H222907   2.365   5.017  14.314  1.2136  0.5917 -0.5794
  498TIP3   OH222908   0.012   2.850   4.447 -0.0231 -0.3236  0.1035
  498TIP3    H122909  -0.032   2.784   4.393  0.9055 -0.2579 -0.7731
  498TIP3    H222910  -0.025   2.933   4.417 -1.2128 -0.4332  1.2271
  499TIP3   OH222911   3.064   1.495   2.210 -0.1697 -0.1785  0.0805
  499TIP3    H122912   2.978   1.461   2.236 -0.3976  0.3189 -0.0198
  499TIP3    H222913   3.123   1.468   2.281 -0.1080 -1.7820 -0.5418
  500TIP3   OH222914   2.175   5.740   1.481 -0.0977 -0.4616  0.0990
  500TIP3    H122915   2.249   5.797   1.459  0.7159 -1.2897  0.6334
  500TIP3    H222916   2.107   5.800   1.510  0.2212  0.3500 -0.7507
  501TIP3   OH222917   1.449   1.841   1.227 -0.4661 -0.3695 -0.8090
  501TIP3    H122918   1.485   1.789   1.155 -0.3851  0.5923 -1.4656
  501TIP3    H222919   1.392   1.905   1.185 -1.3687 -0.5595  0.0780
  502TIP3   OH222920   0.257   0.283  13.082 -0.2162  1.2791 -0.6930
  502TIP3    H122921   0.292   0.309  12.997 -1.0184  1.0379 -1.1062
  502TIP3    H222922   0.266   0.361  13.137  1.6862  0.9922 -0.5313
  503TIP3   OH222923   3.055   4.709   5.175 -0.3326 -0.4779 -0.6417
  503TIP3    H122924   3.030   4.799   5.154  0.1196 -0.4613 -1.1576
  503TIP3    H222925   2.986   4.677   5.232 -1.9504 -0.6936 -2.5836
  504TIP3   OH222926   0.347   3.624   4.226 -0.3761  0.3563  0.2011
  504TIP3    H122927   0.374   3.623   4.317  1.8515  0.1963 -0.4166
  504TIP3    H222928   0.279   3.692   4.222  0.9039  1.8057  1.6068
  505TIP3   OH222929   2.001   4.007   3.732 -0.5013  0.1572  0.3197
  505TIP3    H122930   2.059   3.938   3.766  0.4486  0.2017 -1.1425
  505TIP3    H222931   2.017   4.082   3.790 -0.1796 -0.2819  0.8149
  506TIP3   OH222932   5.375   3.591  12.667 -0.0798 -0.4235  0.1627
  506TIP3    H122933   5.436   3.663  12.683  0.9168 -1.4185  1.0958
  506TIP3    H222934   5.374   3.543  12.750 -0.9140 -1.3258 -0.3532
  507TIP3   OH222935   5.620   2.504   1.406  0.3295 -0.0284  0.2851
  507TIP3    H122936   5.554   2.573   1.397 -0.5962 -1.0003 -0.8697
  507TIP3    H222937   5.665   2.524   1.487  0.6070  2.3657 -0.3747
  508TIP3   OH222938   0.759   1.367   2.516 -0.0899  0.6299  0.3258
  508TIP3    H122939   0.735   1.291   2.463 -3.4863  1.6671  0.0693
  508TIP3    H222940   0.720   1.350   2.601  4.0524 -0.3379  2.2727
  509TIP3   OH222941   4.323   5.008   5.580 -0.5161  0.4250  0.1948
  509TIP3    H122942   4.385   4.963   5.523  1.5308 -0.9462  3.2691
  509TIP3    H222943   4.340   5.101   5.566 -0.5153  0.1612 -1.7913
  510TIP3   OH222944   6.761   3.970  16.781 -0.5256  0.3413 -0.5042
  510TIP3    H122945   6.756   3.941  16.872 -0.2322 -0.7141 -0.8064
  510TIP3    H222946   6.855   3.968  16.760 -0.4521  1.9986 -0.3961
  511TIP3   OH222947   5.928   0.647   0.037 -0.2276 -0.1491  0.5160
  511TIP3    H122948   5.845   0.600   0.032  0.9221 -2.2898  0.0016
  511TIP3    H222949   5.989   0.584   0.075  1.0133  1.6283  1.6174
  512TIP3   OH222950   3.459   5.558  13.681  0.0281 -0.3079 -0.2485
  512TIP3    H122951   3.381   5.509  13.709  0.4802 -0.0980  1.4911
  512TIP3    H222952   3.431   5.649  13.680  0.0881 -0.2893 -0.2444
  513TIP3   OH222953   6.135   0.829   4.936 -0.2921 -0.2875  0.7645
  513TIP3    H122954   6.151   0.750   4.884 -0.1548  0.7939 -0.9444
  513TIP3    H222955   6.211   0.837   4.993  0.5026 -0.5002 -0.2405
  514TIP3   OH222956   6.678   0.991   6.162 -0.1214  0.0739 -0.3572
  514TIP3    H122957   6.715   1.078   6.175  0.9634 -0.2306 -1.1901
  514TIP3    H222958   6.586   0.999   6.188  0.0631  1.3486 -0.0281
  515TIP3   OH222959   6.510   2.772  16.438  0.3052 -0.0076  0.1179
  515TIP3    H122960   6.491   2.842  16.500 -0.0023 -0.1846  0.2276
  515TIP3    H222961   6.492   2.691  16.487 -1.5377 -0.1417 -0.6886
  516TIP3   OH222962   2.871   0.754   0.708  0.1996 -0.0010  0.4698
  516TIP3    H122963   2.963   0.761   0.684 -0.4522 -1.3141 -2.9981
  516TIP3    H222964   2.839   0.844   0.704  0.4757  0.0703 -2.8687
  517TIP3   OH222965   1.719   0.114  15.477 -0.0875  0.3012  0.1993
  517TIP3    H122966   1.808   0.079  15.475 -0.0380  0.3658  1.0236
  517TIP3    H222967   1.731   0.209  15.489 -0.2672  0.2951  0.4391
  518TIP3   OH222968   0.033   4.392  16.576  0.1419  0.1082 -0.1685
  518TIP3    H122969   0.047   4.340  16.497 -0.9639  0.2479 -0.4725
  518TIP3    H222970   0.115   4.442  16.586  0.4887 -0.2778 -0.9407
  519TIP3   OH222971   2.558   3.005  16.833  0.5850 -0.3596  0.7327
  519TIP3    H122972   2.643   2.968  16.857  1.5518  0.9286 -0.6111
  519TIP3    H222973   2.555   3.000  16.738 -2.1567 -3.1261  0.7628
  520TIP3   OH222974   6.802   5.517  12.912  0.2024  0.1987  0.4065
  520TIP3    H122975   6.821   5.468  12.992 -0.7622  0.2206  0.6594
  520TIP3    H222976   6.861   5.593  12.915 -1.0695  1.1860  2.0319
  521TIP3   OH222977   4.566   1.872  14.116 -0.2462 -0.4665 -0.2218
  521TIP3    H122978   4.649   1.837  14.148 -1.5434 -2.7350  0.9130
  521TIP3    H222979   4.554   1.953  14.165  1.7330  0.4894 -1.1831
  522TIP3   OH222980   1.379   1.893   2.145 -0.1323  0.5381 -1.2247
  522TIP3    H122981   1.338   1.882   2.230 -0.2292  1.0270 -1.2034
  522TIP3    H222982   1.315   1.859   2.082 -0.7789  1.6834 -1.2278
  523TIP3   OH222983   5.344   2.293   5.458 -0.3229  0.1961 -0.8272
  523TIP3    H122984   5.410   2.350   5.419  1.9171 -1.1064  0.8179
  523TIP3    H222985   5.282   2.353   5.499  0.1552  1.4583 -1.8599
  524TIP3   OH222986   0.431   4.469   0.666  0.1609 -0.4033  0.9504
  524TIP3    H122987   0.429   4.484   0.761 -1.3673 -1.4744  1.1196
  524TIP3    H222988   0.432   4.373   0.657  1.1066 -0.3094 -0.1216
  525TIP3   OH222989   5.890   0.666   3.726  0.3800 -0.7000 -0.0264
  525TIP3    H122990   5.873   0.750   3.770 -0.4783 -0.5632 -0.5772
  525TIP3    H222991   5.806   0.644   3.686  0.9662 -1.1310 -1.0526
  526TIP3   OH222992   1.418   6.715  14.291 -0.1453 -0.1388 -0.5831
  526TIP3    H122993   1.389   6.655  14.360 -0.7131  0.2390 -0.4819
  526TIP3    H222994   1.338   6.759  14.263  0.4480  1.5795  0.3047
  527TIP3   OH222995   3.164   5.746  15.605 -0.4713  0.4104 -0.2423
  527TIP3    H122996   3.181   5.833  15.567  0.2689  0.5368  0.3579
  527TIP3    H222997   3.075   5.725  15.576 -0.6518  1.3554 -0.4292
  528TIP3   OH222998   0.310   6.098   1.783  0.0025  0.4116  0.2467
  528TIP3    H122999   0.399   6.116   1.811 -0.0816  0.6372  0.3652
  528TIP3    H223000   0.319   6.072   1.691  0.3891 -1.2644  0.7144
  529TIP3   OH223001   2.696   3.870   2.325  0.0772 -0.5968 -0.0654
  529TIP3    H123002   2.732   3.789   2.362  0.7780 -0.0024  0.5798
  529TIP3    H223003   2.670   3.846   2.236 -0.0360 -1.6151  0.2300
  530TIP3   OH223004   2.416   1.087   5.996  0.1100 -0.2659 -0.1594
  530TIP3    H123005   2.506   1.057   5.988 -0.2148 -1.4286  0.3048
  530TIP3    H223006   2.383   1.091   5.906  0.8014  0.8194 -0.3870
  531TIP3   OH223007   5.372   2.342   4.625 -0.1407  0.4731 -0.0573
  531TIP3    H123008   5.346   2.425   4.585 -2.1953 -0.9144 -1.8114
  531TIP3    H223009   5.296   2.285   4.615  1.1744 -1.6361  1.1257
  532TIP3   OH223010   6.238   3.764  15.912  0.4769 -0.5911  0.6326
  532TIP3    H123011   6.216   3.835  15.851  4.8971  1.3056  0.8475
  532TIP3    H223012   6.191   3.785  15.992  0.3284  1.1150  0.1311
  533TIP3   OH223013   0.819   1.060  12.346  0.5574  0.3129  0.4623
  533TIP3    H123014   0.830   0.979  12.396 -1.5072 -0.0451  0.4230
  533TIP3    H223015   0.865   1.127  12.397  0.0645 -0.3918  1.8529
  534TIP3   OH223016   5.559   1.514   4.479 -0.2621 -0.2139 -0.6702
  534TIP3    H123017   5.640   1.464   4.493 -1.8785 -2.7701  0.1915
  534TIP3    H223018   5.529   1.538   4.567 -1.3726 -0.9120 -0.8418
  535TIP3   OH223019   2.402   2.086  13.880 -0.4328 -0.3054  0.4679
  535TIP3    H123020   2.343   2.114  13.810  0.5511  3.0780  0.8323
  535TIP3    H223021   2.368   2.130  13.958  0.4184 -1.3609  1.4610
  536TIP3   OH223022   1.491   1.971   2.984 -0.4751  0.6642 -0.7074
  536TIP3    H123023   1.475   1.978   3.078 -1.8454  0.5735 -0.9199
  536TIP3    H223024   1.446   2.046   2.946 -1.8751 -0.5346 -1.4978
  537TIP3   OH223025   1.572   3.255   4.837  0.0180  0.6338 -0.2856
  537TIP3    H123026   1.505   3.239   4.904  0.2527 -0.0434 -0.2078
  537TIP3    H223027   1.593   3.168   4.803  0.7551  0.8516 -0.4099
  538TIP3   OH223028   4.954   2.392  12.142  0.4219 -0.4813  0.0534
  538TIP3    H123029   4.903   2.456  12.192  1.7405  0.2341  0.5304
  538TIP3    H223030   5.043   2.427  12.141  1.0611 -2.0060 -0.1884
  539TIP3   OH223031   6.622   4.425   1.951  0.2852  0.1571 -0.3444
  539TIP3    H123032   6.600   4.350   1.897  0.8244 -0.3152  0.0872
  539TIP3    H223033   6.590   4.403   2.039  2.8191 -0.7568  0.4156
  540TIP3   OH223034   4.274   4.693  11.437 -0.1562 -0.2220 -0.2289
  540TIP3    H123035   4.351   4.710  11.383  0.6803 -1.1155  0.6653
  540TIP3    H223036   4.216   4.767  11.419  2.4519  2.5933  1.9144
  541TIP3   OH223037   3.471   3.402  15.569 -0.6747  0.1937 -0.5176
  541TIP3    H123038   3.474   3.308  15.586 -0.3229 -0.0295 -1.7112
  541TIP3    H223039   3.497   3.443  15.652 -1.4903 -0.7329  0.2086
  542TIP3   OH223040   2.348   5.256   0.518 -0.3428 -0.0269 -0.2570
  542TIP3    H123041   2.438   5.228   0.499 -0.7658 -1.8508  0.2369
  542TIP3    H223042   2.300   5.234   0.438 -0.5603 -0.0664 -0.1138
  543TIP3   OH223043   1.615   5.469   3.317  0.5534  0.1237 -0.3602
  543TIP3    H123044   1.650   5.553   3.287 -1.2987  1.2203  0.4447
  543TIP3    H223045   1.589   5.484   3.407 -1.6038 -0.7426 -0.7914
  544TIP3   OH223046   6.801   4.019  15.380  0.4040 -0.2870  0.2473
  544TIP3    H123047   6.716   3.975  15.386  0.3595 -0.5993 -1.7279
  544TIP3    H223048   6.782   4.101  15.333  1.3247 -0.9281 -1.3376
  545TIP3   OH223049   2.391   4.694  14.325  0.1142 -0.1165  0.0160
  545TIP3    H123050   2.403   4.690  14.420 -0.7095 -1.2008  0.0860
  545TIP3    H223051   2.303   4.661  14.310 -0.7474  2.3709 -0.9361
  546TIP3   OH223052   0.209   0.526   6.066  0.4981  0.2690 -0.3102
  546TIP3    H123053   0.279   0.531   6.001  0.0448 -0.4070 -0.8623
  546TIP3    H223054   0.195   0.433   6.079 -0.4922  0.3905 -0.4264
  547TIP3   OH223055   3.760   4.072  14.654 -0.0435 -0.3264  0.1759
  547TIP3    H123056   3.720   4.122  14.725 -0.6730 -1.0323  0.3334
  547TIP3    H223057   3.770   4.135  14.583 -0.0190  0.2291  0.6643
  548TIP3   OH223058   6.230   0.232   1.089 -0.4872 -0.3033  0.4139
  548TIP3    H123059   6.183   0.293   1.146 -2.1550 -0.7598 -0.3842
  548TIP3    H223060   6.244   0.281   1.008 -1.5484 -0.8378 -0.1153
  549TIP3   OH223061   4.287   4.054   6.188 -0.7876 -0.5954  0.4868
  549TIP3    H123062   4.270   4.146   6.166 -1.3841 -0.8128  0.0034
  549TIP3    H223063   4.277   4.050   6.283 -0.1304 -0.0365  0.5885
  550TIP3   OH223064   3.485   4.857   3.533 -0.0839  0.1316 -0.4080
  550TIP3    H123065   3.436   4.875   3.613 -0.2627  0.8070 -0.6544
  550TIP3    H223066   3.486   4.762   3.526 -1.7868  0.0900 -0.6432
  551TIP3   OH223067   3.483   6.485  10.826 -0.0847  0.8905  0.1422
  551TIP3    H123068   3.548   6.418  10.804  0.2407  0.7563  1.4365
  551TIP3    H223069   3.436   6.501  10.744 -1.7470 -2.6058  0.2187
  552TIP3   OH223070   4.833   3.582   4.518  0.3301  0.3694 -0.8500
  552TIP3    H123071   4.770   3.655   4.518  0.8982  0.8635 -1.3326
  552TIP3    H223072   4.838   3.556   4.610 -1.7157 -0.6741 -0.9907
  553TIP3   OH223073   1.097   0.545  16.294  0.0195  0.2561  0.1329
  553TIP3    H123074   1.171   0.504  16.339  1.2479  2.0463 -0.1284
  553TIP3    H223075   1.035   0.566  16.364  0.2985 -0.1918  0.5199
  554TIP3   OH223076   2.345   0.750  14.605 -0.2705  0.0453  0.6559
  554TIP3    H123077   2.349   0.845  14.614  1.7201 -0.0125  0.6924
  554TIP3    H223078   2.430   0.725  14.569 -0.9429 -1.6868  0.1488
  555TIP3   OH223079   4.879   2.709  15.571 -0.0204 -0.2913  0.6173
  555TIP3    H123080   4.820   2.737  15.501  1.8777  1.2473 -0.4943
  555TIP3    H223081   4.942   2.652  15.528  2.0922  1.8925  0.6317
  556TIP3   OH223082   4.512   0.957   3.359 -0.3278 -0.3786  0.0094
  556TIP3    H123083   4.574   0.980   3.429 -1.0348  0.3083  0.4240
  556TIP3    H223084   4.427   0.984   3.392 -0.6394  0.2879 -1.2496
  557TIP3   OH223085   1.547   6.370   2.113 -0.0321  0.5931 -0.4040
  557TIP3    H123086   1.481   6.382   2.045  1.1754 -0.2856 -1.8024
  557TIP3    H223087   1.617   6.431   2.089  0.6166 -0.0789 -0.2490
  558TIP3   OH223088   3.404   0.498  15.658 -0.0363 -0.0354 -0.8257
  558TIP3    H123089   3.479   0.555  15.641 -0.2123 -0.0254 -1.5538
  558TIP3    H223090   3.402   0.490  15.754  0.3999  0.6184 -0.7596
  559TIP3   OH223091   2.805   5.975   2.583 -0.1985  0.2033  0.0056
  559TIP3    H123092   2.875   5.910   2.574  0.6904  0.9135  1.3083
  559TIP3    H223093   2.844   6.057   2.551 -0.5986  0.4962  0.2549
  560TIP3   OH223094   0.462   0.255  11.207  0.3236  0.0902 -0.4430
  560TIP3    H123095   0.517   0.332  11.198  1.7400 -0.8009  0.1489
  560TIP3    H223096   0.453   0.221  11.118 -0.1360  0.7964 -0.6768
  561TIP3   OH223097   3.267   0.568  16.540 -0.2276 -0.0716 -0.2919
  561TIP3    H123098   3.172   0.567  16.523 -0.3852 -1.3412  0.5567
  561TIP3    H223099   3.281   0.648  16.591 -0.6482  0.7002 -1.3387
  562TIP3   OH223100   0.530   4.137   3.328  0.1284  0.6435  0.4981
  562TIP3    H123101   0.511   4.207   3.391 -0.8136  0.6413  0.2336
  562TIP3    H223102   0.527   4.181   3.243  1.3277  0.6335  0.4469
  563TIP3   OH223103   4.345   1.974   1.906  0.4498  0.1383 -0.2778
  563TIP3    H123104   4.432   1.991   1.871  0.8112 -0.1300  0.4564
  563TIP3    H223105   4.303   2.060   1.908  0.4543  0.1658 -1.2616
  564TIP3   OH223106   4.888   1.812   0.291 -0.1362  0.4431 -0.0968
  564TIP3    H123107   4.802   1.844   0.263 -0.5857 -1.0686 -0.5631
  564TIP3    H223108   4.871   1.723   0.322  1.1582  0.3666  0.4342
  565TIP3   OH223109   5.727   4.143   0.938  0.2210  0.3285 -0.1735
  565TIP3    H123110   5.733   4.215   0.875 -0.7908  0.4369 -0.1646
  565TIP3    H223111   5.659   4.171   1.000  1.7806  0.6336  1.5125
  566TIP3   OH223112   3.040   1.224  13.382  0.3097  0.1045 -0.3198
  566TIP3    H123113   2.947   1.227  13.404  0.3241  0.4441 -0.2963
  566TIP3    H223114   3.082   1.279  13.448  1.0906 -3.4218  2.4312
  567TIP3   OH223115   5.268   3.507  15.664 -0.2129 -0.2133 -0.2043
  567TIP3    H123116   5.353   3.480  15.698 -0.0106  0.4182 -0.1873
  567TIP3    H223117   5.286   3.591  15.620 -0.6841 -0.4482 -0.8600
  568TIP3   OH223118   2.969   6.009   0.684 -0.2342  0.5479 -0.1252
  568TIP3    H123119   2.874   5.999   0.688 -0.4685  2.4866  0.4650
  568TIP3    H223120   2.996   6.025   0.775  0.3591  1.9529 -0.5105
  569TIP3   OH223121   3.412   5.564   0.892 -0.0313 -0.7782 -0.5454
  569TIP3    H123122   3.461   5.532   0.968  1.2495 -1.4940 -1.6352
  569TIP3    H223123   3.341   5.616   0.930  0.8775 -0.6814  1.1297
  570TIP3   OH223124   1.971   5.135   5.524 -0.1912 -0.1652  0.3797
  570TIP3    H123125   2.032   5.136   5.598 -1.1883 -0.7168  1.2290
  570TIP3    H223126   1.886   5.117   5.563 -1.2053  2.0824 -0.5655
  571TIP3   OH223127   0.465   3.604   2.554  0.1728 -0.2077 -0.0229
  571TIP3    H123128   0.401   3.650   2.608  0.9028  0.1092  0.5912
  571TIP3    H223129   0.542   3.661   2.553  0.5993 -0.7712 -0.3948
  572TIP3   OH223130   2.065   1.983  14.729 -0.4943 -0.3586  0.7565
  572TIP3    H123131   2.106   2.014  14.648 -0.8237  2.0582  1.4305
  572TIP3    H223132   2.129   1.923  14.766 -0.7628 -2.3523 -1.7322
  573TIP3   OH223133   4.440   2.558   2.700  0.2527  0.0884  1.0325
  573TIP3    H123134   4.402   2.498   2.636 -1.4673  1.1887  0.9559
  573TIP3    H223135   4.382   2.553   2.776 -0.6503  2.4488  0.5899
  574TIP3   OH223136   3.227   1.436   2.439 -0.1912  0.0021  0.2450
  574TIP3    H123137   3.280   1.500   2.487  0.4147 -0.2574 -0.0632
  574TIP3    H223138   3.290   1.370   2.410 -0.3179  0.8361 -2.0502
  575TIP3   OH223139   1.165   3.458   1.720 -0.0377 -0.3698  0.3177
  575TIP3    H123140   1.138   3.506   1.641 -0.7860  0.3606  0.9968
  575TIP3    H223141   1.260   3.450   1.712 -0.2518 -1.5651 -1.3494
  576TIP3   OH223142   4.772   6.409  16.195 -0.6885  0.1473  0.7721
  576TIP3    H123143   4.784   6.346  16.266  3.1905  1.1392  1.1908
  576TIP3    H223144   4.684   6.389  16.161 -0.8933 -3.3904  2.8178
  577TIP3   OH223145   6.072   5.010  15.256 -0.5231  0.0895 -0.0018
  577TIP3    H123146   6.125   5.086  15.234 -0.3623 -0.1793 -0.5353
  577TIP3    H223147   6.115   4.936  15.214 -0.4791 -0.3584  0.8111
  578TIP3   OH223148   0.599   3.281   0.306  0.3103  0.3145 -0.1784
  578TIP3    H123149   0.513   3.264   0.345 -0.7876  3.9402 -0.6639
  578TIP3    H223150   0.581   3.345   0.237  3.2436 -0.0083 -1.3517
  579TIP3   OH223151   6.404   1.600   3.500 -0.1668 -0.0189  0.4254
  579TIP3    H123152   6.413   1.695   3.496  0.4567 -0.0691  0.6208
  579TIP3    H223153   6.317   1.583   3.463 -0.0898  0.5905 -0.0558
  580TIP3   OH223154   1.271   5.378  11.713  0.2801  0.0578  0.3181
  580TIP3    H123155   1.339   5.354  11.650 -0.2602 -2.7317  0.6719
  580TIP3    H223156   1.317   5.385  11.796  0.4459  0.1983  0.2155
  581TIP3   OH223157   4.386   4.932  13.297  0.0924  0.2123  0.5717
  581TIP3    H123158   4.471   4.894  13.319 -0.1609  0.1940  1.5509
  581TIP3    H223159   4.403   5.027  13.291  0.0957  0.2514  1.1876
  582TIP3   OH223160   4.103   2.123   2.600  0.4358 -0.1462  0.2894
  582TIP3    H123161   4.132   2.046   2.552  1.2328 -0.0934  0.6710
  582TIP3    H223162   4.119   2.101   2.692 -1.4077 -0.3957  0.5905
  583TIP3   OH223163   0.963   2.315   4.027  0.5372 -0.1905 -0.5917
  583TIP3    H123164   0.929   2.253   4.092  0.4076  0.7397  0.2623
  583TIP3    H223165   1.028   2.366   4.075  1.0175 -0.0009 -1.4254
  584TIP3   OH223166   5.755   4.409   3.993  0.0604 -0.3280 -0.2119
  584TIP3    H123167   5.830   4.389   4.049 -0.0686 -0.8941 -0.2317
  584TIP3    H223168   5.687   4.348   4.023 -0.6426  0.6920  0.3220
  585TIP3   OH223169   0.037   3.062  15.196  0.4402 -0.2792  0.0840
  585TIP3    H123170   0.025   3.154  15.221  1.6144 -0.4804  1.4860
  585TIP3    H223171  -0.052   3.028  15.187 -0.0338  0.3375  2.0913
  586TIP3   OH223172   0.900   3.015  16.950  0.0854 -0.0223 -0.2916
  586TIP3    H123173   0.941   3.092  16.989 -0.0480  0.8323 -1.7568
  586TIP3    H223174   0.825   3.049  16.901 -0.1684 -1.1104 -0.6979
  587TIP3   OH223175   0.879   5.203  16.835  0.0222 -0.2003 -0.6391
  587TIP3    H123176   0.854   5.291  16.865 -1.3590 -1.5917  2.8751
  587TIP3    H223177   0.975   5.202  16.844 -0.1820 -0.0987  3.1365
  588TIP3   OH223178   2.344   2.581   4.153 -0.5009  0.2609 -1.1172
  588TIP3    H123179   2.403   2.520   4.198  0.7424  0.8763 -1.8562
  588TIP3    H223180   2.337   2.656   4.211  0.9021  0.9467 -1.7784
  589TIP3   OH223181   2.295   3.009  12.264 -0.0204  0.3048 -0.4892
  589TIP3    H123182   2.248   3.092  12.257  0.9767  0.9586  0.2675
  589TIP3    H223183   2.313   3.000  12.358 -0.2169 -0.8280 -0.5495
  590TIP3   OH223184   5.552   1.581  12.333  0.4424  0.6060 -0.3156
  590TIP3    H123185   5.514   1.538  12.256  0.2092 -0.1778  0.2188
  590TIP3    H223186   5.512   1.668  12.335  0.3782  0.5994 -1.0174
  591TIP3   OH223187   0.893   2.781  15.527  0.4063  0.0975  0.0075
  591TIP3    H123188   0.845   2.762  15.608  2.3597 -0.9659  0.9889
  591TIP3    H223189   0.874   2.873  15.509 -2.0213 -0.2878  0.2625
  592TIP3   OH223190   6.805   6.770   5.768 -0.5514 -0.9157 -0.3801
  592TIP3    H123191   6.818   6.709   5.841  0.2951 -1.6178 -1.0927
  592TIP3    H223192   6.771   6.849   5.809 -2.3294 -2.0705  0.4826
  593TIP3   OH223193   3.156   0.352  13.887  0.7129  0.2629  0.5014
  593TIP3    H123194   3.170   0.440  13.853 -0.2728  0.5735  0.8485
  593TIP3    H223195   3.115   0.366  13.973  0.0965 -0.5265  0.3507
  594TIP3   OH223196   5.105   2.016   0.824  0.4683 -0.4736 -0.0667
  594TIP3    H123197   5.064   1.974   0.749  0.3688 -0.7337  0.1324
  594TIP3    H223198   5.196   1.985   0.823  0.3635 -0.7878  0.1496
  595TIP3   OH223199   1.322   0.439   4.777  0.1080 -0.2389  0.4538
  595TIP3    H123200   1.283   0.523   4.801 -0.4306 -0.9254  2.1447
  595TIP3    H223201   1.267   0.374   4.821  0.3687 -1.4995 -1.0089
  596TIP3   OH223202   0.769   2.207   3.857 -0.4771 -0.4255  0.1572
  596TIP3    H123203   0.684   2.250   3.843 -0.4444 -0.2177  0.5922
  596TIP3    H223204   0.814   2.263   3.920 -0.0542 -0.5929  0.0089
  597TIP3   OH223205   4.878   6.729   0.146 -0.2667  0.2879 -0.1204
  597TIP3    H123206   4.800   6.674   0.157 -0.8779  1.3228  0.9673
  597TIP3    H223207   4.887   6.740   0.051 -2.2795  1.2929 -0.2304
  598TIP3   OH223208   1.739   4.035   1.126  0.2393 -0.4595 -0.3389
  598TIP3    H123209   1.814   3.978   1.107  0.4233 -0.0914 -0.7451
  598TIP3    H223210   1.769   4.122   1.101 -0.0962 -0.2073  0.1295
  599TIP3   OH223211   1.020   0.210   1.413  0.3874  0.6374  0.6246
  599TIP3    H123212   0.959   0.207   1.339  2.4921  0.7456 -1.2430
  599TIP3    H223213   1.015   0.122   1.451  0.6183 -0.0622 -0.8781
  600TIP3   OH223214   4.249   0.894   0.904 -0.4383 -0.1396 -0.6439
  600TIP3    H123215   4.193   0.832   0.857 -0.3659 -0.3694 -0.4309
  600TIP3    H223216   4.263   0.854   0.990  0.0551 -0.0881 -0.6957
  601TIP3   OH223217   3.860   5.994  12.137  0.0055  0.7335 -0.6030
  601TIP3    H123218   3.858   6.069  12.078 -0.7180  0.7524 -0.5571
  601TIP3    H223219   3.910   6.024  12.213 -0.0002  1.0575 -0.7270
  602TIP3   OH223220   2.463   5.358  11.485 -0.0600 -1.2132 -0.0234
  602TIP3    H123221   2.371   5.333  11.475 -0.9609  1.6509  0.1661
  602TIP3    H223222   2.488   5.391  11.399  0.3172 -0.6189  0.3128
  603TIP3   OH223223   2.895   2.758   5.163 -0.7748 -0.0964  0.0143
  603TIP3    H123224   2.893   2.852   5.144 -0.0266  0.2597  1.5547
  603TIP3    H223225   2.985   2.740   5.189 -0.4047 -1.6741 -2.1155
  604TIP3   OH223226   3.580   0.777  14.397 -0.0073  0.1879 -0.1065
  604TIP3    H123227   3.551   0.732  14.476 -0.0227  1.1954  0.4821
  604TIP3    H223228   3.500   0.791  14.346 -0.3432  1.4295  0.7123
  605TIP3   OH223229   2.798   1.424   2.949 -0.0720  0.6002 -0.2268
  605TIP3    H123230   2.885   1.459   2.929 -0.0398  0.9167  0.4373
  605TIP3    H223231   2.751   1.428   2.866 -0.5469  3.5987  0.0485
  606TIP3   OH223232   3.226   6.348  16.019 -0.2305  0.1519  0.2803
  606TIP3    H123233   3.184   6.329  15.935 -1.0419  1.5920  0.3235
  606TIP3    H223234   3.154   6.350  16.082 -0.2680  3.0805  0.2949
  607TIP3   OH223235   0.546   6.144  10.764  0.6703  0.2409 -0.9878
  607TIP3    H123236   0.581   6.208  10.702 -1.8245  0.5195 -2.2206
  607TIP3    H223237   0.567   6.059  10.725  1.4084  0.3573 -0.8536
  608TIP3   OH223238   5.637   2.323   0.565  0.0498 -0.5819  0.0476
  608TIP3    H123239   5.718   2.291   0.604 -1.8648 -2.5287  2.7995
  608TIP3    H223240   5.596   2.375   0.634 -1.1688  0.1967 -1.2042
  609TIP3   OH223241   6.732   0.531   6.629  0.5371 -0.0368 -0.0136
  609TIP3    H123242   6.773   0.531   6.542  0.0875  1.8956 -0.2781
  609TIP3    H223243   6.763   0.612   6.670  1.2988 -1.2516  1.9368
  610TIP3   OH223244   0.980   3.571  12.197  0.0644 -0.0636 -0.5692
  610TIP3    H123245   0.910   3.636  12.204  0.0833 -0.1864  1.6674
  610TIP3    H223246   0.946   3.494  12.243  2.1583  0.4124  1.9967
  611TIP3   OH223247   6.680   4.579   1.405  0.3000  0.0666 -0.4219
  611TIP3    H123248   6.700   4.668   1.376  0.0707  0.3253  0.2062
  611TIP3    H223249   6.741   4.562   1.476  0.2774 -0.2424 -0.4748
  612TIP3   OH223250   1.966   1.003  15.114  0.1729 -0.6334  0.2589
  612TIP3    H123251   1.994   1.057  15.188  0.6236 -1.6075  0.8351
  612TIP3    H223252   1.883   1.041  15.086  0.5064  0.3754  0.6019
  613TIP3   OH223253   6.076   3.189   4.799  0.7079  0.1230 -0.3223
  613TIP3    H123254   6.142   3.154   4.858  0.9749 -1.8394 -1.6736
  613TIP3    H223255   6.056   3.276   4.833  1.1129 -0.7667  2.3788
  614TIP3   OH223256   2.483   3.969   5.336 -0.5172  0.2153 -0.0006
  614TIP3    H123257   2.546   4.038   5.316  0.6510 -0.8384 -0.0096
  614TIP3    H223258   2.429   3.962   5.258  0.7131 -0.3178 -0.8277
  615TIP3   OH223259   3.836   5.025   1.747 -0.7445  0.1559 -0.3786
  615TIP3    H123260   3.851   5.080   1.824 -0.3866  1.1795 -1.1634
  615TIP3    H223261   3.750   5.053   1.714 -0.2932  0.6777 -1.1274
  616TIP3   OH223262   0.705   2.745   0.620 -0.0857 -0.8356  0.1430
  616TIP3    H123263   0.727   2.826   0.667 -1.8270 -0.5694  0.5557
  616TIP3    H223264   0.770   2.682   0.651  0.6049  0.1080  0.6788
  617TIP3   OH223265   2.433   1.706   1.531 -0.2922  0.0664 -0.2074
  617TIP3    H123266   2.418   1.659   1.449 -0.0501  0.5455 -0.5343
  617TIP3    H223267   2.523   1.685   1.554 -0.7794 -1.1402  0.6502
  618TIP3   OH223268   6.700   6.805   2.819 -0.3174  0.0186 -0.6998
  618TIP3    H123269   6.708   6.729   2.876  0.8692 -2.0695 -3.3767
  618TIP3    H223270   6.791   6.830   2.799 -0.6941  1.2862 -0.9012
  619TIP3   OH223271   3.328   4.885  16.479 -0.0077  0.2214  0.1090
  619TIP3    H123272   3.393   4.951  16.504  0.0417  0.1237  0.2362
  619TIP3    H223273   3.306   4.908  16.388  1.3004 -0.6130 -0.4584
  620TIP3   OH223274   3.910   4.197   1.648  0.7099 -0.0623  0.1939
  620TIP3    H123275   3.897   4.238   1.562 -2.0958 -1.0956  0.0374
  620TIP3    H223276   3.945   4.268   1.703  1.0115  1.0600 -1.3597
  621TIP3   OH223277   2.115   2.918   2.177 -0.4694  0.2242 -0.0590
  621TIP3    H123278   2.044   2.969   2.216  1.0071  0.9247  1.8605
  621TIP3    H223279   2.104   2.830   2.213 -1.0446  0.0170 -0.7196
  622TIP3   OH223280   0.707   5.964   1.506  0.0136  0.1768 -0.1989
  622TIP3    H123281   0.730   5.955   1.599 -0.1528  0.4602 -0.1316
  622TIP3    H223282   0.778   6.015   1.469 -0.3268  0.7654 -0.0586
  623TIP3   OH223283   1.554   4.068   1.942  0.2820 -0.0981  0.5644
  623TIP3    H123284   1.486   4.001   1.956 -0.9932  1.0202 -0.1232
  623TIP3    H223285   1.552   4.085   1.848 -0.4302  1.9214  0.9055
  624TIP3   OH223286   2.551   1.895  11.058  0.0945 -0.1611 -0.2951
  624TIP3    H123287   2.624   1.954  11.077 -0.7627  0.4966  1.1224
  624TIP3    H223288   2.474   1.940  11.093 -0.7673 -1.5602 -0.3219
  625TIP3   OH223289   0.323   3.104   2.196 -0.4725  0.1911  0.1917
  625TIP3    H123290   0.243   3.067   2.158  0.1256 -0.6312 -0.3131
  625TIP3    H223291   0.394   3.054   2.155  0.2763  0.5469  1.0246
  626TIP3   OH223292   2.910   0.581  11.476  0.5007  0.1903  0.2879
  626TIP3    H123293   2.886   0.629  11.555  0.2543 -0.7819  0.8199
  626TIP3    H223294   2.991   0.623  11.447  0.2733  0.9487  0.7095
  627TIP3   OH223295   2.067   1.598   6.321  0.1199  0.2519 -0.2511
  627TIP3    H123296   1.991   1.551   6.356 -1.0526  1.3414 -1.2594
  627TIP3    H223297   2.130   1.598   6.393 -0.8347 -0.6459  0.6221
  628TIP3   OH223298   3.483   6.159   1.514 -0.9109 -0.0814  0.7396
  628TIP3    H123299   3.429   6.117   1.447 -0.8378 -0.9042  1.1783
  628TIP3    H223300   3.483   6.252   1.491  1.2456 -0.6206 -1.9505
  629TIP3   OH223301   3.414   2.092   0.190 -0.5735  0.1051 -0.2219
  629TIP3    H123302   3.342   2.148   0.162 -0.1889 -0.0594 -1.6071
  629TIP3    H223303   3.480   2.153   0.223 -0.1756  0.4950 -1.6820
  630TIP3   OH223304   6.038   0.538   5.215 -0.2580  0.3900  0.1267
  630TIP3    H123305   6.012   0.534   5.123  1.0383 -1.0134 -0.2335
  630TIP3    H223306   6.114   0.596   5.216 -0.2504  0.3765  0.3029
  631TIP3   OH223307   2.749   0.098  13.998 -0.4574 -0.4046 -0.4545
  631TIP3    H123308   2.725   0.191  13.998 -0.3679 -0.3824 -0.2370
  631TIP3    H223309   2.836   0.096  13.959 -1.5345 -0.6728 -3.0866
  632TIP3   OH223310   0.689   0.926   0.303  0.1999 -0.3000 -0.7232
  632TIP3    H123311   0.609   0.876   0.286  1.1432 -1.9722 -0.5125
  632TIP3    H223312   0.700   0.924   0.398  0.4215  0.0333 -0.7388
  633TIP3   OH223313   5.449   4.207  12.232 -0.1051 -0.2837  0.1932
  633TIP3    H123314   5.429   4.116  12.208  0.2880 -1.2877  3.2355
  633TIP3    H223315   5.365   4.252  12.230 -0.2121 -0.4461 -2.0181
  634TIP3   OH223316   4.086   1.346  11.518  0.2552 -0.1679 -0.2768
  634TIP3    H123317   4.166   1.314  11.560  0.3379 -1.1460 -1.1158
  634TIP3    H223318   4.015   1.301  11.563  0.1824  0.6072  0.3876
  635TIP3   OH223319   1.116   6.210  11.429  0.1085  0.3980  0.3225
  635TIP3    H123320   1.165   6.260  11.364  0.7276  0.3627  0.7545
  635TIP3    H223321   1.125   6.119  11.401  3.2717 -0.0421  2.2342
  636TIP3   OH223322   4.175   2.015  16.453  0.5142  0.0116 -0.5196
  636TIP3    H123323   4.172   2.043  16.362  3.3990 -1.0273 -1.0135
  636TIP3    H223324   4.141   1.926  16.452  0.3491  0.0718 -0.5023
  637TIP3   OH223325   1.343   3.733   3.850 -0.4807  0.1912 -0.5126
  637TIP3    H123326   1.289   3.794   3.801  0.6988  0.7027 -1.2115
  637TIP3    H223327   1.296   3.649   3.845 -0.9745  0.5161 -1.4787
  638TIP3   OH223328   3.664   4.216   3.604  0.2075 -0.0778 -0.1620
  638TIP3    H123329   3.730   4.147   3.599  0.8683  0.6092 -1.6094
  638TIP3    H223330   3.686   4.275   3.532 -1.9055  0.2582 -0.6003
  639TIP3   OH223331   0.700   1.445  16.514 -0.0296  0.0104 -0.7037
  639TIP3    H123332   0.732   1.427  16.602 -0.3923  1.6009 -0.2159
  639TIP3    H223333   0.777   1.480  16.468 -0.2922  0.9990 -0.4215
  640TIP3   OH223334   4.184   2.549  11.266  0.4593 -0.2990 -0.3597
  640TIP3    H123335   4.099   2.507  11.255  0.8454 -0.9911 -0.8071
  640TIP3    H223336   4.165   2.643  11.267 -0.0981 -0.3118 -2.7460
  641TIP3   OH223337   0.493   5.589  11.639 -0.3984  0.1014 -0.8679
  641TIP3    H123338   0.418   5.540  11.673 -1.0299  2.1954  0.9683
  641TIP3    H223339   0.542   5.615  11.717  1.6505 -0.2223 -1.9657
  642TIP3   OH223340   4.028   0.846   0.681  0.6523 -0.2390 -0.0591
  642TIP3    H123341   4.000   0.795   0.605  1.2787 -1.3335  0.4182
  642TIP3    H223342   4.104   0.896   0.650  0.8172 -0.5708 -0.1947
  643TIP3   OH223343   4.340   3.217   2.675  0.2187 -0.9543  0.0656
  643TIP3    H123344   4.404   3.207   2.746 -0.2634 -2.6864  0.2929
  643TIP3    H223345   4.259   3.239   2.720  0.1938 -0.7516 -0.0742
  644TIP3   OH223346   2.630   0.434   2.332 -0.0819  0.0070 -0.1771
  644TIP3    H123347   2.642   0.529   2.332  1.6139 -0.1736 -0.4182
  644TIP3    H223348   2.572   0.418   2.407 -0.5896  1.2465 -0.2820
  645TIP3   OH223349   0.156   0.831   0.141  0.2257  0.5407 -0.4423
  645TIP3    H123350   0.243   0.871   0.143 -0.2292  1.6964 -1.9080
  645TIP3    H223351   0.166   0.752   0.089  0.9616 -0.9702  1.8153
  646TIP3   OH223352   3.351   3.577  13.989 -0.0602  1.2087 -0.1289
  646TIP3    H123353   3.432   3.566  13.940  0.2073 -0.8444  0.6524
  646TIP3    H223354   3.376   3.627  14.067  0.8759 -0.7947  0.9268
  647TIP3   OH223355   4.098   4.752   6.114 -0.8648  0.3396  0.5124
  647TIP3    H123356   4.134   4.664   6.122 -1.1035  0.1812 -0.1527
  647TIP3    H223357   4.028   4.755   6.180 -2.5017 -0.8120 -1.0699
  648TIP3   OH223358   5.963   5.752   5.139 -0.2061 -0.2281 -0.0361
  648TIP3    H123359   5.980   5.844   5.160  1.4098 -0.2288 -1.1695
  648TIP3    H223360   5.964   5.708   5.224  0.2465  0.6233  0.4122
  649TIP3   OH223361   0.087   3.188  12.955 -0.7045  0.6887 -0.0769
  649TIP3    H123362   0.036   3.170  13.034 -1.5143  1.7339 -0.3359
  649TIP3    H223363   0.041   3.261  12.912  0.9670  1.6403 -0.3561
  650TIP3   OH223364   2.305   3.381  14.767  0.0251  0.0963 -0.5335
  650TIP3    H123365   2.285   3.291  14.742  0.2980  0.2181 -1.2282
  650TIP3    H223366   2.280   3.433  14.690 -1.7467  0.8163  0.4797
  651TIP3   OH223367   1.160   5.770   4.059  0.4364  0.0521  0.1499
  651TIP3    H123368   1.167   5.836   4.128  0.5089  2.8144 -2.3063
  651TIP3    H223369   1.071   5.734   4.069  0.2663  0.7729  1.3402
  652TIP3   OH223370   6.262   4.552   0.189  0.3689 -0.1646 -0.0525
  652TIP3    H123371   6.235   4.514   0.105 -0.5993  1.0399 -0.3115
  652TIP3    H223372   6.237   4.644   0.183  2.6347  0.5569  0.5601
  653TIP3   OH223373   1.912   3.613  16.456 -0.0203 -0.0713 -0.2435
  653TIP3    H123374   1.909   3.528  16.500  2.8695 -0.0399  0.2409
  653TIP3    H223375   1.846   3.666  16.500 -1.3361 -1.8093 -0.0351
  654TIP3   OH223376   4.440   3.183   3.562  0.1296  0.0277 -0.0799
  654TIP3    H123377   4.355   3.217   3.590 -1.0528 -2.6976 -0.0124
  654TIP3    H223378   4.468   3.242   3.493 -2.6153  0.1697 -1.2213
  655TIP3   OH223379   5.916   0.651  16.444 -0.0889  0.8327  0.3581
  655TIP3    H123380   5.861   0.615  16.374  0.5431  0.5839 -0.0166
  655TIP3    H223381   5.936   0.576  16.500  0.5478  0.7459  0.0289
  656TIP3   OH223382   4.951   1.715  16.085 -0.5972  0.2594 -0.3321
  656TIP3    H123383   4.999   1.698  16.005 -0.0080  0.7586 -0.0940
  656TIP3    H223384   4.867   1.669  16.074 -1.9108  2.9214 -2.6028
  657TIP3   OH223385   3.769   3.333  14.351  0.5235 -0.2542 -0.5626
  657TIP3    H123386   3.749   3.383  14.430  0.1317  0.0122 -0.8278
  657TIP3    H223387   3.690   3.341  14.297  1.5681  1.3919 -1.9335
  658TIP3   OH223388   1.114   5.726  16.944 -0.1820 -0.2219  0.0571
  658TIP3    H123389   1.095   5.647  16.994  0.6177 -1.2094 -1.1642
  658TIP3    H223390   1.048   5.727  16.874 -0.0081  0.0370 -0.1035
  659TIP3   OH223391   5.949   6.312   3.979 -0.8996 -0.3002 -0.2127
  659TIP3    H123392   5.963   6.364   4.058 -0.8234  3.1703 -2.3075
  659TIP3    H223393   5.861   6.336   3.950 -0.3218 -0.2129 -2.0191
  660TIP3   OH223394   3.944   3.021   6.585 -0.3876  0.5383  0.1001
  660TIP3    H123395   3.888   3.080   6.636 -0.6246 -0.0439  0.5259
  660TIP3    H223396   3.993   3.079   6.527 -0.3761  1.1885  0.7413
  661TIP3   OH223397   0.550   6.791  15.728 -0.2144 -0.1705  0.5738
  661TIP3    H123398   0.456   6.782  15.747 -0.3470  1.3516  0.7230
  661TIP3    H223399   0.553   6.836  15.644  0.3814  0.2750  0.8324
  662TIP3   OH223400   4.136   1.411  12.533  0.7059  0.5968  0.3930
  662TIP3    H123401   4.223   1.447  12.552  0.7363 -0.3863  2.4086
  662TIP3    H223402   4.146   1.316  12.544 -0.4177  0.3739 -0.2912
  663TIP3   OH223403   5.455   5.854   0.490  0.1667 -0.3080 -0.1909
  663TIP3    H123404   5.412   5.773   0.516 -0.4446 -0.0615 -0.4183
  663TIP3    H223405   5.446   5.911   0.566  1.1977 -0.6772  0.2239
  664TIP3   OH223406   1.991   2.689  13.822  0.3985  0.3194  0.5632
  664TIP3    H123407   2.068   2.728  13.864  0.0219  1.6287  0.0738
  664TIP3    H223408   1.931   2.762  13.809 -0.7790 -0.6246  0.5859
  665TIP3   OH223409   0.492   3.878  12.725  0.2539  0.2321  0.2101
  665TIP3    H123410   0.518   3.918  12.643 -2.4350  2.4554  0.2898
  665TIP3    H223411   0.468   3.951  12.782 -0.3984 -1.3199  2.0704
  666TIP3   OH223412   0.090   6.624   4.176  0.7005 -0.1778 -0.0577
  666TIP3    H123413   0.119   6.653   4.089  1.3128  0.4236  0.3383
  666TIP3    H223414   0.039   6.545   4.159  1.2637 -0.3696 -0.9207
  667TIP3   OH223415   6.815   4.910   4.500 -0.3564  0.4989  0.0038
  667TIP3    H123416   6.892   4.963   4.521  2.2231 -2.1984 -1.9902
  667TIP3    H223417   6.793   4.935   4.411  1.3832 -2.1290 -1.2639
  668TIP3   OH223418   6.277   2.306   0.494  0.3001  0.2569 -0.5125
  668TIP3    H123419   6.220   2.381   0.509 -1.8291 -1.1822 -0.8440
  668TIP3    H223420   6.298   2.309   0.401 -1.0218 -0.3243 -0.8517
  669TIP3   OH223421   0.835   6.118  11.927  0.0037 -0.4393  0.0373
  669TIP3    H123422   0.891   6.065  11.985 -1.1964 -1.0241  0.7101
  669TIP3    H223423   0.749   6.075  11.932 -0.7545  1.0030 -0.1923
  670TIP3   OH223424   2.481   4.776   1.850  0.3822 -0.6681  0.5880
  670TIP3    H123425   2.502   4.690   1.887 -1.3829 -0.1858  2.8683
  670TIP3    H223426   2.391   4.768   1.819  0.7418 -0.0730 -0.7097
  671TIP3   OH223427   3.918   1.691   0.132  0.0401 -0.1291 -0.3732
  671TIP3    H123428   3.835   1.701   0.086 -0.1638 -1.6991 -0.4121
  671TIP3    H223429   3.980   1.743   0.081 -0.8128  0.6523 -0.6351
  672TIP3   OH223430   3.890   3.821   4.369  0.2501  0.1267  0.3653
  672TIP3    H123431   3.848   3.895   4.414 -0.1194 -1.1956  2.3068
  672TIP3    H223432   3.823   3.788   4.310  0.3817  1.2525 -0.4372
  673TIP3   OH223433   5.377   0.545   3.833 -0.1312 -0.2646 -0.0365
  673TIP3    H123434   5.307   0.535   3.767 -0.6328 -2.0416  0.7186
  673TIP3    H223435   5.432   0.468   3.821  1.7691  1.1141 -0.6138
  674TIP3   OH223436   1.775   1.511  14.036 -0.1082  0.2925 -0.2785
  674TIP3    H123437   1.776   1.435  14.095 -0.9010  2.3125  2.5404
  674TIP3    H223438   1.866   1.540  14.034 -0.2747  1.0182  1.1777
  675TIP3   OH223439   1.856   2.083  10.845  0.0565 -0.3509 -0.2246
  675TIP3    H123440   1.781   2.099  10.901 -1.7526 -1.7792 -2.1006
  675TIP3    H223441   1.893   2.170  10.829 -2.1053  0.6065 -0.4016
  676TIP3   OH223442   6.199   0.760   3.286 -0.3237 -0.3550 -0.5836
  676TIP3    H123443   6.272   0.788   3.232  0.2242  1.7859  1.1603
  676TIP3    H223444   6.131   0.734   3.223  0.8344  0.5267 -2.2583
  677TIP3   OH223445   5.200   3.170   1.484 -0.7922 -0.2786 -0.5540
  677TIP3    H123446   5.287   3.134   1.469  1.4031  3.0504  2.5406
  677TIP3    H223447   5.173   3.205   1.400  1.5823 -0.0260 -1.2678
  678TIP3   OH223448   2.993   3.358   5.624  0.0551  0.1178  0.0062
  678TIP3    H123449   3.030   3.277   5.592  0.9725  1.5127 -2.7987
  678TIP3    H223450   3.055   3.389   5.690 -0.2606 -1.3446  1.0339
  679TIP3   OH223451   6.037   4.719   1.105 -0.2114 -0.4284  0.6696
  679TIP3    H123452   5.962   4.778   1.120 -2.0015 -2.7268  1.2538
  679TIP3    H223453   6.084   4.718   1.188 -0.7893 -0.6639  0.9952
  680TIP3   OH223454   6.518   3.072  12.867 -0.3662 -0.0241  0.3881
  680TIP3    H123455   6.536   3.164  12.846 -0.0770 -0.2109 -0.2224
  680TIP3    H223456   6.438   3.052  12.818  1.0499 -0.8495 -1.7721
  681TIP3   OH223457   3.953   2.568   1.617 -0.0646 -0.1635 -0.2456
  681TIP3    H123458   4.016   2.606   1.556 -1.9850  2.8325 -0.6009
  681TIP3    H223459   3.872   2.560   1.566 -1.3364  1.0960  1.4484
  682TIP3   OH223460   3.438   6.017   1.754 -0.3125 -0.0983  0.3841
  682TIP3    H123461   3.491   6.055   1.824 -0.0072  0.2930 -0.0541
  682TIP3    H223462   3.430   6.087   1.690  0.1355 -0.7259 -0.3668
  683TIP3   OH223463   2.210   2.742   2.884 -0.0704  0.4877  0.1101
  683TIP3    H123464   2.205   2.685   2.961 -1.5963 -0.6795 -0.8168
  683TIP3    H223465   2.199   2.830   2.919 -1.8568 -0.1048  1.1411
  684TIP3   OH223466   0.322   1.992  11.617 -0.2357 -0.0009 -0.0092
  684TIP3    H123467   0.363   1.952  11.540 -0.0415 -3.0460  1.5126
  684TIP3    H223468   0.387   2.054  11.650  1.8909 -2.3278  0.4836
  685TIP3   OH223469   3.812   1.688   2.883  0.3908  0.0754  0.4520
  685TIP3    H123470   3.735   1.710   2.831  1.7282  1.2274 -1.1297
  685TIP3    H223471   3.788   1.715   2.972 -0.9088  0.7056 -0.0501
  686TIP3   OH223472   3.487   4.641  16.301  0.1491  0.4222  0.0026
  686TIP3    H123473   3.456   4.584  16.230  0.2955  1.4054 -0.8760
  686TIP3    H223474   3.443   4.607  16.380 -0.0440 -0.6662 -0.5535
  687TIP3   OH223475   4.817   5.747  16.295  0.2241  0.0362  0.2477
  687TIP3    H123476   4.805   5.814  16.363 -1.8786  1.5573 -1.4934
  687TIP3    H223477   4.899   5.771  16.252  0.0091  0.8891  0.2991
  688TIP3   OH223478   6.102   5.838   2.594 -0.1807  0.4487 -0.7368
  688TIP3    H123479   6.161   5.806   2.526 -0.5388  0.9899 -1.3041
  688TIP3    H223480   6.059   5.915   2.556 -2.7949 -1.0805 -1.1049
  689TIP3   OH223481   4.472   0.498   4.862 -0.0156  0.2038  0.0784
  689TIP3    H123482   4.432   0.413   4.842  0.2134  0.1984 -0.3796
  689TIP3    H223483   4.442   0.519   4.950  0.2339 -0.5310  0.3442
  690TIP3   OH223484   2.409   3.101  11.422  0.1608 -0.2131 -0.2933
  690TIP3    H123485   2.410   3.033  11.490  0.3371  1.4374  1.4148
  690TIP3    H223486   2.484   3.157  11.443 -0.0715  0.6058 -1.5776
  691TIP3   OH223487   4.752   3.297   1.461  0.2312 -0.5307 -0.7875
  691TIP3    H123488   4.685   3.246   1.415 -0.2149  1.4999 -2.5475
  691TIP3    H223489   4.705   3.373   1.495  1.4623  0.5705 -1.4404
  692TIP3   OH223490   1.096   5.782  13.338 -0.0137 -0.1315  0.8000
  692TIP3    H123491   1.028   5.820  13.283 -0.0602 -0.1712  0.8299
  692TIP3    H223492   1.088   5.687  13.325 -0.4675 -0.1799  1.3955
  693TIP3   OH223493   4.757   5.439   3.997  0.0484  0.2355  0.3072
  693TIP3    H123494   4.783   5.371   3.935  0.7668  0.1627  0.6864
  693TIP3    H223495   4.678   5.478   3.958  1.4321  1.3529 -1.5309
  694TIP3   OH223496   5.900   5.129  16.272 -0.5901 -0.2084  0.0520
  694TIP3    H123497   5.827   5.143  16.334 -0.6028 -1.7851  0.4287
  694TIP3    H223498   5.897   5.206  16.215 -0.5805  1.3376  1.9870
  695TIP3   OH223499   5.040   6.697  15.520  0.9440  0.7778  0.5993
  695TIP3    H123500   5.016   6.767  15.460 -1.0411  1.4629  2.0978
  695TIP3    H223501   5.124   6.724  15.557  1.6889  0.8312 -1.0372
  696TIP3   OH223502   2.027   6.619  16.842 -0.2724  0.2049  0.5085
  696TIP3    H123503   2.070   6.634  16.758 -2.2256  0.4137 -0.5102
  696TIP3    H223504   2.005   6.707  16.873 -0.9064  0.0661  0.4721
  697TIP3   OH223505   6.410   3.514   5.809 -0.3871  0.1595 -0.1533
  697TIP3    H123506   6.489   3.482   5.854 -0.0144 -1.3121 -1.7794
  697TIP3    H223507   6.442   3.582   5.750 -0.1950 -0.9063 -1.3098
  698TIP3   OH223508   6.045   5.645   2.769 -0.3891  0.2911  0.1970
  698TIP3    H123509   6.063   5.734   2.740 -0.9507  0.2727 -0.2083
  698TIP3    H223510   5.962   5.622   2.729 -1.1348  0.2178  1.7093
  699TIP3   OH223511   1.694   0.787  11.409  0.2054  0.4626  0.7498
  699TIP3    H123512   1.697   0.779  11.314 -2.1526  0.8053  0.5852
  699TIP3    H223513   1.687   0.880  11.426 -0.0281  0.3621  1.2315
  700TIP3   OH223514   4.970   1.755   3.194  0.2964 -0.0378 -0.3679
  700TIP3    H123515   4.913   1.690   3.153 -0.6737  0.2191  0.5072
  700TIP3    H223516   4.909   1.818   3.233  1.2076  0.8889 -0.4029
  701TIP3   OH223517   3.053   6.605   1.281 -0.3028  0.1796  0.2281
  701TIP3    H123518   3.017   6.682   1.325  1.7397  1.3196  0.0288
  701TIP3    H223519   3.120   6.572   1.341 -0.1362 -0.5599 -0.3467
  702TIP3   OH223520   5.083   1.865   3.667  0.6873  0.2388  0.0433
  702TIP3    H123521   5.076   1.859   3.572 -1.6346 -2.7190  0.2352
  702TIP3    H223522   5.038   1.947   3.690 -0.1892  0.1725 -1.3319
  703TIP3   OH223523   4.440   1.925   5.843 -0.0108 -0.0446  0.3551
  703TIP3    H123524   4.536   1.919   5.843 -0.0551 -1.2153 -0.8016
  703TIP3    H223525   4.411   1.834   5.854 -0.9806  0.1710 -0.3300
  704TIP3   OH223526   2.472   6.248   0.276  0.1281 -0.1421 -0.4201
  704TIP3    H123527   2.526   6.225   0.352  0.9807 -0.2640 -1.0502
  704TIP3    H223528   2.412   6.174   0.267  0.8975 -0.7618 -0.6440
  705TIP3   OH223529   3.980   2.544  12.088  0.4661 -0.3051 -0.5843
  705TIP3    H123530   3.905   2.546  12.146  0.4474 -2.0420 -0.4875
  705TIP3    H223531   4.003   2.635  12.074 -1.6891  0.2726 -0.6602
  706TIP3   OH223532   2.253   2.079  16.271  0.2240 -0.4581 -0.2431
  706TIP3    H123533   2.209   2.155  16.310  2.3059  0.9520 -0.5016
  706TIP3    H223534   2.288   2.030  16.346  1.8869  0.7882 -0.1527
  707TIP3   OH223535   3.010   4.612   4.005 -0.3217  0.1750  0.1660
  707TIP3    H123536   3.090   4.562   4.020 -0.3113  0.5595  1.5469
  707TIP3    H223537   2.940   4.555   4.039 -0.6567 -0.1986 -1.1126
  708TIP3   OH223538   6.420   1.786  15.318 -0.1459  0.4021 -0.3251
  708TIP3    H123539   6.358   1.850  15.353  0.9182  1.2487  0.0999
  708TIP3    H223540   6.367   1.726  15.267 -1.4307  0.5671  0.7572
  709TIP3   OH223541   5.001   0.986  13.454  0.0458  0.1178  0.2695
  709TIP3    H123542   4.923   0.958  13.407 -0.3455  0.8184  0.4795
  709TIP3    H223543   5.051   0.906  13.468 -0.9378 -0.4435  0.6884
  710TIP3   OH223544   6.759   6.607  11.081 -0.2869 -0.4551 -0.1644
  710TIP3    H123545   6.782   6.666  11.010  1.5525  0.4054  1.0649
  710TIP3    H223546   6.834   6.611  11.140 -1.3789 -1.8102  1.3914
  711TIP3   OH223547   1.095   1.012  16.825  0.6041 -0.3788  0.4822
  711TIP3    H123548   1.030   1.020  16.755  3.7425  1.0478 -2.5606
  711TIP3    H223549   1.062   1.069  16.895 -2.1440 -1.0285 -0.1593
  712TIP3   OH223550   2.915   4.427   5.501 -0.3805  0.0284  0.5300
  712TIP3    H123551   2.906   4.359   5.434 -0.2785  1.2671 -0.7717
  712TIP3    H223552   2.843   4.409   5.562  0.6531 -2.2754  1.1921
  713TIP3   OH223553   5.711   5.960  12.010  0.0332  0.0659 -0.1868
  713TIP3    H123554   5.754   5.930  11.930 -0.4111  0.1801 -0.4724
  713TIP3    H223555   5.622   5.982  11.982  0.5927  2.6447 -0.2214
  714TIP3   OH223556   4.093   4.417   2.879 -0.3763 -0.0460  0.4785
  714TIP3    H123557   4.035   4.444   2.950 -0.1087  3.4371 -0.4232
  714TIP3    H223558   4.156   4.489   2.871  1.9581 -2.0821 -0.8486
  715TIP3   OH223559   4.158   1.229  12.821 -0.3034 -0.1917  0.4295
  715TIP3    H123560   4.227   1.189  12.873 -0.8057 -0.4450  0.9122
  715TIP3    H223561   4.138   1.163  12.754  0.3794  0.1564 -0.1262
  716TIP3   OH223562   5.932   0.545  12.000 -0.2291  0.6399 -0.0496
  716TIP3    H123563   5.993   0.501  12.060  0.2353  1.6474  0.2430
  716TIP3    H223564   5.902   0.476  11.941  0.5520 -0.0454  0.3342
  717TIP3   OH223565   4.281   5.258  13.642  0.0749  0.4134 -0.4544
  717TIP3    H123566   4.251   5.306  13.719 -1.2444 -0.3669 -0.4432
  717TIP3    H223567   4.376   5.252  13.653  0.0754  1.5449  0.3766
  718TIP3   OH223568   4.926   4.763  16.860 -0.0775 -0.4921 -0.7236
  718TIP3    H123569   4.935   4.821  16.784  0.5693  0.0161 -0.2652
  718TIP3    H223570   4.969   4.682  16.833 -0.1126 -0.4168 -1.0124
  719TIP3   OH223571   6.759   3.578  13.115 -0.2885 -0.0242  0.1396
  719TIP3    H123572   6.824   3.546  13.053  0.7647  0.0235  1.1912
  719TIP3    H223573   6.790   3.547  13.200  0.2562  2.8971  1.0971
  720TIP3   OH223574   2.541   2.100  12.028  0.0398  1.0621  0.4725
  720TIP3    H123575   2.541   2.005  12.042  2.5790  0.8458 -0.4087
  720TIP3    H223576   2.479   2.134  12.093 -1.8007 -1.2425  0.0691
  721TIP3   OH223577   1.982   3.476   1.486 -0.0569  0.2456 -0.1755
  721TIP3    H123578   2.034   3.468   1.567  0.6564  1.3183 -0.5081
  721TIP3    H223579   1.925   3.399   1.487  1.2425 -0.7512  0.4221
  722TIP3   OH223580   6.450   0.111   5.165  0.4260  0.4228  0.1150
  722TIP3    H123581   6.408   0.179   5.112  1.4668  0.9953 -0.0119
  722TIP3    H223582   6.394   0.034   5.156 -1.5544  1.6204  1.3337
  723TIP3   OH223583   5.951   6.257  16.351  0.2579 -0.0055  0.7234
  723TIP3    H123584   6.038   6.293  16.369 -0.3421  2.7599 -1.1981
  723TIP3    H223585   5.910   6.247  16.437  1.2572  2.0256  1.4881
  724TIP3   OH223586   2.610   6.712   5.406 -0.3778  0.0276 -0.1741
  724TIP3    H123587   2.601   6.702   5.501 -0.6571 -0.4244 -0.2425
  724TIP3    H223588   2.644   6.800   5.394 -0.3806  0.1031  0.3460
  725TIP3   OH223589   5.071   2.807  15.024 -0.4426  0.5155 -0.4410
  725TIP3    H123590   5.116   2.818  14.940  3.4384  1.5425  1.5203
  725TIP3    H223591   5.086   2.889  15.071 -1.2765 -0.5145  1.7757
  726TIP3   OH223592   2.692   0.552  11.169 -0.2032 -0.0972  0.8307
  726TIP3    H123593   2.624   0.491  11.140 -1.2414  1.4832 -0.1926
  726TIP3    H223594   2.646   0.617  11.221  0.4080  1.2895 -0.3056
  727TIP3   OH223595   6.346   0.307   3.889 -0.0215  0.4212  0.2122
  727TIP3    H123596   6.277   0.355   3.843 -1.5731 -1.5806  0.2842
  727TIP3    H223597   6.401   0.375   3.928 -0.3401  2.1402 -2.1127
  728TIP3   OH223598   6.612   2.435   2.661  0.1046 -0.0859 -0.1942
  728TIP3    H123599   6.661   2.509   2.623 -1.6437  0.8564 -0.7177
  728TIP3    H223600   6.565   2.397   2.587  0.1068 -1.0460  0.2826
  729TIP3   OH223601   3.353   1.286  13.802  0.4247 -0.5099  0.3264
  729TIP3    H123602   3.435   1.281  13.851  0.2306 -0.2517  0.6842
  729TIP3    H223603   3.330   1.379  13.804  1.7971  0.0105 -2.5703
  730TIP3   OH223604   5.379   3.823  16.894 -0.5400  0.2828 -0.4561
  730TIP3    H123605   5.467   3.824  16.933 -0.4987  2.7226 -0.4690
  730TIP3    H223606   5.362   3.731  16.876  1.8029 -0.3115  0.0398
  731TIP3   OH223607   0.954   0.435   1.892 -0.6731 -0.4204 -0.3349
  731TIP3    H123608   0.929   0.433   1.984 -2.2493 -1.9730 -0.7427
  731TIP3    H223609   0.877   0.402   1.846 -0.5980  1.9649 -2.4007
  732TIP3   OH223610   2.390   0.297   4.075 -0.2732  0.1023  0.2253
  732TIP3    H123611   2.332   0.238   4.123  1.6748 -0.5425  1.9623
  732TIP3    H223612   2.404   0.254   3.991 -2.3801  0.3728 -0.3364
  733TIP3   OH223613   4.409   2.847  12.820  0.6867  0.7031  0.0711
  733TIP3    H123614   4.479   2.786  12.845 -0.5628  0.7352  4.5695
  733TIP3    H223615   4.331   2.792  12.813  0.2219  1.3099  0.3986
  734TIP3   OH223616   4.408   6.070  13.985  0.1776  0.0342 -0.1785
  734TIP3    H123617   4.398   5.982  14.023  0.6225 -0.6446 -1.5440
  734TIP3    H223618   4.364   6.063  13.900 -0.1863  1.2877 -0.1028
  735TIP3   OH223619   0.607   1.828   1.610 -0.2169 -0.1481 -0.0397
  735TIP3    H123620   0.672   1.764   1.638  0.2428  0.9703  1.5662
  735TIP3    H223621   0.560   1.851   1.690 -1.6618  0.1220 -0.9267
  736TIP3   OH223622   4.824   1.480   4.377 -0.0617 -0.0002  0.0736
  736TIP3    H123623   4.918   1.488   4.360  0.7871 -3.8650  1.8068
  736TIP3    H223624   4.784   1.476   4.290  1.6729 -0.3787 -0.7543
  737TIP3   OH223625   0.887   4.227   5.752 -0.5413 -0.0339  0.1589
  737TIP3    H123626   0.914   4.165   5.684 -1.7531 -0.2739 -0.1234
  737TIP3    H223627   0.871   4.172   5.829 -2.8763 -0.2930 -0.4466
  738TIP3   OH223628   2.336   3.544  12.096 -0.1881 -0.2712  0.3961
  738TIP3    H123629   2.427   3.560  12.073 -0.3775  1.5614  0.7415
  738TIP3    H223630   2.321   3.452  12.074  1.4064 -0.3005 -0.7385
  739TIP3   OH223631   4.976   2.243  13.114  0.1163  0.4530 -0.5167
  739TIP3    H123632   5.061   2.235  13.155 -0.4113  0.9350  0.7189
  739TIP3    H223633   4.952   2.154  13.089  1.2146  0.3846 -1.4010
  740TIP3   OH223634   2.874   4.821  14.621 -0.7505  0.4360 -0.0033
  740TIP3    H123635   2.871   4.868  14.538  1.9568 -2.3266 -1.8955
  740TIP3    H223636   2.843   4.733  14.600 -0.7192 -0.1470  2.1233
  741TIP3   OH223637   3.571   0.565   2.760 -0.6648  0.3141 -0.0261
  741TIP3    H123638   3.585   0.471   2.745  0.0187  0.7564 -2.5411
  741TIP3    H223639   3.566   0.573   2.855 -0.0458 -2.1798  0.2871
  742TIP3   OH223640   1.019   2.553   5.019 -0.3915 -0.3325  0.0999
  742TIP3    H123641   0.931   2.583   4.998 -0.8180 -2.3138 -1.2572
  742TIP3    H223642   1.013   2.518   5.108 -1.2196 -1.2079 -0.2829
  743TIP3   OH223643   6.487   2.945   1.668 -0.1478 -0.8900  0.2828
  743TIP3    H123644   6.418   2.992   1.621 -0.7897 -3.0720 -1.1202
  743TIP3    H223645   6.562   2.946   1.608  0.6423  0.3519  1.2550
  744TIP3   OH223646   4.097   6.236  16.488 -0.5341 -0.6860 -0.3222
  744TIP3    H123647   4.176   6.212  16.439  0.5836 -1.0869  1.5796
  744TIP3    H223648   4.101   6.332  16.494  0.7106 -0.7921  1.1212
  745TIP3   OH223649   2.855   6.247  10.550  0.1337  0.4638 -0.0936
  745TIP3    H123650   2.784   6.188  10.575  0.7790 -0.4308 -0.3401
  745TIP3    H223651   2.876   6.295  10.631  1.0627 -1.1878  0.6733
  746TIP3   OH223652   4.114   5.188  13.093 -0.2666 -0.8751 -0.5415
  746TIP3    H123653   4.176   5.186  13.020 -0.4223  0.3423 -0.7230
  746TIP3    H223654   4.068   5.271  13.083 -1.1511 -1.2585  0.2415
  747TIP3   OH223655   6.687   3.805  14.272 -0.2840 -0.1330  0.1843
  747TIP3    H123656   6.671   3.899  14.263  1.8553  0.3151  0.6240
  747TIP3    H223657   6.668   3.786  14.364 -0.5078 -0.0913  0.1473
  748TIP3   OH223658   1.253   3.993  10.425  0.3314 -0.3674 -0.0854
  748TIP3    H123659   1.159   3.978  10.422  0.0216  1.1015  1.2548
  748TIP3    H223660   1.291   3.905  10.435 -0.9838 -0.8494  0.9525
  749TIP3   OH223661   0.645   5.378  16.700  0.0582 -0.2915  0.0224
  749TIP3    H123662   0.573   5.318  16.721  0.2004 -0.6145 -0.3832
  749TIP3    H223663   0.711   5.359  16.766  0.1968 -0.7535 -0.2432
  750TIP3   OH223664   0.712   4.652  12.966  0.6926 -0.3913 -0.8477
  750TIP3    H123665   0.638   4.711  12.951  0.6209 -0.7319 -1.9260
  750TIP3    H223666   0.708   4.589  12.894  1.1219 -1.3604 -0.0534
  751TIP3   OH223667   0.755   6.612  14.959 -0.0418 -0.5975 -0.3794
  751TIP3    H123668   0.706   6.597  14.878 -0.4643 -0.7075 -0.1039
  751TIP3    H223669   0.692   6.652  15.019 -0.3158 -2.3292  0.5625
  752TIP3   OH223670   3.120   3.231  15.978 -0.0349 -0.2622 -0.2072
  752TIP3    H123671   3.205   3.190  15.994 -0.4641 -0.8647  0.6106
  752TIP3    H223672   3.128   3.319  16.014 -0.7763 -1.3785  3.0073
  753TIP3   OH223673   4.464   2.107  14.235 -0.4631  0.2804 -0.3760
  753TIP3    H123674   4.387   2.098  14.290  1.4690 -1.1344  2.3254
  753TIP3    H223675   4.476   2.201  14.225 -1.1267  0.5697  1.3306
  754TIP3   OH223676   0.049   0.114   5.292  0.3041  0.0245  0.0010
  754TIP3    H123677   0.131   0.156   5.267  1.4188 -1.8701  0.2959
  754TIP3    H223678   0.027   0.153   5.376  0.1498  1.4996 -0.6760
  755TIP3   OH223679   3.677   4.723  12.070  0.0873 -0.0208  0.3151
  755TIP3    H123680   3.626   4.766  12.002  0.7121  0.1005 -0.0816
  755TIP3    H223681   3.635   4.749  12.152 -0.1830  0.4817  0.0196
  756TIP3   OH223682   0.135   6.397   5.596  0.2564 -0.1871 -0.6035
  756TIP3    H123683   0.229   6.416   5.601  0.1713 -0.0690  0.9373
  756TIP3    H223684   0.107   6.390   5.687 -0.9983 -1.4501 -1.0464
  757TIP3   OH223685   2.088   1.843   5.488 -0.4920  0.1147  0.1683
  757TIP3    H123686   2.072   1.891   5.407  1.0695 -1.7747 -1.3542
  757TIP3    H223687   2.135   1.905   5.544  1.0708  0.6036 -1.5685
  758TIP3   OH223688   5.233   5.989  12.724 -0.2358 -0.0751  0.1054
  758TIP3    H123689   5.315   5.958  12.686 -0.2117  0.1085  0.0084
  758TIP3    H223690   5.168   5.925  12.695 -0.1315 -0.2112  0.1682
  759TIP3   OH223691   6.601   6.075  14.293  0.3523 -0.3887  0.5575
  759TIP3    H123692   6.645   6.143  14.345 -1.8551  1.3719  0.2733
  759TIP3    H223693   6.651   6.072  14.211 -0.1389  1.7890  0.1078
  760TIP3   OH223694   3.945   5.712  16.078  0.2325 -0.2299 -0.1610
  760TIP3    H123695   3.869   5.765  16.102 -0.2102 -0.7409 -0.4040
  760TIP3    H223696   3.942   5.637  16.137  0.2029 -0.5523 -0.5651
  761TIP3   OH223697   3.128   2.390   3.742 -0.4024 -0.1090  0.1043
  761TIP3    H123698   3.163   2.418   3.658 -0.4999 -1.9343 -0.5719
  761TIP3    H223699   3.084   2.468   3.776  1.5512  1.3280 -0.4559
  762TIP3   OH223700   5.274   4.836   1.918  0.1154  0.1965 -0.0946
  762TIP3    H123701   5.329   4.905   1.958 -0.9513  0.9138  0.1847
  762TIP3    H223702   5.218   4.883   1.857 -1.8552 -0.1100  1.3581
  763TIP3   OH223703   1.685   6.618   5.190  0.1446  0.0994 -0.4278
  763TIP3    H123704   1.631   6.620   5.111  0.8004  2.0014 -0.8750
  763TIP3    H223705   1.771   6.650   5.162  0.8198 -0.5632  0.7732
  764TIP3   OH223706   2.016   4.183  11.534 -0.9400 -0.1979 -0.4544
  764TIP3    H123707   2.058   4.154  11.454  1.2127  0.5302  0.3270
  764TIP3    H223708   2.000   4.277  11.520  0.4631  0.1827  0.3341
  765TIP3   OH223709   0.511   3.243   1.322  0.7310  0.1975 -0.4981
  765TIP3    H123710   0.419   3.258   1.298  0.8799  0.3189 -1.0200
  765TIP3    H223711   0.532   3.315   1.382  0.1965 -0.4108  0.4403
  766TIP3   OH223712   3.981   2.872   3.768 -0.0408  0.4050 -0.0908
  766TIP3    H123713   4.029   2.938   3.818 -1.5404  0.1419  1.7770
  766TIP3    H223714   4.050   2.815   3.733  1.1594  1.7510 -0.0266
  767TIP3   OH223715   5.754   1.308   4.360  0.0953 -0.1821 -0.1384
  767TIP3    H123716   5.838   1.266   4.340 -0.5537 -0.5414 -2.4207
  767TIP3    H223717   5.719   1.332   4.275 -1.3301  1.5864  0.8832
  768TIP3   OH223718   3.076   3.446   5.135  0.2268  0.0573 -0.2598
  768TIP3    H123719   3.053   3.535   5.161  0.0994  0.4767 -1.7339
  768TIP3    H223720   3.171   3.441   5.151  0.0034 -0.0807  1.2495
  769TIP3   OH223721   4.262   2.954  13.735 -0.6271 -0.2557 -0.0625
  769TIP3    H123722   4.279   2.868  13.695  0.4512  0.4667 -1.2491
  769TIP3    H223723   4.346   3.000  13.729 -1.0526  0.7051  1.0288
  770TIP3   OH223724   3.694   5.377   5.654 -0.8196 -0.0700  0.7519
  770TIP3    H123725   3.654   5.300   5.695  0.4250 -0.0868  2.0125
  770TIP3    H223726   3.748   5.342   5.584 -0.7495 -0.3013  0.9211
  771TIP3   OH223727   4.254   4.817  10.652 -0.3092 -0.0735 -0.0310
  771TIP3    H123728   4.220   4.729  10.669  0.4367 -0.2780  0.4206
  771TIP3    H223729   4.208   4.845  10.573  1.4714 -1.9875 -1.8503
  772TIP3   OH223730   5.499   5.402  16.778  0.0614 -0.1913 -0.3856
  772TIP3    H123731   5.587   5.432  16.754 -0.6259  3.0056  0.6020
  772TIP3    H223732   5.449   5.409  16.696  0.0449  1.0022 -0.2943
  773TIP3   OH223733   6.258   3.596  11.611  0.0912 -0.0537  0.3354
  773TIP3    H123734   6.305   3.648  11.677  0.2791  0.4737 -0.2120
  773TIP3    H223735   6.327   3.553  11.561  0.0957  1.8529 -1.4051
  774TIP3   OH223736   0.176   2.801  16.662 -0.2028  0.0091  0.3483
  774TIP3    H123737   0.122   2.727  16.635  0.5865 -0.1512 -0.8595
  774TIP3    H223738   0.209   2.776  16.749  1.0785 -1.6765 -0.5554
  775TIP3   OH223739   6.784   1.051  12.238  0.1183 -0.1899 -0.0015
  775TIP3    H123740   6.788   0.999  12.318 -1.4510  1.0947  0.9778
  775TIP3    H223741   6.766   1.140  12.268 -2.8586 -0.0306 -1.8300
  776TIP3   OH223742   1.489   1.383  14.879  0.3550  0.1045 -0.4618
  776TIP3    H123743   1.511   1.417  14.965  0.4455  0.9578 -0.8183
  776TIP3    H223744   1.404   1.341  14.890  1.6572 -2.4829  0.7406
  777TIP3   OH223745   3.126   3.654   0.238  0.3048  0.2206  0.0788
  777TIP3    H123746   3.075   3.613   0.168  0.5431  0.5520 -0.2847
  777TIP3    H223747   3.066   3.655   0.313 -0.1199  0.3252 -0.2592
  778TIP3   OH223748   0.914   4.827  14.010 -0.6024  0.1956  0.4042
  778TIP3    H123749   0.822   4.799  14.020 -0.4621 -0.2599  0.4430
  778TIP3    H223750   0.944   4.781  13.932 -1.2827  2.6728 -1.4551
  779TIP3   OH223751   2.132   1.057  11.947  0.5492 -0.3651 -0.1555
  779TIP3    H123752   2.141   0.961  11.943 -0.4764 -0.5716  1.4120
  779TIP3    H223753   2.174   1.088  11.867  0.8881 -2.1270 -0.7217
  780TIP3   OH223754   4.752   2.614  14.521 -0.0363  0.3589  0.1669
  780TIP3    H123755   4.789   2.534  14.484  1.2698  0.7869  0.4903
  780TIP3    H223756   4.713   2.659  14.446 -1.5448 -0.9593  0.1201
  781TIP3   OH223757   6.183   3.489   5.307 -0.0886 -0.0687  0.0964
  781TIP3    H123758   6.162   3.555   5.241 -2.6745 -0.9994 -0.1505
  781TIP3    H223759   6.154   3.528   5.389 -0.0904 -0.2493  0.1825
  782TIP3   OH223760   4.940   2.629   3.153 -0.7428 -0.0521  0.2955
  782TIP3    H123761   4.945   2.573   3.075  1.2107  0.8273 -0.2784
  782TIP3    H223762   4.870   2.691   3.132  0.2420  0.6424 -1.1371
  783TIP3   OH223763   1.405   5.170  16.555 -0.9263 -0.2734  0.0536
  783TIP3    H123764   1.430   5.163  16.647 -1.2113  1.0565  0.2478
  783TIP3    H223765   1.467   5.114  16.508  0.3799  0.4687  0.8645
  784TIP3   OH223766   2.955   0.344  11.946 -0.6065  0.4239 -0.2394
  784TIP3    H123767   2.974   0.363  11.854 -4.8559 -1.1396 -1.6959
  784TIP3    H223768   2.952   0.248  11.951 -3.7721  0.4347  0.4980
  785TIP3   OH223769   0.853   1.324   6.189  0.0626  0.6450  0.0896
  785TIP3    H123770   0.898   1.380   6.253  0.3855  0.3577  0.1152
  785TIP3    H223771   0.771   1.301   6.232  0.7921 -0.5347  0.9176
  786TIP3   OH223772   4.624   0.641  16.679 -0.4635  0.1345 -0.0065
  786TIP3    H123773   4.661   0.715  16.727  1.0186 -0.4536 -0.1831
  786TIP3    H223774   4.650   0.657  16.588 -0.2166 -0.5356 -0.0591
  787TIP3   OH223775   4.399   3.763  12.055 -0.0117  0.2908 -0.2234
  787TIP3    H123776   4.416   3.845  12.010  0.9936 -0.6047 -1.5339
  787TIP3    H223777   4.304   3.753  12.052  0.0094  0.3620 -2.0065
  788TIP3   OH223778   4.660   2.007   1.061 -0.2209  0.3905  0.5870
  788TIP3    H123779   4.636   2.055   0.981  1.6954  0.5974  0.0815
  788TIP3    H223780   4.595   1.938   1.068 -1.1996  1.1658 -0.4156
  789TIP3   OH223781   3.776   2.815  14.959  0.3181  0.0167  0.5325
  789TIP3    H123782   3.800   2.836  15.049 -0.3610  0.6765  0.5683
  789TIP3    H223783   3.796   2.894  14.909  2.7092 -1.0210 -0.3216
  790TIP3   OH223784   2.947   0.063   2.248 -0.3258  0.1569 -0.0853
  790TIP3    H123785   2.965  -0.004   2.182 -0.4308 -1.2809  1.2987
  790TIP3    H223786   2.960   0.146   2.202  1.0053 -0.8009 -1.5184
  791TIP3   OH223787   1.987   5.919  13.021 -0.2296 -0.4499 -0.0197
  791TIP3    H123788   1.965   5.974  13.096  2.2169 -0.0762  0.5138
  791TIP3    H223789   1.914   5.931  12.959 -0.6731  1.8844  0.8793
  792TIP3   OH223790   1.432   0.765   1.967 -0.1785 -0.1607 -1.0935
  792TIP3    H123791   1.371   0.836   1.986  1.6230  0.9531  1.1219
  792TIP3    H223792   1.387   0.710   1.903 -3.5295  0.4828  0.5100
  793TIP3   OH223793   1.984   0.466  16.464 -0.1542  0.0192  0.1656
  793TIP3    H123794   1.960   0.558  16.467  1.6501  0.5271  0.7325
  793TIP3    H223795   2.051   0.461  16.395 -0.1824 -0.8554  0.1848
  794TIP3   OH223796   4.343   2.598   4.869  0.5583 -0.0283 -0.1278
  794TIP3    H123797   4.426   2.633   4.836  0.3352 -0.0069 -0.6699
  794TIP3    H223798   4.355   2.595   4.964  0.4341  1.9207 -0.0177
  795TIP3   OH223799   3.949   6.338  11.611 -0.4775 -0.9047  0.1914
  795TIP3    H123800   4.013   6.408  11.626 -0.6938 -0.9353  1.3055
  795TIP3    H223801   3.896   6.337  11.690  0.6835 -3.5869  1.0317
  796TIP3   OH223802   2.957   1.972   5.469 -0.0048  0.2321  0.1843
  796TIP3    H123803   3.046   2.007   5.473  0.0367  0.2576 -0.7739
  796TIP3    H223804   2.906   2.026   5.529  0.1506  1.6869 -0.9523
  797TIP3   OH223805   4.957   6.779  12.294  0.5897 -0.3724  0.3554
  797TIP3    H123806   4.973   6.725  12.217  1.1940 -2.9448  2.1641
  797TIP3    H223807   5.002   6.862  12.274  1.2542 -1.1745 -1.7815
  798TIP3   OH223808   3.590   5.890  12.828  0.0240 -0.1641  0.1407
  798TIP3    H123809   3.647   5.967  12.838 -0.5223  0.4277 -1.0206
  798TIP3    H223810   3.622   5.848  12.748 -0.7200 -0.2097 -0.1400
  799TIP3   OH223811   3.866   1.463  13.212  0.0897  0.4693  0.4175
  799TIP3    H123812   3.921   1.519  13.157  0.6959 -1.7998 -1.4545
  799TIP3    H223813   3.926   1.431  13.280  0.5248 -0.1960 -0.2638
  800TIP3   OH223814   5.096   3.852  16.142 -0.2344  0.1683 -0.8861
  800TIP3    H123815   5.085   3.889  16.230 -0.8410 -1.4511 -0.2503
  800TIP3    H223816   5.069   3.923  16.083  1.1549  1.6510  0.1625
  801TIP3   OH223817   0.746   5.457  14.550  0.4294 -0.4276  0.4962
  801TIP3    H123818   0.665   5.491  14.589  0.3803  0.2566 -0.1682
  801TIP3    H223819   0.770   5.383  14.605  0.2346  0.3523  1.6785
  802TIP3   OH223820   3.249   3.495  16.993  0.5707 -0.1377 -0.0360
  802TIP3    H123821   3.213   3.415  17.031 -0.4803 -1.1160 -2.8378
  802TIP3    H223822   3.176   3.534  16.945  1.6426  1.3111 -0.5608
  803TIP3   OH223823   4.531   2.145  13.380 -0.3602  0.2963 -0.0338
  803TIP3    H123824   4.443   2.160  13.344 -1.5841 -3.3101  1.0819
  803TIP3    H223825   4.530   2.192  13.464  0.1373  3.1613 -1.5173
  804TIP3   OH223826   1.513   1.076  14.640  0.0965 -0.2854 -0.2473
  804TIP3    H123827   1.487   1.054  14.729 -1.2187 -0.0836 -0.5669
  804TIP3    H223828   1.583   1.014  14.619  0.6709 -0.0891  1.0488
  805TIP3   OH223829   5.196   6.417  10.736  0.1791 -0.3086 -0.4122
  805TIP3    H123830   5.260   6.419  10.807  2.3270 -1.6823 -2.1755
  805TIP3    H223831   5.202   6.328  10.700  0.9455  0.9563 -3.7634
  806TIP3   OH223832   1.164   4.610  13.272 -0.4936 -0.2298  0.6643
  806TIP3    H123833   1.149   4.517  13.291 -1.6485  0.1871  2.0659
  806TIP3    H223834   1.246   4.613  13.223 -0.3474 -1.9679  0.7574
  807TIP3   OH223835   1.806   3.389  12.557 -0.0519  0.1169  0.0305
  807TIP3    H123836   1.756   3.433  12.626 -0.2463 -0.5933  0.3608
  807TIP3    H223837   1.741   3.334  12.512  0.1367  0.3404 -0.5197
  808TIP3   OH223838   4.431   1.093  12.597 -0.1692 -0.1912 -0.1548
  808TIP3    H123839   4.442   1.177  12.641  0.6047 -0.7059  0.6572
  808TIP3    H223840   4.480   1.102  12.516 -0.7848  0.4221 -0.4702
  809TIP3   OH223841   5.738   2.361  11.822 -0.4968 -0.6181 -0.0106
  809TIP3    H123842   5.767   2.432  11.764  0.3190  0.0757  1.2203
  809TIP3    H223843   5.780   2.283  11.786 -0.2052 -0.2437 -0.5022
  810TIP3   OH223844   4.912   0.140   0.309  0.1841 -0.0356  0.3391
  810TIP3    H123845   4.922   0.072   0.243  0.3436 -1.4149  1.7163
  810TIP3    H223846   4.881   0.093   0.387  0.2880  1.4787  1.3358
  811TIP3   OH223847   0.635   5.754   0.709  0.1170 -0.4319 -0.0971
  811TIP3    H123848   0.706   5.738   0.770 -0.6188  2.7880  1.8684
  811TIP3    H223849   0.676   5.800   0.636  0.9173 -3.8708 -1.9950
  812TIP3   OH223850   0.302   0.612  15.749 -0.3519 -0.0230  0.6613
  812TIP3    H123851   0.380   0.578  15.793 -1.5569 -1.6478  1.6930
  812TIP3    H223852   0.321   0.604  15.656  0.3047 -1.4512  0.8879
  813TIP3   OH223853   3.825   2.093  12.359  0.6521  0.0178 -0.4466
  813TIP3    H123854   3.759   2.133  12.302 -0.5970  0.1001  0.9789
  813TIP3    H223855   3.891   2.161  12.372  0.9872 -0.0246 -1.8021
  814TIP3   OH223856   5.443   4.245   0.794  0.6927  0.3522 -0.3842
  814TIP3    H123857   5.478   4.233   0.882  0.5726  0.6776 -0.2910
  814TIP3    H223858   5.488   4.323   0.761 -1.8181  2.4167  0.7121
  815TIP3   OH223859   5.741   3.257  12.847  0.2970 -0.4087  0.2426
  815TIP3    H123860   5.739   3.201  12.770 -4.1142 -0.1409 -0.0801
  815TIP3    H223861   5.796   3.210  12.910  0.2862 -2.9045 -1.5022
  816TIP3   OH223862   4.592   2.212  12.700  0.3136  0.2824  0.2852
  816TIP3    H123863   4.503   2.203  12.732  0.2475  1.6809  0.5453
  816TIP3    H223864   4.594   2.297  12.656  1.8251  0.8719  1.3916
  817TIP3   OH223865   6.748   6.154   4.306  0.5861  0.4979  0.0023
  817TIP3    H123866   6.785   6.220   4.365 -0.6630  2.2805 -1.1011
  817TIP3    H223867   6.823   6.126   4.253  1.2058  0.7738  0.7083
  818TIP3   OH223868   4.063   2.059  14.821  0.0470 -0.0675 -0.2260
  818TIP3    H123869   4.072   2.057  14.917  1.7932 -1.8807 -0.3619
  818TIP3    H223870   4.010   2.137  14.804 -2.0500 -0.7622  2.3389
  819TIP3   OH223871   4.963   1.778   2.059  0.4577  0.3549  0.0136
  819TIP3    H123872   4.964   1.765   2.154  2.0736  1.3407  0.1629
  819TIP3    H223873   4.881   1.825   2.043  1.3728  2.6114  1.3393
  820TIP3   OH223874   4.569   1.940   2.593 -0.7885 -0.0859 -0.0095
  820TIP3    H123875   4.520   1.912   2.670  0.2436  3.4931  2.1896
  820TIP3    H223876   4.658   1.909   2.609 -0.4184  1.2685  0.6552
  821TIP3   OH223877   2.845   3.095  10.997  0.3710 -0.6189  0.1220
  821TIP3    H123878   2.894   3.055  10.925  0.4084  0.2522 -0.3581
  821TIP3    H223879   2.781   3.029  11.022 -0.1931 -0.6484 -1.2806
  822TIP3   OH223880   4.983   5.648  14.545 -0.2494 -0.0290 -0.0295
  822TIP3    H123881   4.941   5.583  14.600 -0.6542  1.7838  1.9333
  822TIP3    H223882   5.037   5.700  14.605  0.7404  0.9052 -1.6481
  823TIP3   OH223883   6.068   2.524   5.451  0.2802 -0.3179 -0.5590
  823TIP3    H123884   5.982   2.532   5.408 -0.7776  0.3635  1.5419
  823TIP3    H223885   6.052   2.468   5.527  1.9990 -1.1671 -0.7761
  824TIP3   OH223886   3.762   5.431  16.455 -0.8573  0.3303 -0.1604
  824TIP3    H123887   3.730   5.427  16.546 -0.3231 -0.3412  0.0057
  824TIP3    H223888   3.685   5.410  16.402 -0.5993 -1.9551  0.2643
  825TIP3   OH223889   0.203   4.033   3.170  0.3489  0.2399 -0.3459
  825TIP3    H123890   0.212   3.939   3.180 -0.8453  0.1719  0.1909
  825TIP3    H223891   0.132   4.045   3.107  0.7997  0.7769 -0.7654
  826TIP3   OH223892   4.794   4.379  16.981  0.1111 -0.5045  0.3482
  826TIP3    H123893   4.840   4.328  17.048 -0.2391  2.1510  2.8028
  826TIP3    H223894   4.835   4.352  16.898  3.4990 -0.9812  2.0078
  827TIP3   OH223895   3.429   2.671   1.407 -0.1354  0.0565 -0.4585
  827TIP3    H123896   3.422   2.742   1.343  2.4747 -0.3457 -1.2962
  827TIP3    H223897   3.339   2.658   1.438 -0.9068  2.7644 -1.2860
  828TIP3   OH223898   1.302   0.023   4.282 -0.1133  0.0279  0.1488
  828TIP3    H123899   1.386   0.039   4.324 -0.9364 -0.5836  2.1174
  828TIP3    H223900   1.237   0.038   4.350 -1.7462  1.8761 -1.6750
  829TIP3   OH223901   5.461   5.563   1.908  0.3495 -0.4741 -0.0361
  829TIP3    H123902   5.556   5.572   1.912  0.3671 -0.0907 -1.0838
  829TIP3    H223903   5.446   5.487   1.852  0.0384 -0.6473  0.2762
  830TIP3   OH223904   3.810   6.537   0.719 -0.1112  0.4551 -0.0082
  830TIP3    H123905   3.796   6.443   0.735  1.6569  0.1515  0.0292
  830TIP3    H223906   3.861   6.566   0.794  1.3341  0.8826 -1.0997
  831TIP3   OH223907   1.130   3.080  10.653  0.7375  0.0269  0.4404
  831TIP3    H123908   1.135   3.001  10.599 -1.8122  0.5186 -0.6926
  831TIP3    H223909   1.188   3.142  10.610  0.8404 -0.4458 -0.1183
  832TIP3   OH223910   3.066   1.099   5.956  0.5018 -0.2246 -0.0269
  832TIP3    H123911   3.112   1.164   5.903  0.2132  1.0875  1.2670
  832TIP3    H223912   3.117   1.093   6.036  1.4434 -2.8610 -0.7421
  833TIP3   OH223913   5.155   1.329  16.433 -0.2419 -0.0868 -0.6558
  833TIP3    H123914   5.167   1.239  16.403  0.4385  0.0957 -0.9460
  833TIP3    H223915   5.079   1.361  16.383 -1.0084 -0.7529  0.0520
  834TIP3   OH223916   2.937   4.313   3.109 -0.0744 -0.4820  0.0687
  834TIP3    H123917   2.883   4.336   3.184  1.6301  0.6164  1.0171
  834TIP3    H223918   3.002   4.252   3.144 -0.5977 -1.7214 -1.0334
  835TIP3   OH223919   3.604   1.496   3.054  0.2644  0.3738  0.5234
  835TIP3    H123920   3.611   1.500   3.149 -0.9392 -1.2311  0.7373
  835TIP3    H223921   3.518   1.534   3.035  0.4367  0.5558  0.1008
  836TIP3   OH223922   4.182   6.198  11.158  0.0395  0.2091  0.0580
  836TIP3    H123923   4.112   6.157  11.107  1.0268  1.1065 -2.1598
  836TIP3    H223924   4.137   6.264  11.212 -0.8035  1.2667 -1.8453
  837TIP3   OH223925   2.567   3.044   5.697 -0.3963 -0.2879 -0.5382
  837TIP3    H123926   2.618   3.124   5.714 -0.5833 -0.2930  0.0582
  837TIP3    H223927   2.509   3.068   5.625 -0.7202  0.2360 -0.1117
  838TIP3   OH223928   4.739   3.401  17.039 -0.7315  0.0439 -0.0475
  838TIP3    H123929   4.810   3.451  17.000 -0.6326 -0.9910 -1.2477
  838TIP3    H223930   4.668   3.464  17.049 -0.1697  0.7259 -0.2831
  839TIP3   OH223931   5.693   3.589  12.538  0.3373 -0.6428 -0.2884
  839TIP3    H123932   5.743   3.569  12.458 -1.0353  0.8346 -1.5968
  839TIP3    H223933   5.602   3.575  12.512 -0.1325 -0.0916  1.0237
  840TIP3   OH223934   1.742   5.207  12.842  0.2586  0.0754 -0.4966
  840TIP3    H123935   1.713   5.216  12.932 -0.2275 -0.0569 -0.6403
  840TIP3    H223936   1.837   5.221  12.846  0.4949 -1.4774  0.2782
  841TIP3   OH223937   1.615   3.656   3.818 -0.3175  0.3719 -0.4737
  841TIP3    H123938   1.693   3.679   3.769  0.1462 -1.5220 -0.7202
  841TIP3    H223939   1.544   3.704   3.775  0.6170  1.7453 -0.5346
  842TIP3   OH223940   1.511   4.232  11.025  0.3649 -0.1068  0.1058
  842TIP3    H123941   1.535   4.142  11.049 -2.9372 -0.7846  1.4667
  842TIP3    H223942   1.450   4.221  10.952 -1.5664  0.8012  1.5049
  843TIP3   OH223943   4.461   3.076  12.405 -0.0194 -0.3582 -0.7646
  843TIP3    H123944   4.424   3.153  12.360 -0.7486  0.1103  0.6070
  843TIP3    H223945   4.455   3.097  12.498  0.6722 -1.6895 -0.3967
  844TIP3   OH223946   4.232   5.218   0.190 -0.0850 -0.4327 -1.0513
  844TIP3    H123947   4.247   5.310   0.167  0.5912 -0.4413 -0.6770
  844TIP3    H223948   4.252   5.213   0.284 -1.7520 -0.6232 -0.6683
  845TIP3   OH223949   0.530   4.947  15.992  0.1515 -0.2253 -0.0430
  845TIP3    H123950   0.545   4.963  15.899  0.8265 -0.7419 -0.0375
  845TIP3    H223951   0.583   4.870  16.011  1.1283  0.6854  1.0737
  846TIP3   OH223952   0.962   1.883   0.297 -0.8047 -0.3637  0.4574
  846TIP3    H123953   0.920   1.828   0.363  1.1181 -0.8550  1.3400
  846TIP3    H223954   1.023   1.938   0.347  0.7632 -0.8024 -0.8928
  847TIP3   OH223955   6.238   5.494  14.576  0.3698 -0.0758  0.1215
  847TIP3    H123956   6.144   5.502  14.594 -0.3341  0.3212 -3.1340
  847TIP3    H223957   6.262   5.409  14.613 -1.1312  0.0173  1.4137
  848TIP3   OH223958   0.033   6.122   1.692  0.3094 -0.6388 -0.3094
  848TIP3    H123959   0.051   6.084   1.606  1.8582 -0.7606  0.0336
  848TIP3    H223960   0.119   6.138   1.730 -0.3371 -0.1527  1.0405
  849TIP3   OH223961   3.989   3.307   4.138 -0.0769 -0.6987  0.1567
  849TIP3    H123962   3.926   3.267   4.078  0.3092  0.9825 -1.4561
  849TIP3    H223963   4.053   3.238   4.155 -1.0204 -1.6740 -0.1112
  850TIP3   OH223964   0.047   4.969  16.370 -0.4814 -0.7682  0.2536
  850TIP3    H123965   0.104   4.952  16.446 -0.5721  2.7708  1.2879
  850TIP3    H223966  -0.040   4.943  16.399 -0.2730 -0.9205  0.7569
  851TIP3   OH223967   0.210   3.354   2.121 -0.3492  0.0679 -0.1099
  851TIP3    H123968   0.234   3.266   2.149  0.1887  0.4129  0.5405
  851TIP3    H223969   0.289   3.406   2.137 -1.3928  1.1746  1.7878
  852TIP3   OH223970   1.965   3.480   4.979  0.1511 -0.1539 -0.8560
  852TIP3    H123971   2.003   3.484   5.067  1.3708 -0.6985 -1.3274
  852TIP3    H223972   1.887   3.534   4.984  0.3061 -0.0168  0.5134
  853TIP3   OH223973   2.333   1.580   4.094  0.1813  0.2426 -0.4787
  853TIP3    H123974   2.348   1.674   4.097 -0.5322  0.4439 -2.2261
  853TIP3    H223975   2.403   1.546   4.039 -1.2972  0.2196 -2.4703
  854TIP3   OH223976   5.770   6.565   4.494 -0.3825  0.4989  0.1748
  854TIP3    H123977   5.702   6.520   4.545 -0.3194  0.4378  0.2057
  854TIP3    H223978   5.765   6.525   4.407  1.0387 -1.0522  0.7343
  855TIP3   OH223979   2.377   4.296   5.525  0.3213 -0.7663  0.2295
  855TIP3    H123980   2.448   4.344   5.481 -0.1805  0.6249  0.8892
  855TIP3    H223981   2.399   4.204   5.511  0.8830 -0.3926 -1.8102
  856TIP3   OH223982   3.887   6.066   5.530 -0.5006 -0.8675  0.1950
  856TIP3    H123983   3.799   6.042   5.560  0.3330 -2.9159  1.1943
  856TIP3    H223984   3.927   6.110   5.605 -0.7282  0.3592 -0.3668
  857TIP3   OH223985   2.653   4.893   0.071  0.4126 -0.2240  0.1218
  857TIP3    H123986   2.676   4.918   0.160  2.6228  1.1798 -0.7808
  857TIP3    H223987   2.595   4.817   0.082  0.9071 -0.3094  2.7128
  858TIP3   OH223988   0.004   5.811  12.805 -0.2027 -0.0201 -0.2307
  858TIP3    H123989  -0.086   5.785  12.826 -0.3456 -0.1152 -0.9392
  858TIP3    H223990  -0.003   5.856  12.721  0.4803 -0.4158 -0.5044
  859TIP3   OH223991   1.360   2.959   3.624 -0.0224 -0.3859  0.3510
  859TIP3    H123992   1.423   2.913   3.680  2.0660  0.0653 -1.4841
  859TIP3    H223993   1.341   3.040   3.670 -0.0137 -0.9500  1.3764
  860TIP3   OH223994   5.358   5.320  12.878 -0.1615  0.0707  0.0411
  860TIP3    H123995   5.292   5.389  12.871  0.0715  0.4597  1.3020
  860TIP3    H223996   5.431   5.351  12.824 -0.9819 -0.3612 -1.3597
  861TIP3   OH223997   1.577   1.361   5.043 -0.1049 -0.0043  0.1035
  861TIP3    H123998   1.665   1.347   5.006  0.2790  2.1269  0.0606
  861TIP3    H223999   1.531   1.411   4.975 -1.0949 -0.4184  0.4592
  862TIP3   OH224000   1.252   1.220   1.532 -0.0397  0.5650  1.0601
  862TIP3    H124001   1.208   1.140   1.505 -0.3993  1.1651 -0.1963
  862TIP3    H224002   1.278   1.204   1.623  0.7399 -1.3138  0.5343
  863TIP3   OH224003   0.695   3.921   5.796 -0.3077  0.1711  0.4143
  863TIP3    H124004   0.776   3.960   5.828 -0.0171 -0.1948  0.1357
  863TIP3    H224005   0.700   3.931   5.701 -0.1545 -0.6742  0.3252
  864TIP3   OH224006   2.727   0.394   0.372 -0.1246  0.2934 -0.0451
  864TIP3    H124007   2.667   0.463   0.403  0.0292  0.4026  0.0119
  864TIP3    H224008   2.694   0.314   0.414 -1.1677  0.0735 -1.2435
  865TIP3   OH224009   6.209   3.058  15.081  0.3725  0.0798  0.4225
  865TIP3    H124010   6.147   3.129  15.097  2.0230  1.5587  0.4983
  865TIP3    H224011   6.197   3.036  14.989 -0.9080 -0.3431  0.6584
  866TIP3   OH224012   1.806   0.612   0.217  0.7253 -0.2450 -0.2043
  866TIP3    H124013   1.800   0.545   0.148 -1.1467  0.5174 -0.8357
  866TIP3    H224014   1.871   0.674   0.183 -1.1566  0.8627 -2.0275
  867TIP3   OH224015   0.038   6.339   4.083 -0.2083 -0.6527 -0.0737
  867TIP3    H124016  -0.055   6.320   4.092 -0.0955 -0.9925  0.3781
  867TIP3    H224017   0.082   6.266   4.127  0.2311  0.9289  2.2734
  868TIP3   OH224018   5.405   2.866  15.058  0.2590 -0.3261  0.4163
  868TIP3    H124019   5.350   2.888  14.982 -0.7042  1.5698  1.5714
  868TIP3    H224020   5.439   2.950  15.088  1.5580 -1.1666  1.4148
  869TIP3   OH224021   4.792   1.138  16.287  0.7087 -0.1883  0.1769
  869TIP3    H124022   4.773   1.183  16.370  0.8787 -0.5570  0.4170
  869TIP3    H224023   4.788   1.207  16.221 -0.4305 -0.0555  0.3532
  870TIP3   OH224024   3.191   0.119   0.473  0.2923 -0.3032 -0.5459
  870TIP3    H124025   3.200   0.160   0.387 -0.3120 -1.6500 -1.2823
  870TIP3    H224026   3.179   0.026   0.454  0.1443 -0.6270  1.0070
  871TIP3   OH224027   5.632   6.798   0.592  0.1392 -0.8971  0.3030
  871TIP3    H124028   5.582   6.749   0.658 -0.6220 -0.8361 -0.2174
  871TIP3    H224029   5.605   6.760   0.508  0.2086 -0.1816 -0.0518
  872TIP3   OH224030   4.062   1.316   1.203  0.2235 -0.0291 -0.0521
  872TIP3    H124031   4.109   1.239   1.171  1.4719  0.7384 -0.1267
  872TIP3    H224032   4.048   1.300   1.296 -0.9890 -1.0559 -0.3886
  873TIP3   OH224033   6.346   1.266   2.083  0.2831 -0.3080 -0.6720
  873TIP3    H124034   6.266   1.251   2.133  1.1872  1.0606  1.2813
  873TIP3    H224035   6.380   1.179   2.065  0.7465 -0.8909  2.5314
  874TIP3   OH224036   1.959   0.636   3.041 -0.2668  0.6963  1.1980
  874TIP3    H124037   1.966   0.703   3.109 -0.9194  2.0080  0.0376
  874TIP3    H224038   1.878   0.658   2.994  0.6137  0.4124 -0.5698
  875TIP3   OH224039   3.403   5.034   3.758  0.4315 -0.4914  0.3846
  875TIP3    H124040   3.331   5.029   3.821 -0.7811  0.9678 -0.7958
  875TIP3    H224041   3.478   5.063   3.810 -0.1881 -0.6321  1.3930
  876TIP3   OH224042   2.533   1.979   5.310  0.4782 -0.2961  0.2270
  876TIP3    H124043   2.470   1.908   5.327  0.3514 -0.0218  0.9231
  876TIP3    H224044   2.617   1.944   5.338  0.7157 -0.7950 -1.0362
  877TIP3   OH224045   5.274   2.974   4.688 -0.4322 -0.0137  0.8547
  877TIP3    H124046   5.339   2.960   4.619 -0.5637  0.6239  0.5998
  877TIP3    H224047   5.191   2.946   4.648 -0.2652 -1.3198  1.3485
  878TIP3   OH224048   0.267   0.744   4.964 -0.2688 -0.0059  0.4360
  878TIP3    H124049   0.329   0.775   5.030  3.1371  2.7466 -3.5768
  878TIP3    H224050   0.197   0.810   4.964  0.1447  0.4361  0.7150
  879TIP3   OH224051   6.643   4.486  13.018 -0.4531  0.4880 -0.4135
  879TIP3    H124052   6.640   4.396  12.985 -1.4364 -0.5109  2.2005
  879TIP3    H224053   6.569   4.493  13.078  0.1904  2.7417  0.2396
  880TIP3   OH224054   1.043   1.290  15.900 -0.0800  0.2522  0.1100
  880TIP3    H124055   1.035   1.197  15.880 -1.7781  0.4512 -0.3535
  880TIP3    H224056   0.998   1.334  15.828  2.1071  1.5537 -0.5500
  881TIP3   OH224057   0.273   0.926  11.042  0.4531  0.2227 -0.1040
  881TIP3    H124058   0.340   0.919  11.111  1.9565 -0.8905 -1.6055
  881TIP3    H224059   0.190   0.919  11.089  1.4215 -0.7973  1.5796
  882TIP3   OH224060   4.835   3.388  13.102  0.5797  0.5831 -0.0387
  882TIP3    H124061   4.745   3.360  13.120  0.0369  0.6774 -2.3700
  882TIP3    H224062   4.825   3.474  13.061  1.8014  0.9358  0.3628
  883TIP3   OH224063   5.488   0.729  12.182 -0.3907  0.5620 -0.0210
  883TIP3    H124064   5.537   0.687  12.112  0.4873 -0.2776  1.0444
  883TIP3    H224065   5.415   0.773  12.138  0.6500  0.8455 -1.5308
  884TIP3   OH224066   4.758   5.744  16.864 -0.1432  0.3618 -0.5067
  884TIP3    H124067   4.838   5.790  16.891 -0.2716  0.8652 -0.9703
  884TIP3    H224068   4.743   5.774  16.774 -0.5080 -0.2081 -0.6383
  885TIP3   OH224069   4.005   4.334  13.131  0.2358  0.1441 -0.5445
  885TIP3    H124070   4.014   4.429  13.119  0.0289  0.1457 -0.6727
  885TIP3    H224071   3.912   4.320  13.145  0.5759  0.3993  3.0191
  886TIP3   OH224072   3.395   2.821   2.115 -0.0265  0.4546 -0.3713
  886TIP3    H124073   3.432   2.734   2.102 -1.8837 -0.4929  0.2375
  886TIP3    H224074   3.454   2.865   2.176 -0.4289 -1.3559  1.3961
  887TIP3   OH224075   2.368   1.326   4.768  0.3351 -0.2178 -0.0839
  887TIP3    H124076   2.440   1.372   4.724  1.4289 -1.1988  0.5944
  887TIP3    H224077   2.409   1.288   4.846 -1.6614  2.0173  2.2013
  888TIP3   OH224078   3.683   0.579  13.766  0.7507  0.7183  0.0076
  888TIP3    H124079   3.636   0.540  13.840  2.0500 -1.5960 -0.2789
  888TIP3    H224080   3.632   0.553  13.689  0.9801  0.5906 -0.1024
  889TIP3   OH224081   5.341   0.890   5.726 -0.3953 -0.4363 -0.3341
  889TIP3    H124082   5.414   0.949   5.705 -1.7047  1.0063 -1.0099
  889TIP3    H224083   5.326   0.841   5.646 -2.8055  2.2569 -1.7201
  890TIP3   OH224084   5.039   0.934  15.251  0.1102  0.0268 -0.6015
  890TIP3    H124085   5.129   0.923  15.219  0.6715  0.2893  0.7951
  890TIP3    H224086   5.035   0.879  15.329 -0.6179  0.8426 -0.0533
  891TIP3   OH224087   6.489   0.858  14.647  0.4264 -0.0758  0.2431
  891TIP3    H124088   6.549   0.857  14.573  0.1516  1.2445 -0.0256
  891TIP3    H224089   6.435   0.780  14.636  1.6146 -0.9042  0.1015
  892TIP3   OH224090   6.620   5.820  14.868 -0.0956  0.7459  0.3872
  892TIP3    H124091   6.680   5.773  14.926  0.1598 -0.2675 -0.6782
  892TIP3    H224092   6.569   5.751  14.825  0.4089  1.4095 -1.3528
  893TIP3   OH224093   1.117   2.037   0.504 -0.8580 -0.3286  0.0199
  893TIP3    H124094   1.195   2.054   0.452 -2.0157 -1.6314 -2.2856
  893TIP3    H224095   1.148   1.983   0.577  0.3721 -0.9060 -0.8965
  894TIP3   OH224096   3.476   4.171  14.751 -0.4213 -0.3247 -0.3051
  894TIP3    H124097   3.532   4.238  14.713 -2.1139 -0.6809 -3.8016
  894TIP3    H224098   3.389   4.212  14.756 -0.7786 -1.1573  0.8690
  895TIP3   OH224099   0.070   3.380  14.025 -0.0149  0.6994 -0.1065
  895TIP3    H124100   0.150   3.407  13.980 -0.8961  1.2253 -1.3960
  895TIP3    H224101   0.098   3.309  14.083  1.0733 -0.4038 -1.8948
  896TIP3   OH224102   2.993   2.133  13.539  0.1903  0.4090 -0.0367
  896TIP3    H124103   2.953   2.134  13.625 -0.3074 -1.3556 -0.1986
  896TIP3    H224104   3.037   2.218  13.531  0.6498  0.4263  2.1293
  897TIP3   OH224105   1.504   6.559   3.945  0.0980  0.0824 -0.2542
  897TIP3    H124106   1.551   6.492   3.895  0.0217  0.3351 -0.6721
  897TIP3    H224107   1.468   6.512   4.021  0.0551 -0.3445 -0.5342
  898TIP3   OH224108   3.772   5.596  15.654 -0.1445 -0.5862 -0.2944
  898TIP3    H124109   3.859   5.635  15.663  0.3808 -1.7872  0.0847
  898TIP3    H224110   3.720   5.637  15.723  0.5817 -1.0418  0.5379
  899TIP3   OH224111   1.791   0.439  12.693 -0.0459 -0.5546  0.8622
  899TIP3    H124112   1.706   0.449  12.736 -0.1476 -1.2371  0.8382
  899TIP3    H224113   1.770   0.397  12.609  0.3142 -0.6926  0.8409
  900TIP3   OH224114   3.056   6.404  15.365  0.4450  0.1628  0.5921
  900TIP3    H124115   2.989   6.336  15.376  1.5123 -0.6467  2.6577
  900TIP3    H224116   3.058   6.421  15.271  0.9331 -3.5655 -0.2323
  901TIP3   OH224117   3.080   0.521   3.700 -0.1446 -0.4724  0.2637
  901TIP3    H124118   3.004   0.574   3.725  0.2668  1.0014 -1.3947
  901TIP3    H224119   3.132   0.514   3.780 -1.5243 -0.6795  1.1759
  902TIP3   OH224120   3.066   4.751   4.415 -0.6505 -0.1191 -0.1412
  902TIP3    H124121   3.124   4.820   4.445  1.3741 -1.6079 -0.4456
  902TIP3    H224122   3.053   4.770   4.322 -2.0853  1.1534  0.2805
  903TIP3   OH224123   3.253   4.010  10.653 -0.4498 -0.0647 -0.1988
  903TIP3    H124124   3.217   4.061  10.580 -0.5023 -1.5207 -1.2250
  903TIP3    H224125   3.195   4.032  10.727 -1.1229  0.5301 -0.8772
  904TIP3   OH224126   6.389   3.827   1.464  0.2164  0.7066 -0.5605
  904TIP3    H124127   6.471   3.809   1.509  1.1935  0.1663 -2.4575
  904TIP3    H224128   6.378   3.754   1.403 -2.4041  0.0300  0.5599
  905TIP3   OH224129   5.023   5.540  13.145  0.2115  0.0849  0.5489
  905TIP3    H124130   4.933   5.510  13.158 -0.1674  0.9522 -0.0074
  905TIP3    H224131   5.041   5.525  13.053  0.6836 -0.2057  0.6871
  906TIP3   OH224132   0.126   2.737   0.461 -0.4935  0.6771  0.0877
  906TIP3    H124133   0.070   2.809   0.490 -1.4574 -0.8643  2.2848
  906TIP3    H224134   0.213   2.760   0.493 -0.1841  2.0843 -1.5637
  907TIP3   OH224135   1.952   5.863   5.965  0.0909  0.0883  0.2680
  907TIP3    H124136   1.877   5.892   6.015 -0.6390 -1.0757 -0.1078
  907TIP3    H224137   1.916   5.805   5.898  1.4929 -2.2616  1.4024
  908TIP3   OH224138   3.747   2.333   4.597 -1.1897  0.3892 -0.5488
  908TIP3    H124139   3.697   2.377   4.529 -2.4654 -0.1101  0.0474
  908TIP3    H224140   3.831   2.380   4.599 -0.2129 -0.9758 -3.9544
  909TIP3   OH224141   3.075   2.058   4.210 -0.1361 -0.2747 -0.5348
  909TIP3    H124142   3.025   1.978   4.191 -1.6032  0.0506  1.5798
  909TIP3    H224143   3.051   2.118   4.140  0.3300 -1.3688 -1.6848
  910TIP3   OH224144   0.209   6.756   3.923 -0.7002 -0.0256 -0.2047
  910TIP3    H124145   0.236   6.831   3.976  0.2009  0.4275 -1.2535
  910TIP3    H224146   0.243   6.775   3.836 -5.6089  1.3313 -2.1819
  911TIP3   OH224147   3.276   0.150   1.717  0.3274 -0.7070 -0.4120
  911TIP3    H124148   3.318   0.169   1.633  1.1033 -0.0001  0.1195
  911TIP3    H224149   3.335   0.188   1.782 -1.0006  0.0611  0.3866
  912TIP3   OH224150   6.082   1.685  12.321 -0.2507  0.1168  0.0776
  912TIP3    H124151   5.993   1.706  12.351 -0.5183 -0.7427 -0.0826
  912TIP3    H224152   6.095   1.594  12.346  0.3171  0.0218 -0.5325
  913TIP3   OH224153   2.084   1.201  14.229 -0.0051 -0.1555 -0.0723
  913TIP3    H124154   2.058   1.134  14.165 -0.6148  0.1535 -0.1587
  913TIP3    H224155   2.099   1.153  14.310  1.1030 -0.6013 -0.5139
  914TIP3   OH224156   1.850   5.811  13.799 -0.1374  0.2140 -0.2293
  914TIP3    H124157   1.901   5.891  13.786  1.0671 -0.5551 -0.4182
  914TIP3    H224158   1.795   5.830  13.875 -1.6053  2.0231 -1.6450
  915TIP3   OH224159   6.783   1.571  16.749  0.6057 -0.0294  0.2551
  915TIP3    H124160   6.719   1.583  16.819  0.8460 -0.3836  0.5405
  915TIP3    H224161   6.866   1.555  16.795  0.7301 -0.4531 -0.1106
  916TIP3   OH224162   0.173   2.013  11.871  0.7963  0.4479 -0.3496
  916TIP3    H124163   0.159   1.924  11.902 -0.4699  1.6687  3.1128
  916TIP3    H224164   0.200   2.003  11.780  0.8676 -3.4299 -0.0752
  917TIP3   OH224165   1.768   6.420  15.699 -0.4509 -0.0421 -0.2824
  917TIP3    H124166   1.765   6.468  15.782  1.5652  2.1277 -1.3592
  917TIP3    H224167   1.731   6.334  15.720 -1.0376  0.8042  2.5761
  918TIP3   OH224168   0.222   3.145   0.088 -0.0373 -0.2267 -0.0185
  918TIP3    H124169   0.210   3.095   0.007 -0.1295 -1.0390  0.4862
  918TIP3    H224170   0.210   3.080   0.158  0.0565  0.4628  0.6446
  919TIP3   OH224171   4.272   0.089   0.697 -0.1908  0.1076  0.3251
  919TIP3    H124172   4.212   0.014   0.698 -2.0364  1.4346 -1.4902
  919TIP3    H224173   4.250   0.137   0.777 -1.1928  0.2531 -0.0119
  920TIP3   OH224174   2.927   0.831  15.743 -0.3381  0.0505 -0.2391
  920TIP3    H124175   2.961   0.787  15.666 -1.1634 -1.7315  0.3411
  920TIP3    H224176   2.921   0.762  15.809 -2.2551  0.8936  0.5590
  921TIP3   OH224177   6.270   1.553   0.779 -0.5298 -0.1428 -0.3502
  921TIP3    H124178   6.335   1.617   0.809  0.3549 -0.2719 -1.9054
  921TIP3    H224179   6.224   1.527   0.859  0.6143  0.7428  0.6401
  922TIP3   OH224180   3.233   5.124  11.681  0.6400  0.2755  0.0159
  922TIP3    H124181   3.149   5.160  11.655 -0.8790 -1.2880  2.3570
  922TIP3    H224182   3.240   5.144  11.775  2.2533 -0.7611  0.1700
  923TIP3   OH224183   5.733   6.231  14.888  0.6655  0.5654 -0.1274
  923TIP3    H124184   5.750   6.277  14.806 -0.6177  0.4411 -0.4836
  923TIP3    H224185   5.665   6.283  14.931  0.4787 -0.0197  0.3057
  924TIP3   OH224186   2.044   1.220   0.447  0.2176  0.0365 -0.4413
  924TIP3    H124187   2.056   1.147   0.508 -0.6375  0.2966  0.0472
  924TIP3    H224188   2.123   1.273   0.458 -0.1279  0.3314  0.8086
  925TIP3   OH224189   4.232   0.215  15.125  0.6476 -0.2823 -0.9448
  925TIP3    H124190   4.144   0.219  15.089  0.6005 -0.1431 -0.8171
  925TIP3    H224191   4.289   0.210  15.048  0.4950 -1.0899 -1.0092
  926TIP3   OH224192   4.826   0.223  12.343 -0.3592  0.0643  0.0420
  926TIP3    H124193   4.745   0.274  12.330  1.2983  2.7575 -0.5067
  926TIP3    H224194   4.796   0.132  12.348 -3.3248  0.8437 -1.1206
  927TIP3   OH224195   2.398   0.287  15.487 -1.0125  0.4389  0.1124
  927TIP3    H124196   2.433   0.216  15.540 -0.9822  0.9994  0.8487
  927TIP3    H224197   2.392   0.362  15.546 -1.5070  0.9219 -0.5260
  928TIP3   OH224198   1.920   5.867   3.964 -0.7580 -0.1897 -0.1830
  928TIP3    H124199   1.843   5.923   3.954 -0.0567  1.0591  1.0248
  928TIP3    H224200   1.910   5.828   4.051 -0.3617 -0.5605 -0.2984
  929TIP3   OH224201   6.611   5.631  16.625  0.6407 -0.0104 -0.3960
  929TIP3    H124202   6.564   5.697  16.574 -1.5359 -1.1199  0.0836
  929TIP3    H224203   6.631   5.674  16.708 -2.0300 -0.2687  0.4847
  930TIP3   OH224204   2.989   5.786   0.065 -0.0269 -0.1415  0.0722
  930TIP3    H124205   2.926   5.839   0.115 -0.7754 -0.9507  0.0231
  930TIP3    H224206   2.965   5.695   0.085  1.6728 -0.4875  0.7058
  931TIP3   OH224207   4.261   0.515   5.922 -0.0864 -0.2904 -0.2688
  931TIP3    H124208   4.353   0.540   5.933 -0.0651 -0.4386 -0.1199
  931TIP3    H224209   4.240   0.466   6.001 -0.3422 -0.1131 -0.2270
  932TIP3   OH224210   4.955   5.896   4.035 -0.3163 -0.7590 -0.0110
  932TIP3    H124211   4.887   5.835   4.064 -1.9237  1.3661  0.9716
  932TIP3    H224212   5.004   5.916   4.115 -0.8090  0.3899  0.0172
  933TIP3   OH224213   5.926   1.473   1.421 -0.1910 -0.0740 -0.0397
  933TIP3    H124214   5.905   1.437   1.508  1.0027  0.5638  0.5369
  933TIP3    H224215   5.973   1.403   1.377 -2.0879 -0.9589 -0.7793
  934TIP3   OH224216   6.801   5.803   4.785 -0.1099 -0.3895 -0.1594
  934TIP3    H124217   6.718   5.766   4.814  0.1861 -1.2765 -0.4098
  934TIP3    H224218   6.790   5.898   4.795 -0.5885 -0.5744  1.2723
  935TIP3   OH224219   5.246   6.177   0.011  0.1355 -0.0056 -0.1557
  935TIP3    H124220   5.256   6.118  -0.064 -0.7264  0.4030 -0.6066
  935TIP3    H224221   5.325   6.163   0.063  0.1549 -1.2529 -0.4696
  936TIP3   OH224222   3.841   2.250  11.626  0.0898  0.7206  0.0469
  936TIP3    H124223   3.869   2.179  11.685 -0.6464 -1.1603 -1.7482
  936TIP3    H224224   3.910   2.254  11.560  1.1153  3.0979  1.1575
  937TIP3   OH224225   5.021   2.961  12.244 -0.8752 -0.0703 -0.6501
  937TIP3    H124226   5.062   3.027  12.187 -1.3752  0.3033 -0.5886
  937TIP3    H224227   4.928   2.984  12.243 -0.6560  1.3771  2.1156
  938TIP3   OH224228   1.480   2.695   1.572 -0.0845 -0.4900 -0.6984
  938TIP3    H124229   1.395   2.652   1.572  0.1606 -0.9973 -1.0645
  938TIP3    H224230   1.461   2.789   1.577 -0.7069 -0.5381 -1.8476
  939TIP3   OH224231   2.465   3.829   3.293 -0.1156  0.5475 -0.5640
  939TIP3    H124232   2.410   3.826   3.214  0.1268  0.6368 -0.7391
  939TIP3    H224233   2.415   3.884   3.354  0.7536  2.5040 -1.5012
  940TIP3   OH224234   0.984   2.699  11.965 -0.4323 -0.0389  0.0316
  940TIP3    H124235   0.965   2.686  11.872 -0.2701  0.1877 -0.0328
  940TIP3    H224236   0.918   2.762  11.994 -0.3994 -0.0073  0.0387
  941TIP3   OH224237   6.455   0.700  14.213  0.0233  0.4073 -0.1703
  941TIP3    H124238   6.370   0.689  14.256  0.5814 -0.1615  0.8027
  941TIP3    H224239   6.472   0.615  14.173  0.9301 -0.0440  1.1212
  942TIP3   OH224240   4.747   1.040   5.112 -0.1364  0.6224  0.2344
  942TIP3    H124241   4.815   1.022   5.177  0.9747  0.7055 -0.8777
  942TIP3    H224242   4.670   0.991   5.143  0.3028  0.8101  1.6938
  943TIP3   OH224243   0.100   4.317   4.161 -0.0924 -0.3438 -0.1417
  943TIP3    H124244   0.175   4.370   4.134  0.3290 -1.2566 -0.8268
  943TIP3    H224245   0.138   4.232   4.184 -0.8533 -0.6359  0.0529
  944TIP3   OH224246   4.375   4.948   2.995 -0.5662 -0.2582 -0.1484
  944TIP3    H124247   4.346   4.872   2.943  0.5066 -1.9839  1.6406
  944TIP3    H224248   4.313   4.952   3.068 -0.6252  0.6230 -0.2362
  945TIP3   OH224249   0.064   3.032  16.568  0.6628  0.0169 -0.1468
  945TIP3    H124250  -0.016   3.025  16.620  0.9844  0.0471  0.3688
  945TIP3    H224251   0.114   2.954  16.591  1.4622  0.7468  0.7495
  946TIP3   OH224252   2.341   0.469   6.663 -0.4052 -0.1021  0.3827
  946TIP3    H124253   2.332   0.538   6.728 -1.1651  0.2451 -0.0770
  946TIP3    H224254   2.421   0.422   6.688  1.2169  2.0943 -0.4027
  947TIP3   OH224255   0.845   1.746  13.337 -0.0624 -0.2201  0.4334
  947TIP3    H124256   0.888   1.708  13.260 -0.2984  1.0507 -0.3720
  947TIP3    H224257   0.755   1.763  13.308 -0.4471 -0.6668  1.3329
  948TIP3   OH224258   6.757   0.738   1.061  0.1902 -0.2862  0.1264
  948TIP3    H124259   6.739   0.644   1.068  2.9314 -0.8574  0.9271
  948TIP3    H224260   6.678   0.775   1.022 -1.3210 -2.7769  0.6069
  949TIP3   OH224261   2.484   1.406  13.342  0.3454 -0.7875  0.1133
  949TIP3    H124262   2.476   1.494  13.306 -0.0342 -0.4411  1.0141
  949TIP3    H224263   2.511   1.352  13.268  0.6590  0.0977 -0.4312
  950TIP3   OH224264   3.477   4.903   0.031 -0.5957 -0.0986  0.1919
  950TIP3    H124265   3.464   4.998   0.038  2.7963  0.3747  2.3309
  950TIP3    H224266   3.430   4.866   0.106  0.3114  0.2292  0.9354
  951TIP3   OH224267   0.967   6.649   0.678  0.1774 -0.1985  0.0925
  951TIP3    H124268   0.881   6.622   0.646 -0.2748  3.1512 -1.9222
  951TIP3    H224269   1.016   6.671   0.599  2.0297  0.3652  1.3511
  952TIP3   OH224270   5.079   6.528   4.979 -0.4387 -0.1969 -0.0144
  952TIP3    H124271   5.163   6.563   5.007 -0.2984 -0.4842 -0.0747
  952TIP3    H224272   5.059   6.460   5.043 -1.7079  1.3524  1.3512
  953TIP3   OH224273   6.250   6.733  11.022  0.0918 -0.7695 -0.0518
  953TIP3    H124274   6.303   6.778  10.956 -0.1421 -0.9272 -0.3491
  953TIP3    H224275   6.300   6.655  11.044  0.8788 -0.0015  1.0279
  954TIP3   OH224276   6.502   6.422   3.356  0.1944 -0.1453  0.6178
  954TIP3    H124277   6.459   6.422   3.442 -2.1146  0.0663 -0.4444
  954TIP3    H224278   6.577   6.479   3.367 -0.5194  0.5528  2.2949
  955TIP3   OH224279   0.357   2.731  12.242  0.0625  0.2009  0.6112
  955TIP3    H124280   0.318   2.687  12.166  0.0129  0.5870  0.4101
  955TIP3    H224281   0.451   2.719  12.231  0.0279 -0.4780  0.9409
  956TIP3   OH224282   3.514   5.153  11.102  0.5745  0.1838  0.1217
  956TIP3    H124283   3.564   5.108  11.034 -0.1433  0.2896 -0.4872
  956TIP3    H224284   3.450   5.206  11.054 -0.8293 -0.7572  0.8823
  957TIP3   OH224285   2.248   4.503   3.934 -0.2265  0.5405  0.1217
  957TIP3    H124286   2.233   4.458   4.018 -1.8968 -0.4792 -0.6647
  957TIP3    H224287   2.244   4.596   3.956  0.2209  0.3088  1.3010
  958TIP3   OH224288   1.147   0.870  15.482  0.0346 -0.1692 -0.5181
  958TIP3    H124289   1.115   0.878  15.392 -0.5879 -0.4245 -0.3282
  958TIP3    H224290   1.167   0.960  15.509 -0.0108 -0.0651 -0.8329
  959TIP3   OH224291   4.325   6.020  13.109 -0.6249  0.2660  0.3381
  959TIP3    H124292   4.332   5.945  13.049  0.9016 -0.8654  1.8380
  959TIP3    H224293   4.321   5.981  13.196 -3.0120  1.8614  1.0376
  960TIP3   OH224294   1.423   3.163  16.882  0.6674 -0.0240  0.4301
  960TIP3    H124295   1.378   3.105  16.944  0.6443  0.3267  0.7456
  960TIP3    H224296   1.379   3.147  16.798  1.4029 -1.2916  0.2633
  961TIP3   OH224297   0.022   0.365   0.418  0.2649  0.0112  0.0049
  961TIP3    H124298  -0.036   0.294   0.447  0.6021  0.3879  1.7074
  961TIP3    H224299  -0.007   0.441   0.468  1.8630  0.3402  0.4783
  962TIP3   OH224300   3.429   0.399  16.698 -0.1388 -0.0189 -0.3968
  962TIP3    H124301   3.475   0.465  16.751 -0.7740 -0.1315  0.3237
  962TIP3    H224302   3.378   0.450  16.635  1.7258  0.0885 -1.8965
  963TIP3   OH224303   5.201   4.451   2.244 -0.1228  0.2409 -0.2360
  963TIP3    H124304   5.143   4.460   2.319  1.4508  0.7289  0.9800
  963TIP3    H224305   5.144   4.464   2.168 -1.5107  1.1001  0.8917
  964TIP3   OH224306   1.276   4.539   3.805  0.0796 -0.3267 -0.5003
  964TIP3    H124307   1.254   4.467   3.864  1.1259  0.9140  1.5183
  964TIP3    H224308   1.366   4.523   3.779 -0.8531 -1.8109 -3.3665
  965TIP3   OH224309   5.914   4.155  13.914 -0.0405  0.4343  0.8716
  965TIP3    H124310   5.921   4.195  14.000  0.0196 -2.8481  2.5636
  965TIP3    H224311   5.998   4.112  13.901 -1.3825 -2.6146  1.2445
  966TIP3   OH224312   3.744   3.597  15.206 -0.6027 -0.1582 -0.6003
  966TIP3    H124313   3.764   3.562  15.293 -0.7333  1.8989  0.3311
  966TIP3    H224314   3.690   3.530  15.165 -0.2410 -1.3475  0.7603
  967TIP3   OH224315   2.105   6.361  14.084 -0.8271  0.1955 -0.7367
  967TIP3    H124316   2.131   6.390  14.172  0.7384 -0.2332 -1.0365
  967TIP3    H224317   2.126   6.268  14.082 -1.9343 -0.0536 -1.1905
  968TIP3   OH224318   5.964   0.562   1.595  0.1011  0.2692 -0.0997
  968TIP3    H124319   5.918   0.479   1.590  0.5146  0.1101 -3.2351
  968TIP3    H224320   5.928   0.614   1.523  2.8095  1.1435 -0.9537
  969TIP3   OH224321   0.027   6.222   5.832  0.0495  0.3606 -0.3577
  969TIP3    H124322   0.084   6.299   5.839 -0.0655  0.3497  0.9577
  969TIP3    H224323  -0.054   6.248   5.875  0.2710 -0.7233  0.7706
  970TIP3   OH224324   5.910   2.886  12.536 -0.0169  0.4922 -0.5226
  970TIP3    H124325   5.915   2.963  12.480  1.6452  0.1746 -0.8689
  970TIP3    H224326   5.942   2.814  12.482  0.5376 -0.0330  0.4593
  971TIP3   OH224327   4.186   6.202   5.580  0.0058 -0.0910 -0.1184
  971TIP3    H124328   4.234   6.124   5.609  0.6776 -0.1845 -1.4258
  971TIP3    H224329   4.099   6.192   5.619  0.1824 -1.3432 -0.0072
  972TIP3   OH224330   3.333   4.523   2.083  0.6284 -0.7052  0.0081
  972TIP3    H124331   3.313   4.436   2.118  0.0201 -1.1174 -1.3202
  972TIP3    H224332   3.299   4.521   1.994  2.9650 -0.0030 -0.9577
  973TIP3   OH224333   4.626   6.634  12.243  0.7933 -0.1712 -0.0187
  973TIP3    H124334   4.697   6.619  12.180  1.9972 -0.7574  1.4102
  973TIP3    H224335   4.658   6.706  12.298  0.6665 -0.9833  1.1499
  974TIP3   OH224336   5.211   5.483   4.798 -0.5449 -0.3130 -0.4798
  974TIP3    H124337   5.132   5.447   4.838  1.0977 -1.9876  1.4705
  974TIP3    H224338   5.260   5.520   4.871  2.2086 -2.7311 -0.9355
  975TIP3   OH224339   0.099   5.320  15.554 -0.5404 -0.1727 -0.6428
  975TIP3    H124340   0.191   5.322  15.527  0.0399  0.8586  1.2328
  975TIP3    H224341   0.079   5.227  15.563  1.8245 -0.5721  3.3198
  976TIP3   OH224342   4.377   0.615   5.106  0.2988  0.2271  0.3086
  976TIP3    H124343   4.384   0.531   5.151  0.8766 -0.3637 -0.8289
  976TIP3    H224344   4.349   0.677   5.174  0.0291 -0.8420  1.2019
  977TIP3   OH224345   5.920   5.555   4.787 -0.5106 -0.1500  0.4314
  977TIP3    H124346   5.889   5.465   4.799  0.9999 -0.7786 -0.1671
  977TIP3    H224347   5.943   5.561   4.695 -1.9230  1.3207  0.1327
  978TIP3   OH224348   4.226   2.965   1.917  0.3695 -0.2526  0.0708
  978TIP3    H124349   4.199   3.045   1.962  0.3526 -0.7520  0.9618
  978TIP3    H224350   4.266   2.911   1.985  0.1770 -1.0998 -0.4702
  979TIP3   OH224351   3.247   1.567   1.334 -0.3927 -0.4130  0.0257
  979TIP3    H124352   3.298   1.531   1.407  1.2847  0.6599 -0.5619
  979TIP3    H224353   3.279   1.520   1.257  0.0522  0.5614 -0.4040
  980TIP3   OH224354   2.206   3.233  11.590  0.0974 -0.0815  0.3438
  980TIP3    H124355   2.206   3.137  11.591  2.1532 -0.1295 -0.1036
  980TIP3    H224356   2.258   3.258  11.667 -2.1235  0.7687  1.6494
  981TIP3   OH224357   1.475   6.106  11.956  0.0035 -0.6864 -0.0649
  981TIP3    H124358   1.416   6.076  12.025 -0.3562 -1.7616 -0.8094
  981TIP3    H224359   1.441   6.193  11.932 -2.8563 -2.2210 -2.1217
  982TIP3   OH224360   3.240   2.748   1.759 -0.0814  0.0553 -0.3061
  982TIP3    H124361   3.235   2.798   1.677 -0.2653  0.4009 -0.0846
  982TIP3    H224362   3.219   2.812   1.827 -0.6146 -0.3952 -0.0427
  983TIP3   OH224363   4.324   0.035  15.308  0.5689  0.0108 -0.1344
  983TIP3    H124364   4.282   0.106  15.258  1.6684  0.7104 -0.1136
  983TIP3    H224365   4.278   0.035  15.392  0.1621  0.3050 -0.3495
  984TIP3   OH224366   6.353   3.732  14.480  0.0952 -0.4022  0.0355
  984TIP3    H124367   6.358   3.797  14.550 -0.7706  0.8294 -0.9936
  984TIP3    H224368   6.442   3.698  14.472  0.3176 -0.1959  1.3683
  985TIP3   OH224369   0.503   4.837  13.214 -0.4169 -0.2392  1.2676
  985TIP3    H124370   0.480   4.874  13.129 -0.5790  1.1810  1.9030
  985TIP3    H224371   0.485   4.743  13.205 -2.4277  0.1761  0.3811
  986TIP3   OH224372   4.910   3.909  13.420  0.0427 -0.6234  0.0385
  986TIP3    H124373   4.831   3.918  13.367 -0.1308  0.7408  0.4960
  986TIP3    H224374   4.880   3.867  13.501 -0.3599  0.4959  0.4873
  987TIP3   OH224375   2.480   5.499  14.840  0.0174  0.4331  0.1200
  987TIP3    H124376   2.491   5.485  14.934  1.6611 -1.3663 -0.2590
  987TIP3    H224377   2.568   5.519  14.808 -0.7395  2.4945 -0.8834
  988TIP3   OH224378   1.307   6.127  10.641  0.3353  0.2734  0.6567
  988TIP3    H124379   1.278   6.202  10.589  1.1042  2.4896  3.1909
  988TIP3    H224380   1.377   6.088  10.588 -0.9396  0.4686 -1.3075
  989TIP3   OH224381   5.095   3.622   2.977 -0.0625 -0.0710  0.3260
  989TIP3    H124382   5.005   3.653   2.987  0.3035  0.9933  0.5513
  989TIP3    H224383   5.128   3.618   3.067  0.3837  0.4166  0.1858
  990TIP3   OH224384   2.098   0.215  13.137  0.0464  0.4551 -0.6812
  990TIP3    H124385   2.036   0.265  13.084  0.5717  0.2489 -1.5059
  990TIP3    H224386   2.160   0.281  13.169 -0.1903  0.5590 -0.4309
  991TIP3   OH224387   3.877   3.337  11.220 -0.2038  0.8521 -0.3190
  991TIP3    H124388   3.963   3.366  11.250  0.5459 -0.0241 -1.5185
  991TIP3    H224389   3.856   3.397  11.148 -1.0554  1.6699  0.5909
  992TIP3   OH224390   4.298   5.466   4.703 -0.1656  0.3033 -0.1797
  992TIP3    H124391   4.370   5.513   4.745  0.4327 -1.4508  0.8664
  992TIP3    H224392   4.235   5.449   4.773 -1.3493  1.2805 -0.9628
  993TIP3   OH224393   0.243   6.706   1.786  0.0025  0.0132 -0.1131
  993TIP3    H124394   0.177   6.760   1.742  0.4330  0.1369 -0.6157
  993TIP3    H224395   0.313   6.768   1.808  0.5522 -0.3455 -0.7902
  994TIP3   OH224396   3.356   2.297   3.376 -0.1097  0.0999  0.2567
  994TIP3    H124397   3.277   2.330   3.418 -1.4613 -1.2922 -1.0886
  994TIP3    H224398   3.417   2.284   3.449 -0.8850  1.7176  1.2537
  995TIP3   OH224399   5.608   6.198  15.956  0.1157 -0.3519 -0.3358
  995TIP3    H124400   5.643   6.261  16.019  1.0693 -0.5576 -0.6459
  995TIP3    H224401   5.677   6.133  15.946  0.5939  0.3837 -2.6145
  996TIP3   OH224402   3.840   2.264  15.119 -0.3128 -0.2957 -0.1589
  996TIP3    H124403   3.787   2.184  15.124  1.6310 -2.0321 -3.5758
  996TIP3    H224404   3.798   2.316  15.051 -0.7583  1.0538  1.0819
  997TIP3   OH224405   2.191   2.872   5.659  0.2595  0.1257  0.1095
  997TIP3    H124406   2.173   2.822   5.579 -0.8038  0.2595  0.2417
  997TIP3    H224407   2.113   2.858   5.713  0.1746  1.4758  0.3713
  998TIP3   OH224408   0.844   3.031   4.607 -0.9282 -0.0358  0.0926
  998TIP3    H124409   0.921   2.986   4.572 -1.4488  0.1827 -1.4295
  998TIP3    H224410   0.876   3.078   4.684 -0.1803 -2.2717  1.2221
  999TIP3   OH224411   2.684   2.214  12.250  0.6709 -0.3023 -0.4340
  999TIP3    H124412   2.740   2.250  12.319  0.1111 -0.9009  0.3538
  999TIP3    H224413   2.650   2.291  12.204  0.7109  0.1260  0.2332
 1000TIP3   OH224414   5.812   5.694   5.373 -0.2832  0.2110  0.4522
 1000TIP3    H124415   5.806   5.789   5.376  0.8426  0.2623  2.1408
 1000TIP3    H224416   5.836   5.668   5.462 -0.3128 -1.6349 -0.0327
 1001TIP3   OH224417   2.542   1.274   3.574  0.3313 -0.5519 -0.4710
 1001TIP3    H124418   2.596   1.203   3.608  0.8405  0.0545 -0.0038
 1001TIP3    H224419   2.597   1.351   3.578 -0.6577  0.1461  0.3313
 1002TIP3   OH224420   3.568   0.018   1.688 -0.1109  0.1224 -0.5098
 1002TIP3    H124421   3.573   0.098   1.740 -1.6002  1.1689 -1.8858
 1002TIP3    H224422   3.639   0.026   1.625 -1.6413  1.5634 -2.1587
 1003TIP3   OH224423   0.584   6.373  12.883  0.3340  0.7332  0.5080
 1003TIP3    H124424   0.564   6.294  12.933  0.8509  0.6522  0.5973
 1003TIP3    H224425   0.591   6.343  12.793  0.0990  0.7551  0.4813
 1004TIP3   OH224426   5.862   3.733  11.650  0.0613 -0.2906 -0.0053
 1004TIP3    H124427   5.854   3.639  11.667  3.4239 -0.9453 -1.2700
 1004TIP3    H224428   5.935   3.740  11.588 -1.4821  3.0274 -1.6999
 1005TIP3   OH224429   2.495   2.367   4.725  0.1500  0.3102  0.3507
 1005TIP3    H124430   2.485   2.340   4.816 -0.7157 -0.8818 -0.0822
 1005TIP3    H224431   2.554   2.302   4.687  0.4257  0.7442  0.0258
 1006TIP3   OH224432   5.320   1.582   3.281 -0.4847  0.1287 -0.2578
 1006TIP3    H124433   5.393   1.523   3.300 -0.4626  0.1828 -0.1747
 1006TIP3    H224434   5.268   1.535   3.216 -1.1099 -0.5015  0.6789
 1007TIP3   OH224435   1.767   6.553  11.484 -0.1357 -0.0954 -0.0106
 1007TIP3    H124436   1.819   6.548  11.403 -1.9873 -0.8928 -1.2212
 1007TIP3    H224437   1.799   6.480  11.537 -1.8570 -2.4847 -1.9894
 1008TIP3   OH224438   6.692   6.569  16.492 -0.3884  0.1473 -0.5500
 1008TIP3    H124439   6.663   6.659  16.509  2.3899  1.2245 -0.8701
 1008TIP3    H224440   6.702   6.564  16.397  0.3881 -0.1606 -0.4608
 1009TIP3   OH224441   4.628   0.170  16.242 -0.2662 -0.0900 -0.1592
 1009TIP3    H124442   4.679   0.090  16.233 -1.2643 -0.6621 -0.8284
 1009TIP3    H224443   4.547   0.153  16.196 -1.2982  0.6166  1.2989
 1010TIP3   OH224444   6.450   2.264   4.729 -0.0037 -0.2784 -0.5535
 1010TIP3    H124445   6.378   2.303   4.778  0.6566  0.1465  0.0765
 1010TIP3    H224446   6.529   2.294   4.773  0.6070  0.1106 -1.8656
 1011TIP3   OH224447   1.634   5.205   5.019 -0.3628  0.3334 -0.4624
 1011TIP3    H124448   1.618   5.220   4.926 -1.2421  1.7053 -0.1182
 1011TIP3    H224449   1.600   5.118   5.036 -2.1793  0.8967 -0.9992
 1012TIP3   OH224450   6.408   3.610  16.817  0.3843 -0.0728 -0.3530
 1012TIP3    H124451   6.436   3.524  16.851  0.2863 -0.2737 -0.7784
 1012TIP3    H224452   6.391   3.662  16.896 -2.2995 -1.3177  0.0257
 1013TIP3   OH224453   0.005   5.718  10.425 -0.3710 -0.0706  0.3507
 1013TIP3    H124454   0.062   5.700  10.499 -0.6183 -0.3516  0.4744
 1013TIP3    H224455   0.040   5.664  10.354  0.4284  0.8905 -0.0120
 1014TIP3   OH224456   4.020   5.229  13.864 -0.4565  0.3994 -0.3932
 1014TIP3    H124457   4.089   5.215  13.929  0.9997  1.6167 -1.5980
 1014TIP3    H224458   3.977   5.310  13.892 -1.3203 -0.2664  0.2601
 1015TIP3   OH224459   4.523   0.058  15.566  0.6137  0.4989  0.3954
 1015TIP3    H124460   4.501   0.128  15.628 -0.5466  0.9477 -0.4899
 1015TIP3    H224461   4.578  -0.002  15.616 -0.8437  0.4902  2.0676
 1016TIP3   OH224462   5.991   2.343  14.444  0.0487  0.4227 -0.7024
 1016TIP3    H124463   6.067   2.290  14.418 -0.1408 -0.0094 -0.3890
 1016TIP3    H224464   5.995   2.346  14.539 -1.8549 -1.9842 -0.4274
 1017TIP3   OH224465   3.744   3.166  15.488 -0.1357 -0.2359  0.2017
 1017TIP3    H124466   3.812   3.151  15.553  0.3976  0.7362 -0.1112
 1017TIP3    H224467   3.681   3.096  15.502  1.2037 -1.4950  0.1265
 1018TIP3   OH224468   2.165   2.466   5.022  0.0050  0.1499  0.1061
 1018TIP3    H124469   2.078   2.480   4.984 -0.9182  1.4661  2.4651
 1018TIP3    H224470   2.183   2.547   5.070  1.7661 -0.7653  1.1000
 1019TIP3   OH224471   4.685   6.371   0.705  0.3133 -0.2539  0.1974
 1019TIP3    H124472   4.709   6.279   0.692 -0.5920 -0.3516 -0.9631
 1019TIP3    H224473   4.612   6.385   0.644  0.0785  1.0852  0.7627
 1020TIP3   OH224474   1.331   4.988  16.898 -0.8094  0.0750  0.4389
 1020TIP3    H124475   1.328   4.901  16.858  0.1038 -2.4208  4.9659
 1020TIP3    H224476   1.417   5.023  16.873 -0.4246 -1.1596 -0.0761
 1021TIP3   OH224477   4.751   6.130  11.146 -0.2686 -0.6039  0.4142
 1021TIP3    H124478   4.662   6.133  11.183 -1.2910  3.5543 -1.7476
 1021TIP3    H224479   4.737   6.141  11.052  2.5523  0.9397  0.0833
 1022TIP3   OH224480   1.222   3.781   4.211 -0.0500 -0.1896  0.3622
 1022TIP3    H124481   1.310   3.754   4.184 -0.3018 -1.5518  0.8494
 1022TIP3    H224482   1.192   3.837   4.139 -0.1506 -2.5813 -1.5920
 1023TIP3   OH224483   6.313   3.436   1.553 -0.0559  0.7406  0.5625
 1023TIP3    H124484   6.278   3.422   1.641 -1.5159 -0.3121 -0.1415
 1023TIP3    H224485   6.382   3.370   1.544 -1.7764 -1.0586 -0.0238
 1024TIP3   OH224486   6.144   4.313  16.198  0.8880 -0.1404 -0.0086
 1024TIP3    H124487   6.153   4.315  16.102  1.9999  2.0679  0.0908
 1024TIP3    H224488   6.210   4.375  16.230  1.0609 -1.3808  2.2572
 1025TIP3   OH224489   4.363   0.650  11.492 -0.2407 -0.4956 -0.0364
 1025TIP3    H124490   4.388   0.667  11.583 -1.1346 -1.3390  0.3848
 1025TIP3    H224491   4.297   0.716  11.473  1.8768  1.4797 -1.0221
 1026TIP3   OH224492   1.339   6.744  12.257  0.0328  0.4796  0.0659
 1026TIP3    H124493   1.372   6.678  12.196 -0.5581  1.1302 -0.9610
 1026TIP3    H224494   1.332   6.824  12.206  0.6519  1.3379  1.2867
 1027TIP3   OH224495   0.377   5.390   5.536 -0.2083  0.3771  0.5522
 1027TIP3    H124496   0.376   5.424   5.626  3.8508 -1.0031  1.3497
 1027TIP3    H224497   0.345   5.300   5.544 -1.1454  0.6768  0.3134
 1028TIP3   OH224498   1.315   4.822   1.306 -0.3173  0.2087  0.4334
 1028TIP3    H124499   1.238   4.820   1.249  0.5568 -0.7961 -0.7884
 1028TIP3    H224500   1.310   4.741   1.356  0.2397 -0.1820 -0.1130
 1029TIP3   OH224501   6.131   2.575   0.140 -0.5139 -0.4007  0.0129
 1029TIP3    H124502   6.071   2.631   0.091 -1.1302  0.2015  1.4073
 1029TIP3    H224503   6.076   2.504   0.172 -0.3437 -0.2510  0.6581
 1030TIP3   OH224504   4.487   5.912  16.925  0.1525 -0.3637  0.0113
 1030TIP3    H124505   4.429   5.856  16.977  1.1745 -0.3508  1.2224
 1030TIP3    H224506   4.518   5.855  16.854  0.5273 -1.1180  0.7534
 1031TIP3   OH224507   0.151   2.118  14.658  0.0567 -0.3010  0.3535
 1031TIP3    H124508   0.125   2.038  14.613  0.6883  0.7879 -2.0951
 1031TIP3    H224509   0.072   2.173  14.658 -0.0179 -0.4028  0.8565
 1032TIP3   OH224510   2.211   0.097  12.901 -0.0749  0.6525 -0.0653
 1032TIP3    H124511   2.197   0.004  12.913 -1.1732  0.8061 -0.0873
 1032TIP3    H224512   2.136   0.139  12.944  0.5117  1.5345  0.1352
 1033TIP3   OH224513   5.213   1.001  13.194  0.0553 -0.6537 -0.0238
 1033TIP3    H124514   5.211   0.979  13.287 -0.7071 -0.4579  0.0173
 1033TIP3    H224515   5.147   0.944  13.155  0.9917 -1.3682 -0.5997
 1034TIP3   OH224516   4.628   2.019   3.685 -0.8395 -0.6928 -0.1721
 1034TIP3    H124517   4.620   1.929   3.653  0.3899 -0.6899 -0.5403
 1034TIP3    H224518   4.705   2.018   3.742 -0.6050  0.1834 -0.4505
 1035TIP3   OH224519   2.109   3.972   2.758 -0.1087 -0.5374  0.1289
 1035TIP3    H124520   2.076   3.986   2.847  0.2497 -3.1800  0.7864
 1035TIP3    H224521   2.192   4.019   2.755  0.2315 -0.9942  1.4868
 1036TIP3   OH224522   0.866   2.206   3.599 -0.0857 -0.7101  0.6154
 1036TIP3    H124523   0.928   2.270   3.636  0.3635 -0.7133 -0.1190
 1036TIP3    H224524   0.815   2.177   3.674 -1.0388  1.3050  0.8012
 1037TIP3   OH224525   3.948   4.708   4.593  0.4452 -0.2885 -0.0290
 1037TIP3    H124526   3.977   4.620   4.617  1.6339 -0.3227 -1.4687
 1037TIP3    H224527   3.982   4.765   4.662  2.5922 -0.5515 -0.8039
 1038TIP3   OH224528   3.331   2.351   5.642 -0.0931  0.1732  0.2302
 1038TIP3    H124529   3.388   2.275   5.649 -2.7241 -2.0783 -0.6432
 1038TIP3    H224530   3.260   2.333   5.703 -0.1197  2.6628  1.0231
 1039TIP3   OH224531   4.663   1.745  11.964 -0.7654  0.3437 -0.2803
 1039TIP3    H124532   4.647   1.835  11.992 -0.3148  0.9658 -1.9386
 1039TIP3    H224533   4.595   1.727  11.899 -2.5849 -1.5137  1.9558
 1040TIP3   OH224534   1.273   0.391  14.684 -0.0517 -0.3401 -0.6271
 1040TIP3    H124535   1.211   0.461  14.705 -0.3841 -0.2359 -1.9033
 1040TIP3    H224536   1.276   0.389  14.588  1.7764 -0.4856 -0.5915
 1041TIP3   OH224537   0.117   6.445   2.748 -0.2774 -0.3253  0.2098
 1041TIP3    H124538   0.087   6.490   2.827  1.1200  1.1051 -0.0202
 1041TIP3    H224539   0.044   6.388   2.723 -1.0466 -0.2151  2.0680
 1042TIP3   OH224540   0.978   1.634  13.132  0.0506  0.7499  0.5638
 1042TIP3    H124541   0.997   1.648  13.039 -1.9392 -0.5629 -0.1124
 1042TIP3    H224542   0.904   1.573  13.132  0.1597  0.5306  3.0318
 1043TIP3   OH224543   5.797   3.535  16.252  0.0912  0.1551 -0.6751
 1043TIP3    H124544   5.867   3.514  16.191 -0.1550  0.2467 -0.9936
 1043TIP3    H224545   5.720   3.547  16.197  0.4589  3.1165 -0.6941
 1044TIP3   OH224546   1.606   0.316   1.193  0.4075  0.4581  0.3547
 1044TIP3    H124547   1.521   0.294   1.229  0.5305 -1.1968 -0.2815
 1044TIP3    H224548   1.658   0.344   1.269  0.3966 -2.0582  1.3816
 1045TIP3   OH224549   2.378   0.751  16.738 -0.4564 -0.3596 -0.0523
 1045TIP3    H124550   2.454   0.759  16.795 -0.6378 -2.0197  0.4681
 1045TIP3    H224551   2.391   0.667  16.692 -2.2014 -0.9281  0.4223
 1046TIP3   OH224552   3.255   0.116  13.848 -0.9005  0.4857 -0.1139
 1046TIP3    H124553   3.229   0.208  13.853 -1.1435  0.3432  1.4875
 1046TIP3    H224554   3.254   0.085  13.938 -0.2642 -0.9479 -0.5691
 1047TIP3   OH224555   2.328   4.382  14.485  0.1821  0.5635  0.2240
 1047TIP3    H124556   2.346   4.411  14.396 -1.9361  0.4016 -0.3067
 1047TIP3    H224557   2.404   4.329  14.509  0.0942 -0.7583 -2.1185
 1048TIP3   OH224558   3.947   1.893   5.018 -0.1873 -0.3644 -0.4980
 1048TIP3    H124559   3.984   1.823   5.070 -0.0232  0.1503  0.0863
 1048TIP3    H224560   3.889   1.940   5.078 -0.3715 -0.0608 -0.9092
 1049TIP3   OH224561   0.144   0.038   0.889 -0.2086  0.2838 -0.1852
 1049TIP3    H124562   0.181   0.091   0.818  2.5740 -4.3975 -2.7711
 1049TIP3    H224563   0.208   0.045   0.959 -0.8304  1.6510  0.2854
 1050TIP3   OH224564   1.951   5.875   2.760  0.7491 -0.0182  0.0956
 1050TIP3    H124565   1.963   5.945   2.824  0.0841  0.5584 -0.3931
 1050TIP3    H224566   1.886   5.910   2.698  0.0402 -1.2423  0.1116
 1051TIP3   OH224567   6.253   1.315  13.666  0.0953 -0.4807  0.4253
 1051TIP3    H124568   6.265   1.249  13.734  1.8087  1.1754  1.8352
 1051TIP3    H224569   6.336   1.362  13.663 -0.9555  1.4353 -0.6962
 1052TIP3   OH224570   4.030   1.580   2.572  0.1336 -0.2242  0.0425
 1052TIP3    H124571   4.021   1.562   2.666  0.7543 -0.9698 -0.0318
 1052TIP3    H224572   3.992   1.667   2.561  0.4932  0.0765  1.0639
 1053TIP3   OH224573   5.039   0.227   0.971  0.3160 -0.0404  0.4211
 1053TIP3    H124574   4.973   0.185   0.916  0.0126  0.6054  0.2810
 1053TIP3    H224575   4.992   0.251   1.050  0.2369  0.9163  0.0958
 1054TIP3   OH224576   1.379   1.246   3.476  0.1503  0.0986 -0.4572
 1054TIP3    H124577   1.454   1.190   3.458  0.0320 -0.3231  0.3482
 1054TIP3    H224578   1.387   1.270   3.568 -0.7031  0.0558 -0.3606
 1055TIP3   OH224579   4.434   2.151  15.618  0.3669 -0.0111  0.4165
 1055TIP3    H124580   4.515   2.167  15.666  0.2428 -1.1369  1.0404
 1055TIP3    H224581   4.431   2.057  15.606 -0.5524  0.0732 -0.1447
 1056TIP3   OH224582   4.636   5.028  16.788  0.7405 -0.1373  0.0419
 1056TIP3    H124583   4.688   5.086  16.844 -1.1507  0.2129  1.5326
 1056TIP3    H224584   4.666   5.048  16.699  1.5161  1.7189  0.6663
 1057TIP3   OH224585   1.741   1.255  13.864  0.0512 -0.1397 -0.1470
 1057TIP3    H124586   1.717   1.300  13.945 -0.0949 -1.3914  0.5352
 1057TIP3    H224587   1.662   1.207  13.840 -0.0953  0.6645 -1.3693
 1058TIP3   OH224588   0.505   3.481  16.875 -0.2696  0.3430  0.1216
 1058TIP3    H124589   0.543   3.405  16.829  0.2722 -1.0164  2.6406
 1058TIP3    H224590   0.411   3.468  16.868 -0.1824 -0.5330  0.4317
 1059TIP3   OH224591   4.194   5.006  13.614 -0.2687 -0.2396  0.1015
 1059TIP3    H124592   4.202   5.098  13.639 -0.9754 -0.2874  0.5398
 1059TIP3    H224593   4.167   5.008  13.523  1.2005 -0.0434 -0.3481
 1060TIP3   OH224594   2.489   1.072   1.679 -0.0382  0.0269  0.6630
 1060TIP3    H124595   2.563   1.012   1.685 -0.0395  0.1457  2.1545
 1060TIP3    H224596   2.423   1.024   1.630  1.0455 -0.0276 -0.8170
 1061TIP3   OH224597   0.816   2.726   3.387 -0.5173 -0.3853 -0.1505
 1061TIP3    H124598   0.845   2.809   3.426 -0.6428 -0.5482  0.3017
 1061TIP3    H224599   0.724   2.719   3.414 -1.2435  0.5125 -2.2209
 1062TIP3   OH224600   0.051   3.964   3.865 -0.6785 -0.4181  0.2114
 1062TIP3    H124601   0.105   3.940   3.790 -0.4534 -2.0088  0.8549
 1062TIP3    H224602   0.052   4.060   3.865 -1.7230 -0.3319 -2.5285
 1063TIP3   OH224603   6.312   2.549  13.941  0.2699 -0.1527 -0.0245
 1063TIP3    H124604   6.309   2.464  13.984 -0.4893 -0.6325 -1.0096
 1063TIP3    H224605   6.259   2.539  13.863  0.3036  1.1821 -0.2445
 1064TIP3   OH224606   2.347   1.877  16.827 -0.4832 -0.5318 -0.2478
 1064TIP3    H124607   2.431   1.841  16.798 -0.3177  0.2312 -0.7327
 1064TIP3    H224608   2.371   1.953  16.880 -0.8347 -1.0748  0.7066
 1065TIP3   OH224609   3.270   3.569   0.529 -0.8073 -0.2389  0.1049
 1065TIP3    H124610   3.355   3.526   0.514 -1.0437 -1.0048  0.9131
 1065TIP3    H224611   3.212   3.530   0.463 -0.3095  1.0418 -1.1517
 1066TIP3   OH224612   4.667   1.181   3.749  0.2519  0.2340  0.2707
 1066TIP3    H124613   4.693   1.267   3.717  1.1436 -0.2522 -0.3503
 1066TIP3    H224614   4.599   1.199   3.814  0.5495  1.4128  0.2751
 1067TIP3   OH224615   0.958   1.508   1.288  0.1226 -0.2932 -0.7562
 1067TIP3    H124616   1.023   1.442   1.312 -0.8826 -0.8144  0.6387
 1067TIP3    H224617   1.010   1.586   1.268  1.1740 -0.3020  1.5822
 1068TIP3   OH224618   4.812   0.010   1.504  0.8299 -0.0057  0.1169
 1068TIP3    H124619   4.894  -0.038   1.515 -0.9484 -3.1941  0.9102
 1068TIP3    H224620   4.807   0.067   1.581  1.4921 -1.2246  1.1160
 1069TIP3   OH224621   3.220   4.658  16.794 -0.1965  0.2971 -0.3130
 1069TIP3    H124622   3.277   4.643  16.869 -2.1895 -2.1143  0.8422
 1069TIP3    H224623   3.232   4.751  16.773  2.2122  0.4568  1.4306
 1070TIP3   OH224624   6.512   3.382  16.921 -0.2633  0.1125  0.3403
 1070TIP3    H124625   6.580   3.443  16.895 -0.1814 -0.2727 -0.3719
 1070TIP3    H224626   6.556   3.318  16.976 -0.3036  0.5519  0.8956
 1071TIP3   OH224627   5.667   2.658  13.748 -0.0954 -0.7411 -0.0761
 1071TIP3    H124628   5.685   2.589  13.812  1.1454 -0.3010  0.0665
 1071TIP3    H224629   5.745   2.712  13.748 -1.3725  1.1906  0.4246
 1072TIP3   OH224630   0.814   4.527   3.833 -0.3983  0.5927 -0.1707
 1072TIP3    H124631   0.776   4.613   3.851 -0.7028  0.2377  0.9543
 1072TIP3    H224632   0.906   4.545   3.813 -0.1927  1.0814  1.1607
 1073TIP3   OH224633   4.539   4.367  11.790 -0.2307  0.4876 -0.1400
 1073TIP3    H124634   4.490   4.440  11.752 -1.6723 -0.1664  0.4109
 1073TIP3    H224635   4.553   4.394  11.881 -1.8285 -0.4024  0.4041
 1074TIP3   OH224636   0.072   4.884  12.005  0.0900  0.0538  0.2735
 1074TIP3    H124637   0.028   4.929  11.932 -1.2849 -1.6615 -0.0154
 1074TIP3    H224638   0.047   4.933  12.083 -0.7940  0.2049 -0.1035
 1075TIP3   OH224639   4.275   5.611  14.800  0.0484 -0.3740 -0.0270
 1075TIP3    H124640   4.233   5.642  14.881  2.1538  1.0606  0.5828
 1075TIP3    H224641   4.286   5.516  14.814 -2.9330 -0.8657 -0.2656
 1076TIP3   OH224642   6.606   2.420   2.110 -0.1640 -0.6277  0.3697
 1076TIP3    H124643   6.686   2.400   2.159  0.9398  1.9201 -0.2497
 1076TIP3    H224644   6.554   2.473   2.170 -0.2044 -0.1106 -0.1140
 1077TIP3   OH224645   0.318   6.263   2.545  0.0962 -0.0750 -0.1194
 1077TIP3    H124646   0.282   6.344   2.582  0.8534 -0.6416  2.0210
 1077TIP3    H224647   0.253   6.235   2.480 -0.8484  1.5144  0.0960
 1078TIP3   OH224648   4.406   6.508  13.210  0.4933  0.4452 -0.8115
 1078TIP3    H124649   4.382   6.546  13.294  0.1675  1.0272 -1.1642
 1078TIP3    H224650   4.419   6.415  13.229 -0.7653  0.3420 -0.3538
 1079TIP3   OH224651   1.821   3.229   1.119  0.2411  0.1285 -0.2898
 1079TIP3    H124652   1.776   3.244   1.036  0.1357  1.2177 -0.0506
 1079TIP3    H224653   1.906   3.192   1.095 -0.4413 -1.1736 -0.7891
 1080TIP3   OH224654   3.471   5.241   4.905 -0.2903  0.0920  0.2107
 1080TIP3    H124655   3.485   5.190   4.825  0.1210  2.4483 -1.3268
 1080TIP3    H224656   3.547   5.221   4.960  0.7745  0.3458 -1.1205
 1081TIP3   OH224657   5.271   2.161  13.131 -0.1439  0.0458  0.9291
 1081TIP3    H124658   5.297   2.215  13.056 -1.4930 -1.7787 -0.9777
 1081TIP3    H224659   5.306   2.208  13.207  1.7810  1.7205 -0.8343
 1082TIP3   OH224660   3.070   1.049  14.397  0.7408  0.2083  0.7490
 1082TIP3    H124661   3.051   1.037  14.304  0.0565  0.5235  0.8474
 1082TIP3    H224662   3.113   0.968  14.423  2.3195  0.6933 -0.1872
 1083TIP3   OH224663   5.448   5.812  12.671 -0.2030 -0.4923 -0.4128
 1083TIP3    H124664   5.438   5.877  12.601 -0.7535  1.0276  1.0334
 1083TIP3    H224665   5.542   5.806  12.685 -0.1411 -0.1490 -0.6772
 1084TIP3   OH224666   5.838   5.771  16.947  0.4824  0.0528  0.5152
 1084TIP3    H124667   5.883   5.791  17.029 -0.3839 -0.1877  1.0647
 1084TIP3    H224668   5.791   5.690  16.965  1.6304 -0.9493 -0.7651
 1085TIP3   OH224669   6.274   5.887   5.235  0.4927  0.0946  0.4025
 1085TIP3    H124670   6.305   5.883   5.144  1.1479 -1.6783  0.6736
 1085TIP3    H224671   6.186   5.925   5.228 -0.3819 -2.0182 -1.2635
 1086TIP3   OH224672   1.217   1.391   1.307 -0.1196 -0.6154 -0.3118
 1086TIP3    H124673   1.296   1.446   1.300 -1.2248  0.9556 -1.2577
 1086TIP3    H224674   1.241   1.322   1.368  0.8205  1.9388  2.4272
 1087TIP3   OH224675   4.945   5.507  13.873  0.2264 -0.0381  0.4820
 1087TIP3    H124676   4.971   5.599  13.863 -0.3195  0.1955  1.1713
 1087TIP3    H224677   5.026   5.463  13.898  0.3718  0.3640  0.7472
 1088TIP3   OH224678   0.053   1.890  11.277 -0.4838 -0.7232 -0.1513
 1088TIP3    H124679   0.084   1.855  11.361 -0.4453  1.2182  0.6907
 1088TIP3    H224680   0.127   1.939  11.242 -1.3360  0.7119 -0.0066
 1089TIP3   OH224681   5.990   6.009   2.825  0.3874  0.2778 -0.0462
 1089TIP3    H124682   5.930   6.075   2.860  0.6004  0.7681 -0.5945
 1089TIP3    H224683   6.038   6.055   2.757  1.4311 -0.0952  0.4247
 1090TIP3   OH224684   6.454   2.665   2.804 -0.0558 -0.2547 -0.2545
 1090TIP3    H124685   6.526   2.617   2.764  1.5733  0.1818  1.9766
 1090TIP3    H224686   6.484   2.756   2.806 -0.9130  0.0264  0.2136
 1091TIP3   OH224687   3.881   2.385   3.880 -0.1968 -0.1565  0.6885
 1091TIP3    H124688   3.972   2.379   3.910 -0.1150  0.9642  0.6873
 1091TIP3    H224689   3.840   2.305   3.914  0.8755 -0.8894  0.3370
 1092TIP3   OH224690   3.705   2.942   3.914  0.2802  0.9097  0.0895
 1092TIP3    H124691   3.722   2.851   3.939  1.8474  1.1494 -0.0141
 1092TIP3    H224692   3.647   2.936   3.838  1.5045 -0.0553 -0.7982
 1093TIP3   OH224693   3.054   4.773   1.737  0.1964  0.0376  0.0292
 1093TIP3    H124694   3.146   4.746   1.729 -0.1268 -1.0836  0.0467
 1093TIP3    H224695   3.006   4.710   1.684 -0.2637  2.7035 -3.0603
 1094TIP3   OH224696   1.076   0.619  15.562 -0.1294  0.0912 -0.1644
 1094TIP3    H124697   1.123   0.557  15.506  1.6149 -0.1567  1.4570
 1094TIP3    H224698   1.096   0.705  15.525  1.2755 -0.0488  0.1947
 1095TIP3   OH224699   0.165   5.168  14.602 -0.1523 -0.1028 -0.0059
 1095TIP3    H124700   0.159   5.153  14.508  0.6424 -1.6971  0.1633
 1095TIP3    H224701   0.230   5.238  14.611 -0.6878  0.4998 -0.6404
 1096TIP3   OH224702   5.452   5.897   4.129  0.2746 -0.0903 -0.3368
 1096TIP3    H124703   5.512   5.886   4.055  0.1489  1.7540 -0.7501
 1096TIP3    H224704   5.508   5.891   4.206  1.0349  1.5989 -0.7170
 1097TIP3   OH224705   6.439   1.750  16.057 -0.5556  0.2245 -0.3145
 1097TIP3    H124706   6.415   1.821  16.116  2.1079  2.4287 -1.6971
 1097TIP3    H224707   6.509   1.703  16.103 -1.2125 -0.5919 -0.1020
 1098TIP3   OH224708   1.646   6.755   4.458 -0.1891  0.9734 -0.5345
 1098TIP3    H124709   1.592   6.677   4.466 -0.4607  1.1309 -0.8217
 1098TIP3    H224710   1.667   6.779   4.549 -2.4238  2.1623 -0.2487
 1099TIP3   OH224711   4.270   3.083  16.064  0.6093  0.3771 -0.2808
 1099TIP3    H124712   4.298   3.157  16.118 -2.5775  1.6757 -0.1837
 1099TIP3    H224713   4.207   3.037  16.118  0.8953 -1.1301 -1.1887
 1100TIP3   OH224714   6.169   5.509   0.273  0.2729 -0.4009  0.3453
 1100TIP3    H124715   6.256   5.469   0.276  0.8150  0.7545  0.4807
 1100TIP3    H224716   6.123   5.471   0.347  0.3793 -1.6145 -0.1769
 1101TIP3   OH224717   6.655   1.385   1.587 -0.0740  0.2216 -0.3658
 1101TIP3    H124718   6.714   1.342   1.526 -0.4145 -0.7752 -0.0067
 1101TIP3    H224719   6.616   1.457   1.537  0.3648  0.0013 -1.0275
 1102TIP3   OH224720   2.986   0.203   0.689 -0.1869 -0.1598 -0.5327
 1102TIP3    H124721   3.057   0.180   0.749 -0.4891  0.2293 -0.0191
 1102TIP3    H224722   3.024   0.269   0.631  0.0415 -0.3839 -0.6432
 1103TIP3   OH224723   5.383   4.995   5.853 -0.3110  0.0281  0.9210
 1103TIP3    H124724   5.456   4.940   5.883 -0.4013 -0.1387  0.8336
 1103TIP3    H224725   5.317   4.987   5.921 -0.4411 -0.2028  0.7658
 1104TIP3   OH224726   1.418   3.499   2.925  0.0384  0.0028  0.4721
 1104TIP3    H124727   1.493   3.513   2.867 -0.3951 -1.0422 -0.3606
 1104TIP3    H224728   1.428   3.566   2.993  0.6927  1.1084 -0.6636
 1105TIP3   OH224729   5.719   1.082  16.477  0.9083  0.5064 -0.2984
 1105TIP3    H124730   5.766   1.079  16.560 -0.6788 -0.8689  0.6172
 1105TIP3    H224731   5.782   1.050  16.413  1.2786 -1.2597  0.8737
 1106TIP3   OH224732   0.833   1.129   4.465 -0.4953  0.0763 -0.0124
 1106TIP3    H124733   0.860   1.217   4.439  1.0307 -0.1854  0.5963
 1106TIP3    H224734   0.817   1.137   4.560 -0.2532 -0.3204  0.0622
 1107TIP3   OH224735   0.859   0.188   2.669 -0.1116  0.2898  0.9343
 1107TIP3    H124736   0.774   0.217   2.637  0.0913 -0.3705 -0.2832
 1107TIP3    H224737   0.839   0.136   2.747 -0.8206  0.2282  0.7185
 1108TIP3   OH224738   2.952   4.372   3.707 -0.7579 -0.1580  0.2267
 1108TIP3    H124739   2.981   4.307   3.644 -1.7181  0.3105 -0.7333
 1108TIP3    H224740   3.032   4.414   3.738 -0.2564 -0.5899 -0.4628
 1109TIP3   OH224741   3.442   5.862   2.797  0.2387  0.0545  0.2924
 1109TIP3    H124742   3.534   5.888   2.794  0.1655  0.2611 -1.5232
 1109TIP3    H224743   3.423   5.831   2.708 -1.5044  0.2187  0.5680
 1110TIP3   OH224744   3.331   6.036   2.220 -0.1043 -0.6911 -0.4456
 1110TIP3    H124745   3.236   6.046   2.216  0.1718  2.1502 -1.7914
 1110TIP3    H224746   3.363   6.074   2.139  2.3089 -0.0487  0.7156
 1111TIP3   OH224747   4.653   0.802  11.051  0.4600 -0.1946  0.0421
 1111TIP3    H124748   4.676   0.825  11.141 -0.9061  1.6642 -0.0242
 1111TIP3    H224749   4.572   0.850  11.034  0.6942 -0.4872 -2.1858
 1112TIP3   OH224750   0.744   6.383   4.714  0.2094 -0.0178 -0.0156
 1112TIP3    H124751   0.801   6.307   4.700  0.7515  0.6936 -2.1081
 1112TIP3    H224752   0.670   6.369   4.654 -1.7343 -0.7513  2.3985
 1113TIP3   OH224753   1.791   0.124  15.128 -0.0886  0.3363  0.2503
 1113TIP3    H124754   1.761   0.202  15.175 -0.8729  0.5392 -0.5539
 1113TIP3    H224755   1.885   0.121  15.144 -0.3274  0.3958  1.8098
 1114TIP3   OH224756   5.606   5.558  13.293 -0.6645 -0.0157  0.2320
 1114TIP3    H124757   5.548   5.501  13.242 -1.4896  0.0990  1.0157
 1114TIP3    H224758   5.559   5.641  13.298 -0.1763  0.2510  0.4102
 1115TIP3   OH224759   1.644   5.122   0.014  0.5922  0.0541 -0.0483
 1115TIP3    H124760   1.598   5.069   0.079  0.4236 -0.1556 -0.3388
 1115TIP3    H224761   1.737   5.112   0.037  0.6927 -1.7266 -1.1099
 1116TIP3   OH224762   4.664   4.251   1.079 -1.1081 -0.5387 -0.5152
 1116TIP3    H124763   4.742   4.196   1.068 -0.6164 -0.0241  0.2985
 1116TIP3    H224764   4.663   4.306   1.001 -0.5772 -0.4563 -0.4689
 1117TIP3   OH224765   4.801   3.196  15.325  0.3922 -0.0073 -0.0689
 1117TIP3    H124766   4.706   3.205  15.314  0.5104  0.4439 -0.7468
 1117TIP3    H224767   4.819   3.104  15.306 -0.1005 -0.4799  1.5506
 1118TIP3   OH224768   2.832   6.084   5.624 -0.5664  0.0241 -0.8822
 1118TIP3    H124769   2.826   6.155   5.560  1.1189  0.8074 -0.2433
 1118TIP3    H224770   2.846   6.129   5.708  0.5621 -1.0562 -0.4627
 1119TIP3   OH224771   2.686   3.443   1.545  0.3987  0.5480 -0.1124
 1119TIP3    H124772   2.733   3.408   1.470 -0.8778 -3.1969  0.5976
 1119TIP3    H224773   2.747   3.435   1.618  0.7619  1.7599 -0.2631
 1120TIP3   OH224774   1.623   1.351  15.264 -0.4214  0.2002  0.8726
 1120TIP3    H124775   1.666   1.409  15.328 -0.0638  1.6857 -0.6347
 1120TIP3    H224776   1.565   1.408  15.215 -1.7469 -1.1877  0.7438
 1121TIP3   OH224777   6.610   6.297  11.996 -0.3876 -0.0749  0.4327
 1121TIP3    H124778   6.557   6.302  12.075 -0.6089 -2.8307  0.5489
 1121TIP3    H224779   6.588   6.377  11.947  0.2794  2.1062  3.3643
 1122TIP3   OH224780   0.286   0.515  14.109  0.2949  0.0096 -0.5159
 1122TIP3    H124781   0.239   0.432  14.100 -0.4661  0.5298 -1.8143
 1122TIP3    H224782   0.240   0.561  14.179 -0.6711  0.1677 -1.2158
 1123TIP3   OH224783   5.331   5.271   1.958  0.0384 -0.7138  0.7008
 1123TIP3    H124784   5.368   5.192   1.997 -1.4476 -1.8412 -0.0505
 1123TIP3    H224785   5.348   5.261   1.864 -1.8076 -1.1247  0.3672
 1124TIP3   OH224786   4.486   2.220   3.044  0.1327  0.0323  0.7462
 1124TIP3    H124787   4.484   2.142   3.098  0.3252 -0.8581 -0.4792
 1124TIP3    H224788   4.458   2.291   3.102 -1.3759 -1.1535  1.5417
 1125TIP3   OH224789   5.326   4.584   0.669 -0.0679 -0.0112 -0.5244
 1125TIP3    H124790   5.285   4.554   0.588 -0.0886 -0.9443 -0.1802
 1125TIP3    H224791   5.287   4.529   0.738  1.2504 -0.4635 -0.1065
 1126TIP3   OH224792   3.630   2.359  13.166 -0.2453  0.9019 -0.5911
 1126TIP3    H124793   3.605   2.387  13.078  0.6340  1.5125 -0.6606
 1126TIP3    H224794   3.549   2.364  13.216 -0.4207  2.1990 -0.9646
 1127TIP3   OH224795   1.738   2.373   6.234 -0.8875  0.1153 -0.0507
 1127TIP3    H124796   1.727   2.465   6.208 -1.0239  0.1155  0.0064
 1127TIP3    H224797   1.832   2.356   6.223 -0.8444  0.2933  0.0440
 1128TIP3   OH224798   4.512   6.537   4.676  0.7393  0.5570 -0.5559
 1128TIP3    H124799   4.558   6.463   4.715 -1.1450  0.5627  1.9211
 1128TIP3    H224800   4.431   6.499   4.641  0.6047  1.1763 -0.9243
 1129TIP3   OH224801   5.851   4.430   5.628 -0.2339 -0.2662 -0.1632
 1129TIP3    H124802   5.771   4.378   5.629 -1.0017  0.8827 -0.1470
 1129TIP3    H224803   5.837   4.496   5.560  1.9949 -1.9356 -2.4542
 1130TIP3   OH224804   6.250   6.328   4.545 -0.1316 -0.3356  0.2135
 1130TIP3    H124805   6.268   6.246   4.500 -0.6690 -0.2294 -0.2040
 1130TIP3    H224806   6.309   6.391   4.503 -0.6639 -0.2262 -0.3929
 1131TIP3   OH224807   5.497   2.138  16.815  0.8028 -0.2479 -0.7769
 1131TIP3    H124808   5.539   2.207  16.764 -0.7766  0.9036 -0.6019
 1131TIP3    H224809   5.415   2.177  16.844  0.5075 -1.7461  0.5187
 1132TIP3   OH224810   0.948   1.505   6.388 -0.1693  0.0139  0.0582
 1132TIP3    H124811   1.005   1.525   6.462  0.9110  1.2463 -1.0632
 1132TIP3    H224812   0.861   1.531   6.418  0.1114 -0.2361  1.1520
 1133TIP3   OH224813   0.344   3.190  11.904 -0.6154  0.2022  0.3396
 1133TIP3    H124814   0.362   3.128  11.975  1.6419  0.4662  0.0498
 1133TIP3    H224815   0.326   3.273  11.948  4.0259  1.2553  0.7908
 1134TIP3   OH224816   3.708   5.256  13.304  0.0608 -0.4523  0.1394
 1134TIP3    H124817   3.656   5.175  13.308  0.0862 -0.4287  0.9935
 1134TIP3    H224818   3.647   5.325  13.331 -0.6278  0.1750 -2.6736
 1135TIP3   OH224819   4.155   6.170  11.765 -0.4504  0.0786 -0.6109
 1135TIP3    H124820   4.157   6.080  11.733  1.3179  0.2301 -1.0478
 1135TIP3    H224821   4.181   6.223  11.690 -1.8159  1.0223 -0.4559
 1136TIP3   OH224822   6.017   5.312   6.153 -0.4342 -0.3009 -0.5406
 1136TIP3    H124823   6.065   5.394   6.161  0.7549 -0.9622 -0.7338
 1136TIP3    H224824   6.054   5.256   6.220 -0.0609 -1.2315 -1.5002
 1137TIP3   OH224825   3.331   3.339   1.402  0.6113 -0.2150 -0.5880
 1137TIP3    H124826   3.303   3.429   1.387  0.1297 -0.2542  0.0627
 1137TIP3    H224827   3.427   3.345   1.410  0.4142  0.6535  2.1023
 1138TIP3   OH224828   2.973   1.189   2.172 -0.7887 -0.8315  0.6687
 1138TIP3    H124829   2.922   1.263   2.205 -0.3633  0.0891 -0.6574
 1138TIP3    H224830   3.043   1.178   2.236 -0.0039  0.8905  0.1576
 1139TIP3   OH224831   6.213   4.833   5.791 -0.4866 -0.6707 -0.1138
 1139TIP3    H124832   6.199   4.763   5.727  0.4804 -1.2777  0.3106
 1139TIP3    H224833   6.200   4.791   5.876 -0.1794 -0.2753  0.1327
 1140TIP3   OH224834   0.044   6.818  16.085 -0.8635 -0.1211  0.3457
 1140TIP3    H124835   0.039   6.912  16.101  0.5485  0.0689 -0.1813
 1140TIP3    H224836   0.045   6.779  16.172  0.3356  0.4812  0.6248
 1141TIP3   OH224837   2.257   0.398  15.971  0.1873  0.0420 -0.3509
 1141TIP3    H124838   2.307   0.479  15.979  1.5729 -0.8440  0.4859
 1141TIP3    H224839   2.166   0.424  15.982  0.4656  1.6800 -1.6221
 1142TIP3   OH224840   5.119   5.748  15.288  0.0681  0.8576  0.3343
 1142TIP3    H124841   5.097   5.800  15.211 -1.7129  1.2805  1.0670
 1142TIP3    H224842   5.086   5.799  15.362 -1.4523 -1.1092  1.1196
 1143TIP3   OH224843   3.842   3.728  16.234 -0.5246 -0.8562  0.5232
 1143TIP3    H124844   3.858   3.808  16.184 -1.2475 -1.4213 -0.6558
 1143TIP3    H224845   3.824   3.758  16.323  0.7186  0.1806  0.4456
 1144TIP3   OH224846   3.170   0.812   0.366  0.4644  0.8229 -0.1735
 1144TIP3    H124847   3.151   0.750   0.296 -1.1997 -0.2889  1.1808
 1144TIP3    H224848   3.087   0.855   0.384  0.2209 -0.5433  2.5633
 1145TIP3   OH224849   6.567   5.721   5.090  0.1351  0.2906  0.3261
 1145TIP3    H124850   6.637   5.786   5.097  0.7987 -0.3662 -0.0903
 1145TIP3    H224851   6.518   5.746   5.012  0.7101 -0.0008 -0.1383
 1146TIP3   OH224852   1.631   3.672   3.058  0.1723  0.7150 -0.0783
 1146TIP3    H124853   1.563   3.729   3.096  0.3006  0.8219 -0.0097
 1146TIP3    H224854   1.665   3.721   2.984  0.4364  0.8248  0.1122
 1147TIP3   OH224855   3.089   0.335   1.862 -0.0105 -0.8195 -0.6728
 1147TIP3    H124856   3.150   0.272   1.824  0.9606  0.7714 -1.9227
 1147TIP3    H224857   3.034   0.362   1.788 -0.1516  0.0445 -0.2726
 1148TIP3   OH224858   5.794   1.218  12.701  0.0449  0.8786  0.3347
 1148TIP3    H124859   5.764   1.307  12.679  2.1269  1.3922 -0.6743
 1148TIP3    H224860   5.730   1.160  12.659 -0.7204  1.8987  0.0539
 1149TIP3   OH224861   5.260   6.520  14.065 -0.0802 -0.1239  0.1990
 1149TIP3    H124862   5.331   6.550  14.008  1.3370 -1.5288  1.1534
 1149TIP3    H224863   5.294   6.533  14.154 -1.6032  0.4903  0.7244
 1150TIP3   OH224864   2.698   0.431   4.035 -0.3416 -0.1669  0.5064
 1150TIP3    H124865   2.628   0.493   4.057  0.1273  0.5876 -0.0787
 1150TIP3    H224866   2.689   0.418   3.941  1.0365  0.8834  0.2023
 1151TIP3   OH224867   3.507   1.097   4.706  0.6892 -0.1942 -0.1859
 1151TIP3    H124868   3.484   1.082   4.798  0.0177 -1.5461 -0.5523
 1151TIP3    H224869   3.587   1.150   4.710  0.0322  0.7652  1.1566
 1152TIP3   OH224870   0.244   6.672  15.941  0.6849 -0.1386  0.2964
 1152TIP3    H124871   0.277   6.656  16.030  1.6329  1.3465  0.2566
 1152TIP3    H224872   0.164   6.723  15.954 -0.0297 -1.2589  0.3275
 1153TIP3   OH224873   6.252   0.574  10.648  0.9275  0.1077 -0.2116
 1153TIP3    H124874   6.300   0.494  10.671 -0.7495 -0.3645  1.9756
 1153TIP3    H224875   6.167   0.543  10.617  0.6288  1.0211 -0.3396
 1154TIP3   OH224876   1.702   4.709  14.400  0.4384  0.0708  0.2189
 1154TIP3    H124877   1.672   4.797  14.380 -0.9287 -0.3832  0.1588
 1154TIP3    H224878   1.763   4.688  14.330 -1.3126 -0.0240 -1.3647
 1155TIP3   OH224879   4.481   2.428   3.586 -0.2258  0.5605 -0.4818
 1155TIP3    H124880   4.439   2.510   3.612 -0.2541  0.8516 -1.3846
 1155TIP3    H224881   4.422   2.360   3.617 -0.0944  0.8682  0.4662
 1156TIP3   OH224882   4.069   3.005   4.094  0.1447  0.3433  0.3306
 1156TIP3    H124883   4.048   2.913   4.077  1.2195 -0.0302  0.9272
 1156TIP3    H224884   4.092   3.041   4.008  0.0443 -0.0239  0.1469
 1157TIP3   OH224885   1.145   4.170  13.703  0.1731  0.2683 -0.1640
 1157TIP3    H124886   1.094   4.172  13.622 -0.8760 -2.0997  0.3694
 1157TIP3    H224887   1.213   4.104  13.687  1.6889  1.7060 -0.0185
 1158TIP3   OH224888   3.998   6.011   3.317 -0.1814 -0.4163 -0.0943
 1158TIP3    H124889   4.002   5.932   3.371 -1.7420 -0.5108 -0.0865
 1158TIP3    H224890   3.933   6.067   3.359 -0.8716 -0.1647 -1.4252
 1159TIP3   OH224891   0.624   4.161  11.375  0.0703 -0.4798  0.4689
 1159TIP3    H124892   0.568   4.170  11.453  0.1198  1.0898  0.3541
 1159TIP3    H224893   0.565   4.129  11.307 -0.6103  0.7364  0.4649
 1160TIP3   OH224894   6.795   2.891   2.378  0.5752  0.6433 -0.0734
 1160TIP3    H124895   6.707   2.863   2.355  0.8753  0.8943 -1.5974
 1160TIP3    H224896   6.811   2.968   2.324  1.2891  1.3243  1.0684
 1161TIP3   OH224897   3.223   0.121   4.036 -0.6584  0.3513 -0.2687
 1161TIP3    H124898   3.186   0.140   4.123 -2.4487  0.6545 -1.0564
 1161TIP3    H224899   3.234   0.026   4.036 -1.2878  0.2704  0.0593
 1162TIP3   OH224900   0.486   4.977  11.767 -0.2987 -0.0419 -0.0640
 1162TIP3    H124901   0.415   4.926  11.807 -0.9800  1.0323  0.1362
 1162TIP3    H224902   0.452   5.002  11.681 -0.7812  1.6745  0.5775
 1163TIP3   OH224903   2.928   0.104  15.190  0.1152  0.6427  0.2701
 1163TIP3    H124904   2.835   0.103  15.213  0.0546 -0.9020  0.0615
 1163TIP3    H224905   2.973   0.103  15.275 -0.0739  0.3326  0.3701
 1164TIP3   OH224906   3.422   4.010  12.631 -0.1778 -0.1528  0.2736
 1164TIP3    H124907   3.416   4.106  12.636  1.3999 -0.0898  1.9081
 1164TIP3    H224908   3.437   3.992  12.538  0.9485  1.3232  0.1232
 1165TIP3   OH224909   1.170   1.562   0.837 -0.3611  0.1268 -0.1368
 1165TIP3    H124910   1.248   1.578   0.891 -0.7187 -0.7544  0.6445
 1165TIP3    H224911   1.206   1.531   0.754  0.1147 -1.1431  0.5186
 1166TIP3   OH224912   3.950   0.186  15.010  0.6102  0.3103  0.5518
 1166TIP3    H124913   3.929   0.243  15.084 -0.2615  0.7003  0.0238
 1166TIP3    H224914   3.965   0.100  15.049 -0.6124  0.3360  1.1056
 1167TIP3   OH224915   0.301   4.654  13.545  0.2065  0.6071  0.2284
 1167TIP3    H124916   0.284   4.725  13.483  0.5133  0.1773 -0.3474
 1167TIP3    H224917   0.376   4.607  13.509 -0.1591 -0.1768  0.4691
 1168TIP3   OH224918   6.158   5.525   1.125 -0.3940 -0.1191 -0.4120
 1168TIP3    H124919   6.071   5.532   1.085 -0.2961 -1.5880 -0.9212
 1168TIP3    H224920   6.150   5.455   1.189 -0.2176  1.3954  1.3781
 1169TIP3   OH224921   3.260   4.247   2.139 -0.3392  0.5732 -0.2670
 1169TIP3    H124922   3.203   4.282   2.208 -3.1343  0.0919 -2.1532
 1169TIP3    H224923   3.294   4.166   2.175 -1.2431  0.6271  0.7827
 1170TIP3   OH224924   3.376   0.015  11.971 -0.2488  0.1488 -0.1467
 1170TIP3    H124925   3.397  -0.074  12.000  1.8991  1.2114  1.9253
 1170TIP3    H224926   3.323   0.052  12.042 -1.1863  0.5474 -1.0216
 1171TIP3   OH224927   3.619   1.278  14.715 -0.3815 -0.3323  0.1466
 1171TIP3    H124928   3.673   1.356  14.708  0.3061 -0.6518  1.4617
 1171TIP3    H224929   3.679   1.210  14.746 -1.1663 -1.1346 -0.0367
 1172TIP3   OH224930   3.924   3.572  11.442  0.5086 -0.0990  0.4007
 1172TIP3    H124931   3.835   3.581  11.410  0.6473 -0.7729 -0.1980
 1172TIP3    H224932   3.959   3.661  11.442  0.2132  0.0255 -0.4764
 1173TIP3   OH224933   5.512   3.444  14.551  0.3329  0.1004  0.1333
 1173TIP3    H124934   5.453   3.441  14.627  1.3068 -2.3923  0.9032
 1173TIP3    H224935   5.454   3.453  14.476 -0.7079  1.9318  1.0865
 1174TIP3   OH224936   0.010   2.650   4.249 -0.0334 -0.0487 -0.0398
 1174TIP3    H124937   0.074   2.582   4.229  0.3597 -0.0983  1.3070
 1174TIP3    H224938  -0.004   2.696   4.166  1.9972  0.1858 -0.2823
 1175TIP3   OH224939   5.427   0.854   2.309  0.0198 -0.0473 -0.2174
 1175TIP3    H124940   5.334   0.850   2.287  0.5900 -1.2815 -2.7738
 1175TIP3    H224941   5.471   0.867   2.224  2.2531 -1.1958  0.6836
 1176TIP3   OH224942   5.369   4.507  13.293  0.6154  0.4602  0.4413
 1176TIP3    H124943   5.414   4.425  13.313  0.0402 -0.0510 -0.3085
 1176TIP3    H224944   5.391   4.525  13.202 -0.3770  0.3872  0.1663
 1177TIP3   OH224945   0.546   6.508   1.067 -0.3869 -0.4331 -0.0003
 1177TIP3    H124946   0.501   6.424   1.080 -0.3705 -0.4434 -0.0090
 1177TIP3    H224947   0.621   6.486   1.012 -1.3524 -0.1227 -1.5106
 1178TIP3   OH224948   3.251   3.252   1.045  0.4172  0.6293 -0.4470
 1178TIP3    H124949   3.253   3.185   1.114  0.1635 -1.6920 -2.5542
 1178TIP3    H224950   3.265   3.335   1.092 -0.0045 -0.7761  2.3971
 1179TIP3   OH224951   4.493   5.521   1.695  0.1090 -0.1221 -0.0789
 1179TIP3    H124952   4.506   5.441   1.745 -0.1676  0.0316  0.2464
 1179TIP3    H224953   4.458   5.584   1.759  0.5421  0.3263 -0.2717
 1180TIP3   OH224954   1.657   6.455  16.083  0.4926  0.7909  0.3335
 1180TIP3    H124955   1.594   6.473  16.153 -0.3439  1.3115 -0.5371
 1180TIP3    H224956   1.616   6.490  16.004  0.0401 -2.3683 -0.9874
 1181TIP3   OH224957   6.434   6.714  16.702  0.1129  0.0951  0.1446
 1181TIP3    H124958   6.402   6.724  16.612 -0.5533  0.9231  0.4665
 1181TIP3    H224959   6.427   6.802  16.740 -0.4067 -0.4143  1.2738
 1182TIP3   OH224960   4.928   5.474   2.242  0.3066 -0.3289 -0.2322
 1182TIP3    H124961   4.992   5.478   2.170  1.4992 -0.6980  0.7715
 1182TIP3    H224962   4.949   5.551   2.295  0.6042 -1.0121  0.6514
 1183TIP3   OH224963   0.472   5.709  11.356 -0.2977  0.5362 -0.1303
 1183TIP3    H124964   0.384   5.683  11.382  0.3066 -0.2059  1.2473
 1183TIP3    H224965   0.515   5.736  11.437  0.6806  1.1029 -0.8114
 1184TIP3   OH224966   6.489   4.989   2.120  0.4297 -0.0505  0.5567
 1184TIP3    H124967   6.412   5.004   2.174 -0.1985 -0.6000 -0.1607
 1184TIP3    H224968   6.522   4.904   2.148  1.3590  0.6028  1.5248
 1185TIP3   OH224969   3.790   5.201   5.234  0.0267 -0.1127 -0.2025
 1185TIP3    H124970   3.728   5.274   5.234 -0.6538 -0.6354 -1.6621
 1185TIP3    H224971   3.813   5.189   5.326  0.9907  2.5914 -0.0021
 1186TIP3   OH224972   5.442   0.094   0.145  0.2093  0.4155 -0.2521
 1186TIP3    H124973   5.391   0.096   0.226 -1.3069 -1.2059 -1.0929
 1186TIP3    H224974   5.495   0.014   0.152  2.9663  2.1877  0.7116
 1187TIP3   OH224975   2.068   3.794  15.181 -0.7635 -0.0708 -1.1668
 1187TIP3    H124976   2.134   3.854  15.215 -2.6800  1.5157  0.0114
 1187TIP3    H224977   2.094   3.778  15.090  1.7304 -0.3333 -0.4736
 1188TIP3   OH224978   1.013   5.028   1.641  0.2790  0.1516 -0.0124
 1188TIP3    H124979   0.953   5.027   1.717  1.0228  2.1801  0.6827
 1188TIP3    H224980   1.026   5.121   1.624  2.7019 -0.2510 -0.5862
 1189TIP3   OH224981   2.074   0.176  14.286 -0.0163 -0.5042  0.3565
 1189TIP3    H124982   2.110   0.116  14.220 -1.5682 -2.8523  1.5163
 1189TIP3    H224983   1.986   0.196  14.255 -0.1189 -0.1952  0.8384
 1190TIP3   OH224984   4.031   3.549  15.276  0.3890  0.0759  0.6800
 1190TIP3    H124985   4.019   3.455  15.289 -2.3596  0.5753  2.6009
 1190TIP3    H224986   4.002   3.588  15.358  2.0908  2.6247  0.1716
 1191TIP3   OH224987   5.029   4.366   5.467  0.0976  0.1454  0.3926
 1191TIP3    H124988   5.048   4.436   5.405  0.5512  2.2908  2.7415
 1191TIP3    H224989   5.110   4.316   5.473  0.3717  0.5312 -0.0368
 1192TIP3   OH224990   2.885   1.899   5.201 -0.2599 -0.3997 -0.2580
 1192TIP3    H124991   2.884   1.993   5.219  1.6187  0.0977 -2.3399
 1192TIP3    H224992   2.898   1.858   5.287 -0.8736  1.2174  0.6504
 1193TIP3   OH224993   1.922   4.638   5.859 -0.1659  0.1097  0.7128
 1193TIP3    H124994   1.866   4.565   5.833 -0.5309  0.1969  1.2161
 1193TIP3    H224995   1.951   4.677   5.777 -0.8911  0.0884  0.4348
 1194TIP3   OH224996   1.679   3.396  14.023 -0.1978  0.4392 -0.0606
 1194TIP3    H124997   1.602   3.432  14.066 -1.1726 -0.1624 -1.2241
 1194TIP3    H224998   1.721   3.343  14.090 -3.3302 -2.9683 -0.4567
 1195TIP3   OH224999   5.003   2.988   6.605  0.2925 -0.0655  0.3311
 1195TIP3    H125000   4.930   3.028   6.559 -0.9141  0.6103  2.6868
 1195TIP3    H225001   5.066   2.967   6.536 -1.4965  0.6113 -1.6178
 1196TIP3   OH225002   5.565   6.709  16.731  0.6192 -0.4313 -0.0945
 1196TIP3    H125003   5.613   6.629  16.711  1.0823 -0.2030  0.1083
 1196TIP3    H225004   5.552   6.706  16.826 -2.3411 -1.9564 -0.4271
 1197TIP3   OH225005   5.139   4.635   2.473  0.5407  0.0924 -0.3803
 1197TIP3    H125006   5.075   4.602   2.411 -1.2628  1.4787  0.6453
 1197TIP3    H225007   5.219   4.647   2.422 -0.2765 -0.7779 -1.9156
 1198TIP3   OH225008   6.345   4.134   2.025 -0.1716  0.6558 -0.0662
 1198TIP3    H125009   6.421   4.159   1.973 -0.7265  0.6202 -0.9113
 1198TIP3    H225010   6.307   4.059   1.978 -0.4551  0.3720  0.6052
 1199TIP3   OH225011   1.059   2.589  16.890  0.0749  0.4607 -0.1486
 1199TIP3    H125012   1.138   2.567  16.939  1.2096  0.6911 -1.7928
 1199TIP3    H225013   1.091   2.619  16.805 -1.7269  1.8880 -0.3844
 1200TIP3   OH225014   3.213   2.984   4.351  0.0658  0.1007 -0.3828
 1200TIP3    H125015   3.264   2.907   4.375 -1.1898 -1.1507 -1.5590
 1200TIP3    H225016   3.264   3.025   4.281  0.1095 -0.3872 -0.6404
 1201TIP3   OH225017   1.868   0.300   0.221  0.5477  0.1386 -0.5004
 1201TIP3    H125018   1.873   0.226   0.281  0.6561  0.1034 -0.5531
 1201TIP3    H225019   1.794   0.280   0.164  1.5810 -0.7228 -1.5809
 1202TIP3   OH225020   2.219   6.412  12.250 -0.1791 -0.4331  0.0469
 1202TIP3    H125021   2.155   6.350  12.285  0.2442 -1.0440 -0.2463
 1202TIP3    H225022   2.283   6.358  12.205 -0.0512  0.2527 -0.6261
 1203TIP3   OH225023   6.692   4.846  14.108  0.2732 -0.1023  0.0045
 1203TIP3    H125024   6.709   4.921  14.051 -1.9213 -0.0539 -0.6753
 1203TIP3    H225025   6.656   4.779  14.050  0.1405 -0.8949  0.9699
 1204TIP3   OH225026   1.710   5.842  11.000  0.1996  0.0829  0.6553
 1204TIP3    H125027   1.633   5.795  11.033  1.0291 -0.2937  2.1575
 1204TIP3    H225028   1.696   5.848  10.906 -2.8006  2.0249  1.0704
 1205TIP3   OH225029   1.635   5.413  11.688  0.0736  0.0421 -0.1546
 1205TIP3    H125030   1.672   5.391  11.773 -0.0580  0.6824  0.0674
 1205TIP3    H225031   1.644   5.508  11.681  1.6700 -0.1427 -1.5697
 1206TIP3   OH225032   2.194   2.935  15.492 -0.5237  0.0505 -0.0274
 1206TIP3    H125033   2.265   2.966  15.436 -0.3773 -0.8367 -0.3453
 1206TIP3    H225034   2.231   2.862  15.541 -1.2437 -0.4964 -0.2807
 1207TIP3   OH225035   4.633   5.622   2.559  0.2776  0.0419  0.7198
 1207TIP3    H125036   4.582   5.663   2.629  0.3280  0.4214  0.5357
 1207TIP3    H225037   4.705   5.683   2.543  0.6813 -0.4003  0.8452
 1208TIP3   OH225038   1.766   2.461   1.776  0.2029 -0.5520  0.8017
 1208TIP3    H125039   1.828   2.519   1.731 -0.5336  1.1881  1.9071
 1208TIP3    H225040   1.680   2.496   1.752 -0.4195 -2.8805 -0.6412
 1209TIP3   OH225041   3.435   0.818  13.788 -0.1951  0.1173 -0.0381
 1209TIP3    H125042   3.528   0.802  13.803 -0.1805  0.1239 -0.1237
 1209TIP3    H225043   3.430   0.850  13.699 -0.0954  1.6484  0.4770
 1210TIP3   OH225044   4.081   1.650  13.180  0.2724 -0.0311  0.5198
 1210TIP3    H125045   4.075   1.631  13.086  0.3889  1.2057  0.2370
 1210TIP3    H225046   4.167   1.616  13.206  1.4345  1.9615 -0.4569
 1211TIP3   OH225047   1.289   2.618  13.097 -0.5241  0.1218  0.0817
 1211TIP3    H125048   1.341   2.681  13.047  1.8586 -0.3714  1.8123
 1211TIP3    H225049   1.232   2.577  13.031  0.3093  1.6122 -1.6621
 1212TIP3   OH225050   4.670   4.402  12.100 -0.4746  0.2336  0.1626
 1212TIP3    H125051   4.683   4.497  12.093 -1.3977  0.5019  1.5406
 1212TIP3    H225052   4.755   4.368  12.128  0.4779  0.3305 -2.4073
 1213TIP3   OH225053   6.498   4.095   4.658  0.2823  0.2243 -0.5887
 1213TIP3    H125054   6.427   4.153   4.630  0.8685  2.2253  1.7323
 1213TIP3    H225055   6.578   4.147   4.645  1.1293 -1.1206 -0.9640
 1214TIP3   OH225056   3.692   6.597  13.772  0.1532  0.2975  0.7332
 1214TIP3    H125057   3.630   6.660  13.810  2.4330  2.1469  1.6097
 1214TIP3    H225058   3.778   6.629  13.799  1.5883 -1.5128 -1.3935
 1215TIP3   OH225059   5.732   5.103  12.420 -0.3037 -0.1604  0.1346
 1215TIP3    H125060   5.744   5.151  12.502 -0.0255  0.5102 -0.2967
 1215TIP3    H225061   5.654   5.141  12.380  0.0366  0.0872 -0.3076
 1216TIP3   OH225062   6.384   3.727   6.242 -0.0218 -0.1924  0.2674
 1216TIP3    H125063   6.300   3.686   6.264  0.6462 -2.0004 -0.3911
 1216TIP3    H225064   6.435   3.658   6.200  1.0355  1.4473 -1.3046
 1217TIP3   OH225065   5.332   5.645  11.413  0.4996  0.2943  0.2843
 1217TIP3    H125066   5.392   5.689  11.353  0.7915  0.5693  0.7719
 1217TIP3    H225067   5.381   5.638  11.495 -0.6928  2.0133  1.2153
 1218TIP3   OH225068   3.374   6.685  16.929 -0.3981  0.3339 -0.0513
 1218TIP3    H125069   3.357   6.684  17.024 -0.1696  2.9132  0.0908
 1218TIP3    H225070   3.440   6.753  16.918 -0.1942 -0.1468 -2.0651
 1219TIP3   OH225071   4.060   0.660  12.130 -0.0942  1.0492 -0.5133
 1219TIP3    H125072   4.008   0.582  12.148  1.0015  0.4528  0.1760
 1219TIP3    H225073   3.999   0.721  12.088 -1.7464  0.9864  1.6419
 1220TIP3   OH225074   3.456   3.364  13.219 -0.0226  0.4025  0.4359
 1220TIP3    H125075   3.438   3.456  13.235 -1.5741 -0.1882  2.4828
 1220TIP3    H225076   3.371   3.325  13.199  0.6957 -0.5064 -1.0637
 1221TIP3   OH225077   3.835   3.556  13.622  0.8439  1.0649  0.4330
 1221TIP3    H125078   3.750   3.577  13.582  1.6018  2.2638 -0.6255
 1221TIP3    H225079   3.821   3.472  13.665 -0.1202 -0.1779 -2.1414
 1222TIP3   OH225080   4.367   4.637   5.382 -0.8470  0.5606 -0.5926
 1222TIP3    H125081   4.388   4.658   5.473 -0.1042  0.7753 -0.8032
 1222TIP3    H225082   4.318   4.713   5.351  1.4855  1.9267 -1.2330
 1223TIP3   OH225083   5.762   1.311  11.472 -0.4730  0.5632  0.0023
 1223TIP3    H125084   5.727   1.386  11.521 -0.5678  0.6132 -0.1407
 1223TIP3    H225085   5.741   1.331  11.381 -0.3607  0.4354 -0.0503
 1224TIP3   OH225086   6.658   4.531   4.071 -0.7042 -0.4849  0.3442
 1224TIP3    H125087   6.650   4.573   3.985  0.1623 -0.8248  0.0834
 1224TIP3    H225088   6.732   4.575   4.113 -0.9181 -0.5427  0.7854
 1225TIP3   OH225089   6.249   2.645   1.962  0.0334 -0.7139  0.0806
 1225TIP3    H125090   6.328   2.604   1.928 -0.6190 -1.7257 -0.2469
 1225TIP3    H225091   6.281   2.719   2.014  1.1577 -0.7094 -0.5886
 1226TIP3   OH225092   0.089   4.418  11.350  0.2768 -0.0986  0.2342
 1226TIP3    H125093   0.153   4.449  11.414  1.4123  0.4949 -1.1288
 1226TIP3    H225094   0.119   4.329  11.327 -1.2404 -1.1108  1.8950
 1227TIP3   OH225095   6.411   0.391  10.777 -0.1041  0.5680 -0.0177
 1227TIP3    H125096   6.413   0.466  10.836  1.5820 -0.4442  1.2612
 1227TIP3    H225097   6.488   0.402  10.721  0.9631 -0.9079  1.1106
 1228TIP3   OH225098   2.708   0.153   5.391 -0.0411  0.7376  0.1146
 1228TIP3    H125099   2.623   0.194   5.408 -0.8529 -1.0220  0.4785
 1228TIP3    H225100   2.759   0.173   5.469 -0.6979  0.4065  0.6448
 1229TIP3   OH225101   3.902   5.911  16.886 -0.4194 -0.3477  0.2984
 1229TIP3    H125102   3.936   5.982  16.830  0.3477 -1.9137 -1.3384
 1229TIP3    H225103   3.956   5.916  16.965 -0.1617  0.6844  0.0838
 1230TIP3   OH225104   6.807   0.850  12.034 -0.5510 -0.5025 -0.1754
 1230TIP3    H125105   6.887   0.807  12.064  1.6449  2.1670 -1.7455
 1230TIP3    H225106   6.802   0.930  12.087  0.0853  1.2810 -2.6504
 1231TIP3   OH225107   0.271   1.489  13.066 -0.0562 -0.0181  1.3885
 1231TIP3    H125108   0.190   1.513  13.020 -1.2827 -0.6375  3.0994
 1231TIP3    H225109   0.263   1.532  13.151  2.0662  0.9736  1.1515
 1232TIP3   OH225110   3.453   2.175   4.534 -0.1400  0.2155 -0.2989
 1232TIP3    H125111   3.485   2.124   4.609 -1.1385 -0.7686 -0.5205
 1232TIP3    H225112   3.403   2.246   4.573  0.3291  0.3983 -0.0146
 1233TIP3   OH225113   2.712   0.004  15.824  0.5766  1.1983  0.4955
 1233TIP3    H125114   2.769   0.071  15.861 -0.2996  0.5858  3.1743
 1233TIP3    H225115   2.763  -0.077  15.831 -0.0598  0.8735  1.6381
 1234TIP3   OH225116   1.871   3.752   5.057 -0.1812  0.0391 -0.1783
 1234TIP3    H125117   1.869   3.728   5.150  0.9704 -0.9468 -0.3688
 1234TIP3    H225118   1.781   3.777   5.036 -0.3461  0.8348  1.3316
 1235TIP3   OH225119   4.527   3.902   6.056 -0.7284 -0.8720 -0.3121
 1235TIP3    H125120   4.568   3.899   6.142 -0.9536  1.3811 -0.0540
 1235TIP3    H225121   4.436   3.878   6.073 -0.3836 -2.1716 -0.2415
 1236TIP3   OH225122   6.062   4.923   3.135 -0.5295 -0.0653 -0.1196
 1236TIP3    H125123   6.018   4.952   3.215 -1.7730  0.6572 -1.0346
 1236TIP3    H225124   6.021   4.839   3.114 -0.2601 -0.2171 -0.0366
 1237TIP3   OH225125   1.765   0.359  15.920  0.1819  0.5328 -0.2782
 1237TIP3    H125126   1.731   0.341  16.007  1.6999 -1.3454 -0.0121
 1237TIP3    H225127   1.690   0.393  15.871 -1.5075 -1.3027  0.8961
 1238TIP3   OH225128   1.046   6.140   4.055  0.1166  0.3986 -0.4022
 1238TIP3    H125129   1.098   6.217   4.033  0.9947 -0.0367  0.0912
 1238TIP3    H225130   1.049   6.086   3.976  2.7590 -0.8827  0.4369
 1239TIP3   OH225131   1.610   1.558   0.225 -0.3307  0.2211 -0.3031
 1239TIP3    H125132   1.697   1.537   0.192 -0.1147  0.4297  0.1278
 1239TIP3    H225133   1.550   1.526   0.157 -0.0438 -2.0217  0.4147
 1240TIP3   OH225134   4.994   3.606  13.563  0.2145  0.4206  0.3689
 1240TIP3    H125135   4.964   3.603  13.472 -0.0031  1.4088  0.3900
 1240TIP3    H225136   5.089   3.619  13.556  0.2521  0.1137  0.2895
 1241TIP3   OH225137   0.493   0.530  12.304  0.3923  0.6264 -0.6731
 1241TIP3    H125138   0.417   0.472  12.311  0.7746  0.2298  0.3309
 1241TIP3    H225139   0.461   0.615  12.335  0.5786  0.2362  0.6494
 1242TIP3   OH225140   3.714   4.550  16.060 -0.3089  0.3067 -0.4263
 1242TIP3    H125141   3.787   4.554  15.997 -0.8351  0.0953 -1.0581
 1242TIP3    H225142   3.640   4.517  16.009 -0.1760 -2.1520  0.8368
 1243TIP3   OH225143   5.003   5.254   4.163  0.6781 -0.9477 -0.2297
 1243TIP3    H125144   5.038   5.194   4.097 -1.1266 -1.9727 -0.3137
 1243TIP3    H225145   4.991   5.337   4.117 -0.7091 -1.6926 -1.2800
 1244TIP3   OH225146   0.917   4.915  12.512 -0.3591  0.0231  0.1654
 1244TIP3    H125147   0.942   4.824  12.529  0.4124  0.0614 -0.6879
 1244TIP3    H225148   0.989   4.966  12.550  1.3868  0.1147 -2.9664
 1245TIP3   OH225149   0.127   2.202   5.253  0.0397  0.3816  0.5309
 1245TIP3    H125150   0.094   2.113   5.237 -1.7968  1.4968 -2.8707
 1245TIP3    H225151   0.084   2.229   5.335  2.4674 -2.5238  2.9819
 1246TIP3   OH225152   4.617   4.907   5.845  0.2032  0.4811  0.4328
 1246TIP3    H125153   4.680   4.871   5.782 -0.3471  0.2523  0.0067
 1246TIP3    H225154   4.636   4.860   5.927 -0.2090 -0.4713  0.0005
 1247TIP3   OH225155   5.398   1.934  12.666 -0.0655  0.1796  0.1156
 1247TIP3    H125156   5.334   2.005  12.658 -0.2148  0.0012 -0.3104
 1247TIP3    H225157   5.455   1.961  12.738 -0.6125  0.3474  0.4869
 1248TIP3   OH225158   5.479   1.060  13.082  0.3691 -0.4576  0.5240
 1248TIP3    H125159   5.386   1.064  13.106 -0.1315  1.0637 -1.4153
 1248TIP3    H225160   5.522   1.119  13.144  0.0202 -0.9786  1.2777
 1249TIP3   OH225161   0.730   3.099   2.166 -0.0666 -0.0083 -0.0441
 1249TIP3    H125162   0.765   3.097   2.255 -1.1313  2.1812  0.4887
 1249TIP3    H225163   0.803   3.128   2.112 -0.0486  0.9597  0.4876
 1250TIP3   OH225164   6.293   3.050   1.498 -0.1954 -0.1692 -0.5496
 1250TIP3    H125165   6.239   2.974   1.475  0.2127 -1.0333  1.1361
 1250TIP3    H225166   6.231   3.122   1.506 -0.9454 -0.8552  0.0905
 1251TIP3   OH225167   6.259   3.522  16.054  0.2169  0.0666  0.4682
 1251TIP3    H125168   6.272   3.591  15.989  1.1160 -0.8249 -0.3408
 1251TIP3    H225169   6.346   3.483  16.065  0.1820  0.4603  2.5381
 1252TIP3   OH225170   1.667   5.337  13.104  0.5633 -0.3821 -0.0687
 1252TIP3    H125171   1.734   5.363  13.167  0.4047 -0.0262 -0.0455
 1252TIP3    H225172   1.585   5.345  13.151  0.5438 -1.4489  0.1059
 1253TIP3   OH225173   4.075   5.383  13.490 -0.7652  0.3067  0.1968
 1253TIP3    H125174   4.081   5.463  13.542 -0.0367  0.6209 -0.3424
 1253TIP3    H225175   4.150   5.331  13.519  0.9196  1.3671 -1.9265
 1254TIP3   OH225176   6.546   0.489   0.361 -0.1919  0.3624  0.0888
 1254TIP3    H125177   6.501   0.467   0.443 -2.5845  1.4272 -0.8411
 1254TIP3    H225178   6.558   0.406   0.316 -0.2661 -0.0555  0.8302
 1255TIP3   OH225179   3.982   5.149   6.278 -0.0553  0.5253  0.3990
 1255TIP3    H125180   4.024   5.119   6.358  0.0998  0.5846  0.3399
 1255TIP3    H225181   4.053   5.157   6.215 -0.2533 -0.0406  0.1024
 1256TIP3   OH225182   5.968   3.844   3.629  0.2278 -0.6176 -0.2838
 1256TIP3    H125183   5.964   3.906   3.701 -1.0304 -1.4951  0.4342
 1256TIP3    H225184   5.973   3.758   3.671 -2.3385 -1.2775 -1.1455
 1257TIP3   OH225185   5.703   5.960  16.115  0.0868  0.4489 -0.0619
 1257TIP3    H125186   5.759   5.884  16.095 -0.6493  0.2564 -1.5135
 1257TIP3    H225187   5.764   6.033  16.123  0.5900  0.2109 -1.4371
 1258TIP3   OH225188   0.465   2.361  11.978  0.3707 -0.7887  0.4820
 1258TIP3    H125189   0.530   2.316  11.923  0.3029  0.3534 -0.5969
 1258TIP3    H225190   0.387   2.307  11.972  0.3130 -0.6006 -0.7317
 1259TIP3   OH225191   3.945   3.140  16.165 -0.4195  0.0806 -0.1753
 1259TIP3    H125192   4.000   3.066  16.192  1.0331  1.2673  0.3021
 1259TIP3    H225193   3.889   3.157  16.240  1.3831  1.3370  0.9901
 1260TIP3   OH225194   1.735   0.190   2.266  0.3579  0.1953  1.3180
 1260TIP3    H125195   1.668   0.162   2.329 -1.7231 -0.1349 -0.8730
 1260TIP3    H225196   1.748   0.114   2.210 -1.1405  1.6925 -1.2552
 1261TIP3   OH225197   4.524   5.905   4.762 -0.3793 -0.1321  0.6877
 1261TIP3    H125198   4.578   5.897   4.684  0.7830 -2.8562  1.6730
 1261TIP3    H225199   4.575   5.961   4.821 -1.1834  1.7891 -0.3262
 1262TIP3   OH225200   3.295   1.549   5.479 -0.0322 -0.4127  0.1702
 1262TIP3    H125201   3.235   1.477   5.499 -0.6908 -0.4740 -1.7878
 1262TIP3    H225202   3.361   1.545   5.549 -2.1618 -0.4521  2.3217
 1263TIP3   OH225203   1.565   6.568  15.034 -0.3972 -0.3458  0.1998
 1263TIP3    H125204   1.580   6.551  14.941  1.0122  0.6429  0.2199
 1263TIP3    H225205   1.471   6.580  15.042 -0.3405  1.7203 -1.5034
 1264TIP3   OH225206   4.425   4.444  10.887 -0.2763  0.2670  0.2078
 1264TIP3    H125207   4.418   4.436  10.792 -0.0633 -0.8637  0.2686
 1264TIP3    H225208   4.474   4.525  10.901  0.3569  0.0477 -0.6813
 1265TIP3   OH225209   1.093   3.049   0.978  0.1268 -0.3379  0.3627
 1265TIP3    H125210   1.094   2.961   0.942 -0.6410 -0.3392  0.3438
 1265TIP3    H225211   1.186   3.070   0.991  0.3334 -0.9766 -0.0317
 1266TIP3   OH225212   4.932   5.125   1.030  0.2537  0.2703 -0.7677
 1266TIP3    H125213   4.852   5.168   1.062 -0.7866 -1.3801 -1.0598
 1266TIP3    H225214   4.991   5.198   1.008  0.0188  1.5575  2.2527
 1267TIP3   OH225215   5.643   3.384  13.296  0.1918  0.1102 -0.2893
 1267TIP3    H125216   5.673   3.295  13.275  1.6498  0.7370 -0.9754
 1267TIP3    H225217   5.549   3.374  13.308  0.4477 -1.7226  0.7040
 1268TIP3   OH225218   2.736   3.827  13.450 -0.5217 -0.5575  0.3057
 1268TIP3    H125219   2.662   3.769  13.433 -1.7759  0.9915  0.2756
 1268TIP3    H225220   2.711   3.878  13.527  0.1765  0.5163 -0.1400
 1269TIP3   OH225221   3.718   4.008   2.795  0.3787 -0.1715 -0.7144
 1269TIP3    H125222   3.688   4.095   2.772  0.3460  0.1805  0.5687
 1269TIP3    H225223   3.813   4.014   2.797  0.3460  0.1204  0.3810
 1270TIP3   OH225224   5.848   6.309  15.433 -0.4020 -0.0834 -0.9237
 1270TIP3    H125225   5.929   6.342  15.395  1.1446 -2.7308 -0.1322
 1270TIP3    H225226   5.784   6.313  15.362  1.0625 -0.1806 -2.2866
 1271TIP3   OH225227   6.088   3.565   2.167  0.1575 -0.9009  0.2402
 1271TIP3    H125228   6.041   3.581   2.249  0.1954 -0.5978  0.2056
 1271TIP3    H225229   6.074   3.645   2.115  0.4691 -0.9265  0.1136
 1272TIP3   OH225230   2.570   3.845  15.341  0.1058  0.3136  0.1653
 1272TIP3    H125231   2.532   3.775  15.287 -1.4772  0.0183  1.6014
 1272TIP3    H225232   2.606   3.800  15.417  1.5511  0.8183 -0.1811
 1273TIP3   OH225233   2.227   6.033  15.391 -0.4002 -0.3372 -0.1039
 1273TIP3    H125234   2.183   6.080  15.461  1.4008  0.2652  0.6943
 1273TIP3    H225235   2.256   6.101  15.330  1.2612 -0.4652  0.4969
 1274TIP3   OH225236   2.920   6.728   2.686  0.0994  0.1457  0.9182
 1274TIP3    H125237   3.014   6.711   2.684  0.2432  0.9397  0.5759
 1274TIP3    H225238   2.902   6.753   2.776  0.1483 -0.3820  1.0747
 1275TIP3   OH225239   4.330   4.180  16.176  0.2479 -0.0295  0.0444
 1275TIP3    H125240   4.283   4.205  16.096 -1.0503  1.4277  1.1921
 1275TIP3    H225241   4.331   4.260  16.229  2.5577 -0.4787  0.8266
 1276TIP3   OH225242   6.008   2.151   0.415  0.6470  0.4115 -0.5057
 1276TIP3    H125243   6.009   2.101   0.497  0.0963 -1.0259 -1.3503
 1276TIP3    H225244   6.095   2.191   0.411  1.0495 -0.3578  0.2746
 1277TIP3   OH225245   3.049   6.074   2.220  0.6178  0.4743  0.2929
 1277TIP3    H125246   3.032   5.983   2.196  2.3517  0.7605 -2.5798
 1277TIP3    H225247   2.987   6.093   2.291 -1.6358 -2.1442 -0.7966
 1278TIP3   OH225248   0.920   2.559  14.825  0.1334  0.3102  0.3126
 1278TIP3    H125249   0.864   2.484  14.846  1.6426 -0.5280  1.6232
 1278TIP3    H225250   0.914   2.569  14.730  0.0706 -1.6475  0.0729
 1279TIP3   OH225251   6.356   5.939   3.852  0.4982 -0.0081 -0.1086
 1279TIP3    H125252   6.323   6.028   3.848  2.3236  0.7972  1.2324
 1279TIP3    H225253   6.345   5.905   3.764 -0.3295  1.5001 -0.6193
 1280TIP3   OH225254   1.637   5.681   2.647  0.3049  0.4518  0.3120
 1280TIP3    H125255   1.631   5.679   2.742  1.4094  0.7398  0.3969
 1280TIP3    H225256   1.554   5.720   2.619 -0.4473 -0.5467  1.0919
 1281TIP3   OH225257   5.497   1.907  11.382 -0.0594 -0.1526  0.5965
 1281TIP3    H125258   5.464   1.992  11.411 -0.2195  0.2834 -0.8224
 1281TIP3    H225259   5.419   1.851  11.379 -0.2783  0.1962 -0.3637
 1282TIP3   OH225260   0.068   6.621   2.960  0.0205  0.3278  0.0042
 1282TIP3    H125261   0.119   6.689   2.917 -0.4992  0.4797 -0.3812
 1282TIP3    H225262   0.028   6.664   3.035  2.1777 -0.2974  1.6224
 1283TIP3   OH225263   5.487   2.190   3.786 -0.4081  0.2199 -0.0618
 1283TIP3    H125264   5.509   2.269   3.835  0.0637  0.2253 -0.2786
 1283TIP3    H225265   5.560   2.179   3.725  1.4674 -2.4333  2.3909
 1284TIP3   OH225266   4.481   3.772   5.783  0.1545  0.0927  0.2924
 1284TIP3    H125267   4.444   3.783   5.871  1.0659  0.8969  0.5976
 1284TIP3    H225268   4.536   3.693   5.791 -2.1252 -1.6670 -0.4152
 1285TIP3   OH225269   3.689   0.544   2.363 -0.2488  0.0499 -0.2875
 1285TIP3    H125270   3.713   0.626   2.406 -0.0835 -0.1170 -0.0625
 1285TIP3    H225271   3.610   0.515   2.408  0.0603 -0.2475  0.0579
 1286TIP3   OH225272   1.920   3.100  14.831 -0.4597 -0.3832 -0.1013
 1286TIP3    H125273   1.890   3.108  14.740  1.5112  0.9307 -0.6923
 1286TIP3    H225274   1.894   3.011  14.857  1.1920 -1.7868 -2.8168
 1287TIP3   OH225275   2.985   2.029  13.979  0.2430 -0.1857 -0.2304
 1287TIP3    H125276   2.962   1.979  14.057 -0.8034 -0.5069 -0.7325
 1287TIP3    H225277   2.953   1.977  13.906 -0.5505  1.0331 -0.7852
 1288TIP3   OH225278   1.559   4.606  13.435  0.5946 -0.5761  0.0313
 1288TIP3    H125279   1.652   4.604  13.459  1.1550  0.4885 -1.8971
 1288TIP3    H225280   1.559   4.614  13.340 -1.4991 -1.1750 -0.0522
 1289TIP3   OH225281   5.143   2.662   4.968  1.0558 -0.1664 -0.2614
 1289TIP3    H125282   5.089   2.663   5.047  0.2416 -3.0332 -0.6755
 1289TIP3    H225283   5.222   2.710   4.993 -0.2307  1.2336  1.4346
 1290TIP3   OH225284   2.255   0.810   6.707  0.1826 -0.6020  0.1394
 1290TIP3    H125285   2.215   0.800   6.621  1.2851 -0.6588 -0.3955
 1290TIP3    H225286   2.222   0.736   6.758 -1.9372  0.4656  0.3837
 1291TIP3   OH225287   1.027   3.504  13.534 -0.2464 -0.4709 -0.1162
 1291TIP3    H125288   1.098   3.446  13.561  0.4208  0.5209  0.3132
 1291TIP3    H225289   1.031   3.503  13.438  0.9625  0.2817 -0.0924
 1292TIP3   OH225290   3.414   4.189  12.991 -0.4621  0.3303 -0.2115
 1292TIP3    H125291   3.381   4.107  13.029  0.7726  0.4371  1.1886
 1292TIP3    H225292   3.403   4.254  13.061 -1.9871  1.5485 -1.5050
 1293TIP3   OH225293   1.641   3.309  15.284  0.7052 -0.3070 -0.2305
 1293TIP3    H125294   1.555   3.325  15.247  1.8596  0.8719 -2.6459
 1293TIP3    H225295   1.684   3.395  15.284  1.3963 -0.5448  2.4427
 1294TIP3   OH225296   6.369   4.985  14.983  0.1217  0.3657 -0.1791
 1294TIP3    H125297   6.405   4.982  14.894  0.0487  1.1647 -0.2396
 1294TIP3    H225298   6.292   5.042  14.976 -0.9298 -0.9829  0.0328
 1295TIP3   OH225299   1.703   4.956  16.143 -1.0471  0.1004  0.0495
 1295TIP3    H125300   1.733   4.872  16.178  0.2045  0.0858 -0.9720
 1295TIP3    H225301   1.609   4.945  16.132 -1.1883 -0.5207  1.6319
 1296TIP3   OH225302   0.686   4.762   3.030  0.3521 -0.3590 -0.3968
 1296TIP3    H125303   0.655   4.852   3.039  1.7759  0.1651 -0.4474
 1296TIP3    H225304   0.628   4.712   3.087 -2.0921  0.1446 -2.2842
 1297TIP3   OH225305   0.069   4.275   5.064  0.2492  0.4089 -0.2490
 1297TIP3    H125306   0.128   4.322   5.122  0.0513  0.5108 -0.1302
 1297TIP3    H225307   0.013   4.224   5.122 -1.6541  2.4568 -0.1837
 1298TIP3   OH225308   3.254   4.490  12.088 -0.7253 -0.3760 -0.3343
 1298TIP3    H125309   3.216   4.533  12.012 -1.5080 -0.7700 -0.1768
 1298TIP3    H225310   3.180   4.476  12.148  0.0705  1.0012  1.0303
 1299TIP3   OH225311   0.440   5.719   5.609 -0.1430  0.8913  0.1986
 1299TIP3    H125312   0.352   5.716   5.570 -0.5140  1.1234  0.9902
 1299TIP3    H225313   0.448   5.636   5.655  0.5149  0.3759 -0.8081
 1300TIP3   OH225314   6.231   5.454  15.139 -0.0143  0.1224  0.2262
 1300TIP3    H125315   6.240   5.367  15.179  1.6324  0.1102 -0.1322
 1300TIP3    H225316   6.320   5.483  15.123 -0.5467  0.1535 -3.4062
 1301TIP3   OH225317   0.567   3.406  11.121  0.1438 -0.4252  0.1392
 1301TIP3    H125318   0.607   3.329  11.161  1.2272 -1.7067 -3.1114
 1301TIP3    H225319   0.626   3.478  11.143  2.6628 -1.7137 -1.8778
 1302TIP3   OH225320   2.184   4.775   1.812 -0.1860 -0.1732  0.2372
 1302TIP3    H125321   2.145   4.710   1.754  0.1610  0.4206 -0.6773
 1302TIP3    H225322   2.115   4.794   1.876 -1.6703  1.2566 -1.6577
 1303TIP3   OH225323   3.023   1.900   4.636  0.5127  0.3094  0.2684
 1303TIP3    H125324   3.040   1.929   4.726 -0.8449  2.4661 -0.0988
 1303TIP3    H225325   3.040   1.978   4.582  1.4806 -0.9840 -1.3954
 1304TIP3   OH225326   6.342   6.464   3.986 -0.1962  0.2686  0.2818
 1304TIP3    H125327   6.354   6.544   3.936  1.6593  0.4360  0.9133
 1304TIP3    H225328   6.269   6.483   4.045  1.4884  2.2975  1.8643
 1305TIP3   OH225329   1.396   0.633  13.714 -0.3107 -0.1810  0.0841
 1305TIP3    H125330   1.456   0.608  13.784 -1.2561 -0.3002  0.8832
 1305TIP3    H225331   1.435   0.713  13.677  1.3646 -1.3470 -0.7745
 1306TIP3   OH225332   2.556   2.772   5.014  0.7079 -0.3625  0.3886
 1306TIP3    H125333   2.621   2.839   5.038 -0.3201  0.5644  0.6778
 1306TIP3    H225334   2.603   2.715   4.953  1.8160  0.2435  0.6309
 1307TIP3   OH225335   5.976   0.087  11.696 -0.3500  1.0329 -1.1655
 1307TIP3    H125336   6.067   0.117  11.697 -0.3265  0.9926 -2.0868
 1307TIP3    H225337   5.982  -0.009  11.692 -0.4389  0.9899 -0.4713
 1308TIP3   OH225338   3.297   5.623  12.251 -0.7219  0.3020  0.1213
 1308TIP3    H125339   3.273   5.645  12.162 -2.0873  0.0359  0.3983
 1308TIP3    H225340   3.341   5.538  12.243  1.4110  1.4084 -0.5426
 1309TIP3   OH225341   6.685   6.795  15.848  0.7697  0.3306 -0.1803
 1309TIP3    H125342   6.709   6.840  15.929 -1.2254 -0.1961  0.7710
 1309TIP3    H225343   6.697   6.702  15.867 -0.2304  0.1669 -0.2560
 1310TIP3   OH225344   3.527   6.049  11.494 -0.5517  0.7241  0.1350
 1310TIP3    H125345   3.580   5.980  11.535 -1.3649  0.1890  0.3043
 1310TIP3    H225346   3.550   6.129  11.542 -0.7119  0.2962  0.9397
 1311TIP3   OH225347   5.507   4.308  11.832  0.3415 -0.3278  0.1805
 1311TIP3    H125348   5.447   4.380  11.812 -1.7513 -1.6729  1.2489
 1311TIP3    H225349   5.540   4.329  11.920  0.4840 -0.2196  0.1031
 1312TIP3   OH225350   0.216   6.349  14.360 -1.1326  0.0427 -0.5718
 1312TIP3    H125351   0.241   6.423  14.415  0.1213 -0.1959 -0.7947
 1312TIP3    H225352   0.264   6.362  14.279 -1.5519 -0.5759 -0.9269
 1313TIP3   OH225353   4.863   1.139   6.555 -0.0423 -0.3394 -0.0263
 1313TIP3    H125354   4.935   1.203   6.558 -0.5652  0.3314 -1.1387
 1313TIP3    H225355   4.874   1.094   6.471 -0.6503 -0.5510  0.0023
 1314TIP3   OH225356   6.016   6.412  15.082  0.3809 -0.2944  0.2720
 1314TIP3    H125357   5.982   6.451  15.001 -1.4035  0.5351  1.3493
 1314TIP3    H225358   6.111   6.428  15.078  0.3091 -0.1086 -1.5481
 1315TIP3   OH225359   2.765   5.876  12.975 -0.2186 -0.0867 -0.6487
 1315TIP3    H125360   2.751   5.916  13.060  0.1477  2.0599 -1.5349
 1315TIP3    H225361   2.859   5.856  12.972 -0.5633 -2.0536  0.1723
 1316TIP3   OH225362   5.351   6.220  15.031 -0.5242 -0.0320 -0.1491
 1316TIP3    H125363   5.374   6.133  14.997  0.7100 -0.0323  0.6078
 1316TIP3    H225364   5.289   6.203  15.101 -1.3292 -0.1935 -0.8883
 1317TIP3   OH225365   4.119   6.107   1.811 -0.3951 -0.2235  0.3923
 1317TIP3    H125366   4.072   6.166   1.870 -0.1325  0.1681  0.2096
 1317TIP3    H225367   4.160   6.164   1.747  1.0555 -0.4696  1.0524
 1318TIP3   OH225368   1.690   6.586  16.368 -0.0260 -0.5287  0.0473
 1318TIP3    H125369   1.623   6.524  16.338 -1.9282 -0.0764  2.9341
 1318TIP3    H225370   1.656   6.672  16.344  1.1442 -0.4222 -1.3079
 1319TIP3   OH225371   3.108   5.245  15.781 -0.0714  0.2076  0.4516
 1319TIP3    H125372   3.139   5.332  15.804  1.7586 -0.6552  1.4067
 1319TIP3    H225373   3.124   5.237  15.687  1.4583  0.2749  0.6845
 1320TIP3   OH225374   6.196   2.095   2.328  0.5856  0.1465 -0.2928
 1320TIP3    H125375   6.199   2.075   2.421  1.2189 -1.4983 -0.6449
 1320TIP3    H225376   6.129   2.036   2.292  0.9358  0.1706 -1.0103
 1321TIP3   OH225377   3.111   5.236  12.576 -0.3097 -0.2558  0.0974
 1321TIP3    H125378   3.160   5.154  12.576  0.5012  0.1971 -1.0420
 1321TIP3    H225379   3.176   5.303  12.553 -1.2031  0.5346 -0.2063
 1322TIP3   OH225380   2.127   5.052   4.548 -0.3552  0.1901 -0.1121
 1322TIP3    H125381   2.041   5.011   4.548  0.4035 -1.5724  1.5775
 1322TIP3    H225382   2.177   5.003   4.482  0.0007 -0.3277  0.5374
 1323TIP3   OH225383   3.479   2.611  12.694  0.6199  0.3201 -0.1616
 1323TIP3    H125384   3.493   2.570  12.608 -1.0153 -1.0177  0.1472
 1323TIP3    H225385   3.525   2.694  12.689  1.9967 -0.4851 -1.7310
 1324TIP3   OH225386   5.045   5.445   3.181  0.2130  0.4483 -0.9220
 1324TIP3    H125387   5.132   5.423   3.215  0.1963  1.7405  0.0582
 1324TIP3    H225388   4.985   5.406   3.245  0.1109  0.6707 -0.8829
 1325TIP3   OH225389   1.823   0.566  16.771  0.0167  0.1996 -0.3062
 1325TIP3    H125390   1.734   0.599  16.759  0.2844  0.7973 -0.6647
 1325TIP3    H225391   1.877   0.619  16.713  0.8004  0.7004  0.8465
 1326TIP3   OH225392   6.635   3.732   3.119 -0.1431 -0.5877  0.2062
 1326TIP3    H125393   6.667   3.820   3.140  1.5118 -1.1990  0.4473
 1326TIP3    H225394   6.696   3.673   3.164 -0.4585 -1.8632 -0.9643
 1327TIP3   OH225395   3.926   0.029   5.776  0.0276  0.4434  0.7001
 1327TIP3    H125396   3.953   0.108   5.823  1.8692 -0.2056  0.8077
 1327TIP3    H225397   4.008  -0.015   5.754 -0.8749 -0.4220 -1.1519
 1328TIP3   OH225398   4.626   5.741  14.313 -0.1048 -0.6666  0.3019
 1328TIP3    H125399   4.663   5.653  14.301  0.6652 -0.5859  1.7922
 1328TIP3    H225400   4.577   5.735  14.395 -3.1388 -0.6413 -1.3687
 1329TIP3   OH225401   2.418   5.132  13.425 -0.2660  0.4066  0.1774
 1329TIP3    H125402   2.388   5.205  13.371  1.1750  1.1747  0.3679
 1329TIP3    H225403   2.342   5.110  13.480 -0.9649  1.2262 -0.4363
 1330TIP3   OH225404   1.302   5.231  12.546 -1.0377 -0.2292  0.2100
 1330TIP3    H125405   1.311   5.157  12.606 -2.1211  0.2593  0.9966
 1330TIP3    H225406   1.334   5.197  12.462  1.4197 -0.6244  1.2175
 1331TIP3   OH225407   4.439   1.278   5.415 -0.6226 -0.4747 -0.0274
 1331TIP3    H125408   4.437   1.216   5.487 -0.1432  1.8354  2.1220
 1331TIP3    H225409   4.352   1.319   5.416 -1.6607 -2.3515 -2.7149
 1332TIP3   OH225410   2.991   2.145   3.634 -0.3479 -0.5339  0.2542
 1332TIP3    H125411   3.024   2.230   3.663  0.4134 -0.7828  0.1285
 1332TIP3    H225412   2.921   2.167   3.572 -0.9327 -0.0030  1.0787
 1333TIP3   OH225413   2.235   0.571   0.943  0.1265 -1.1348 -0.2890
 1333TIP3    H125414   2.230   0.632   0.870  0.9736 -0.6609  0.0418
 1333TIP3    H225415   2.198   0.490   0.909  0.1987 -0.8189 -1.1316
 1334TIP3   OH225416   4.686   6.380   5.843  0.2885  0.8333 -0.1886
 1334TIP3    H125417   4.764   6.337   5.880  0.6125  1.7046  0.1584
 1334TIP3    H225418   4.717   6.416   5.760 -0.1105  0.0002 -0.7174
 1335TIP3   OH225419   3.128   5.108  11.939  0.7452 -0.1575  0.5192
 1335TIP3    H125420   3.065   5.055  11.890  1.9775 -0.5606 -0.6980
 1335TIP3    H225421   3.089   5.118  12.025 -0.8505 -0.6306 -0.1043
 1336TIP3   OH225422   5.224   1.133   3.835 -0.0019  0.1919 -0.3406
 1336TIP3    H125423   5.205   1.213   3.787 -1.1141  0.7051  0.8953
 1336TIP3    H225424   5.150   1.122   3.894  0.8996 -0.8613  0.6514
 1337TIP3   OH225425   4.693   4.869   2.761 -0.2079 -0.0155  0.2458
 1337TIP3    H125426   4.642   4.950   2.750  1.6660  1.2590  0.4950
 1337TIP3    H225427   4.778   4.898   2.793  0.4467 -2.1418  0.6142
 1338TIP3   OH225428   4.776   5.938   5.432 -0.3730 -0.4459  0.0356
 1338TIP3    H125429   4.846   6.001   5.447 -0.7757  0.1105 -0.3821
 1338TIP3    H225430   4.804   5.859   5.479 -1.0449  0.8163  2.7096
 1339TIP3   OH225431   0.555   4.940   5.267  0.5194  0.1195 -0.3220
 1339TIP3    H125432   0.640   4.926   5.225  0.5762 -0.2934 -0.0787
 1339TIP3    H225433   0.575   4.942   5.361  0.2349 -0.1850 -0.2517
 1340TIP3   OH225434   0.186   5.149  12.591  0.9600  0.2103 -0.0107
 1340TIP3    H125435   0.143   5.166  12.507 -0.1452  0.2087  0.5373
 1340TIP3    H225436   0.159   5.060  12.614 -0.2995  0.8785  1.2346
 1341TIP3   OH225437   6.154   1.188  15.641  0.3615  0.2669 -0.1225
 1341TIP3    H125438   6.238   1.226  15.615  0.2927  0.5069  0.0040
 1341TIP3    H225439   6.176   1.130  15.714  0.5629 -0.4428 -0.7225
 1342TIP3   OH225440   3.568   6.680  13.125 -0.2781 -0.4941  0.0496
 1342TIP3    H125441   3.543   6.770  13.144 -0.9928 -0.7762  0.5009
 1342TIP3    H225442   3.507   6.652  13.057 -0.1202 -0.6708 -0.0216
 1343TIP3   OH225443   1.463   1.182  13.845  0.1255  0.3489  0.0327
 1343TIP3    H125444   1.428   1.247  13.906  1.4753 -1.6415  3.2506
 1343TIP3    H225445   1.409   1.104  13.860  0.9656 -0.4070 -0.7796
 1344TIP3   OH225446   5.085   6.415  12.937 -0.1866 -0.2821  0.2082
 1344TIP3    H125447   5.148   6.480  12.907  2.0186 -2.5980 -0.5352
 1344TIP3    H225448   5.086   6.347  12.870 -0.4787 -2.2665  2.0824
 1345TIP3   OH225449   5.251   2.985   3.299 -0.0856  0.4884 -0.0263
 1345TIP3    H125450   5.315   2.931   3.346 -0.0369  0.3148 -0.2841
 1345TIP3    H225451   5.269   2.967   3.206  0.2732  1.3475 -0.1305
 1346TIP3   OH225452   4.501   0.893   0.757  0.3287  0.0729 -0.5868
 1346TIP3    H125453   4.445   0.968   0.777  1.1165  0.2471  1.2039
 1346TIP3    H225454   4.440   0.823   0.734 -0.8007  0.0136  2.1508
 1347TIP3   OH225455   2.126   4.308   5.688 -0.7481 -0.6252  0.8477
 1347TIP3    H125456   2.115   4.213   5.686  0.5690 -0.8980  2.9861
 1347TIP3    H225457   2.209   4.324   5.642 -1.7786 -0.2829 -0.9864
 1348TIP3   OH225458   6.813   2.827  16.007  0.1353 -0.1950 -0.3174
 1348TIP3    H125459   6.798   2.862  16.094 -2.0166 -0.0511 -0.7040
 1348TIP3    H225460   6.813   2.732  16.018  3.4221 -0.2276  0.3268
 1349TIP3   OH225461   5.691   3.055  12.667 -0.6547 -0.4169  0.3242
 1349TIP3    H125462   5.619   3.078  12.609 -1.3112  0.0963  1.3227
 1349TIP3    H225463   5.744   2.993  12.616 -1.3108 -0.1265 -0.7389
 1350TIP3   OH225464   4.664   5.705   5.692 -0.3908 -0.3627  0.3867
 1350TIP3    H125465   4.729   5.660   5.639 -1.0759 -0.4910 -0.3620
 1350TIP3    H225466   4.616   5.635   5.736  0.0153 -0.2670  0.9869
 1351TIP3   OH225467   6.182   6.158   3.152  0.8019  0.4061 -0.1048
 1351TIP3    H125468   6.250   6.112   3.103  0.1470 -0.2215 -0.4591
 1351TIP3    H225469   6.112   6.092   3.162  0.7619  0.6447  1.3291
 1352TIP3   OH225470   2.182   6.754  16.679  0.6305  0.1545  0.0256
 1352TIP3    H125471   2.233   6.781  16.756  0.2783  1.1568 -0.0856
 1352TIP3    H225472   2.188   6.828  16.619 -0.7817  0.2189 -0.0713
 1353TIP3   OH225473   4.033   4.848   4.811  0.0904  0.3614 -0.0511
 1353TIP3    H125474   4.060   4.933   4.776  0.5261  0.7764  1.2431
 1353TIP3    H225475   4.081   4.839   4.894 -1.2653 -0.3576  0.6967
 1354TIP3   OH225476   6.340   6.091  11.805 -0.1026  0.2637 -0.5750
 1354TIP3    H125477   6.377   6.155  11.745 -0.1021  1.5886  0.7666
 1354TIP3    H225478   6.302   6.144  11.875  0.7855 -1.2205  1.1086
 1355TIP3   OH225479   1.601   2.690  12.424  0.0354 -0.5642 -0.5427
 1355TIP3    H125480   1.662   2.737  12.481 -1.8375 -0.7935  1.8503
 1355TIP3    H225481   1.656   2.644  12.361  2.4397 -1.7872  2.2437
 1356TIP3   OH225482   1.173   0.150  15.125 -0.1335  0.5086 -0.2787
 1356TIP3    H125483   1.192   0.112  15.211 -1.5098  1.6162  0.5623
 1356TIP3    H225484   1.154   0.075  15.069 -1.0805 -0.1459  0.8804
 1357TIP3   OH225485   5.387   3.970   6.251 -0.0581  0.5566 -0.7827
 1357TIP3    H125486   5.395   3.875   6.248  1.1273  0.6655 -2.0539
 1357TIP3    H225487   5.382   3.991   6.344 -1.2577 -0.8035 -0.5166
 1358TIP3   OH225488   0.912   5.507   3.505  0.2472  0.0075  0.5012
 1358TIP3    H125489   0.913   5.417   3.536 -0.5574  0.0326  0.6093
 1358TIP3    H225490   0.931   5.501   3.411 -3.0851 -0.6046 -0.2530
 1359TIP3   OH225491   1.786   2.508   5.193 -0.2312  0.1010  0.3974
 1359TIP3    H125492   1.824   2.566   5.127 -0.9142 -0.0842 -0.1677
 1359TIP3    H225493   1.691   2.511   5.176 -0.2610 -1.3971  0.1723
 1360TIP3   OH225494   1.612   1.195   3.047  0.5739  0.3695 -0.3104
 1360TIP3    H125495   1.695   1.220   3.086  0.0791  0.2370  0.8805
 1360TIP3    H225496   1.546   1.236   3.104 -0.2330 -2.1831  0.7413
 1361TIP3   OH225497   4.147   4.319  15.157  0.0092  0.0740 -0.3176
 1361TIP3    H125498   4.057   4.341  15.181 -0.1122  0.2215 -0.8892
 1361TIP3    H225499   4.201   4.372  15.215 -0.2725 -0.1525  0.1551
 1362TIP3   OH225500   6.150   4.151  11.561 -0.9830 -0.1424  0.1358
 1362TIP3    H125501   6.180   4.238  11.535 -2.1430 -0.1287 -1.2649
 1362TIP3    H225502   6.230   4.098  11.563 -0.5781  0.3566 -1.5446
 1363TIP3   OH225503   5.321   2.670  12.267 -0.5263  0.3765  0.1718
 1363TIP3    H125504   5.369   2.734  12.319 -1.0177 -1.3141  2.8543
 1363TIP3    H225505   5.234   2.666  12.307 -1.2039 -0.4714 -1.2707
 1364TIP3   OH225506   0.957   4.288  12.174 -0.0735  0.4196  0.3260
 1364TIP3    H125507   0.978   4.323  12.088  0.5258  1.5308  0.8896
 1364TIP3    H225508   0.931   4.365  12.225 -1.4524 -0.3527  0.8526
 1365TIP3   OH225509   5.424   4.804  10.618  0.1182  0.9926  0.0598
 1365TIP3    H125510   5.372   4.775  10.544 -0.2906 -1.2150  1.1341
 1365TIP3    H225511   5.514   4.805  10.585 -0.1729  1.1241 -0.7536
 1366TIP3   OH225512   0.632   4.073  16.331  0.0625 -0.1420  0.5932
 1366TIP3    H125513   0.710   4.113  16.292  0.0872  0.6787  1.4415
 1366TIP3    H225514   0.604   4.135  16.399 -1.0914 -0.6226  0.5855
 1367TIP3   OH225515   4.164   4.963  11.782 -0.2150  0.8412  0.3338
 1367TIP3    H125516   4.180   5.001  11.869 -0.6767  1.1557  0.2880
 1367TIP3    H225517   4.106   4.888  11.800  1.4584 -0.4543  0.5285
 1368TIP3   OH225518   4.404   1.527  12.533 -0.4075 -0.5577 -0.1371
 1368TIP3    H125519   4.488   1.530  12.488  0.1416 -0.3812  0.8707
 1368TIP3    H225520   4.357   1.603  12.500  0.2127 -0.1038  0.0035
 1369TIP3   OH225521   2.825   0.722  13.768 -0.1092 -0.1445 -0.0258
 1369TIP3    H125522   2.784   0.659  13.828 -0.1722  0.4973  0.6165
 1369TIP3    H225523   2.795   0.696  13.681  0.2050 -1.2657  0.1864
 1370TIP3   OH225524   1.024   4.254  12.676 -0.0279  1.1735  0.2665
 1370TIP3    H125525   0.945   4.200  12.674  0.8813 -0.1622 -0.4210
 1370TIP3    H225526   1.038   4.270  12.770 -0.4895  0.4827  0.4686
 1371TIP3   OH225527   1.559   2.765   1.875 -0.1840  0.1219 -0.0734
 1371TIP3    H125528   1.526   2.678   1.854  0.8333 -0.2727 -0.0733
 1371TIP3    H225529   1.550   2.772   1.970  2.3076 -1.1110  0.3287
 1372TIP3   OH225530   3.916   2.523  11.512 -0.3113 -0.3817 -0.1627
 1372TIP3    H125531   3.896   2.572  11.432 -2.1363 -2.0977 -0.8346
 1372TIP3    H225532   3.956   2.442  11.482 -1.7168 -1.3892  0.5557
 1373TIP3   OH225533   0.295   6.517  15.199  0.3904  0.4272  0.3342
 1373TIP3    H125534   0.259   6.463  15.269 -1.1477  1.7797  0.6483
 1373TIP3    H225535   0.329   6.455  15.135 -1.1623 -0.9048  0.7607
 1374TIP3   OH225536   3.992   4.274  16.452  0.0780 -0.5590 -0.3383
 1374TIP3    H125537   4.012   4.183  16.476 -0.2802 -1.1279 -2.0368
 1374TIP3    H225538   3.897   4.281  16.465  0.2531 -0.0838  0.7918
 1375TIP3   OH225539   1.270   5.530  10.333 -0.5664  0.1950 -0.1227
 1375TIP3    H125540   1.356   5.494  10.315 -1.0275 -0.8460 -0.2706
 1375TIP3    H225541   1.242   5.568  10.250 -0.0722  0.9546  0.0422
 1376TIP3   OH225542   2.246   5.934  11.215  0.2223  0.0847  0.2592
 1376TIP3    H125543   2.252   5.886  11.133 -1.0904 -0.6073  0.5510
 1376TIP3    H225544   2.312   5.894  11.271  2.6462  1.9360 -1.0654
 1377TIP3   OH225545   0.417   4.335   4.839 -0.2259  0.2136  0.1581
 1377TIP3    H125546   0.481   4.388   4.885 -0.0640 -0.5950  0.8800
 1377TIP3    H225547   0.352   4.398   4.808 -0.1270  0.8234  1.1416
 1378TIP3   OH225548   3.675   0.097  15.189  0.2175 -0.0241  0.6785
 1378TIP3    H125549   3.673   0.005  15.215  0.9788  0.1995  1.5928
 1378TIP3    H225550   3.762   0.127  15.214  0.6823  0.4696 -1.3468
 1379TIP3   OH225551   2.483   3.567  11.489 -0.0170 -0.3196  0.5066
 1379TIP3    H125552   2.526   3.650  11.469 -0.9354 -0.0693 -0.5695
 1379TIP3    H225553   2.389   3.589  11.492 -0.4288 -1.5383 -1.3118
 1380TIP3   OH225554   3.049   5.907   4.046 -0.4029  0.5377  0.0322
 1380TIP3    H125555   3.042   5.846   3.973  0.0120 -0.3304  0.6989
 1380TIP3    H225556   3.140   5.936   4.045 -0.5746  1.0629 -0.2218
 1381TIP3   OH225557   5.199   3.240   6.550  0.6175  0.0197 -0.5070
 1381TIP3    H125558   5.115   3.284   6.561  0.6606  1.3302 -3.9676
 1381TIP3    H225559   5.201   3.175   6.619 -1.8077  2.0017  1.6585
 1382TIP3   OH225560   0.846   2.606   4.328 -0.0402 -0.0004  0.6611
 1382TIP3    H125561   0.895   2.659   4.264  0.2908 -0.5367  0.4701
 1382TIP3    H225562   0.778   2.666   4.360 -1.7502 -0.4041 -1.9348
 1383TIP3   OH225563   4.505   5.230  14.732  0.6843 -0.2858 -0.4657
 1383TIP3    H125564   4.491   5.224  14.638  0.2838  0.0772 -0.4323
 1383TIP3    H225565   4.423   5.264  14.767 -0.0046 -2.5377  0.2835
 1384TIP3   OH225566   4.086   2.482  11.008  0.6680  0.7635  0.1288
 1384TIP3    H125567   4.070   2.571  11.039  0.5034  0.6259  0.4467
 1384TIP3    H225568   4.179   2.480  10.986  0.8756  0.7499  0.9880
 1385TIP3   OH225569   2.841   4.766  14.920  0.3514 -0.7033 -0.0508
 1385TIP3    H125570   2.867   4.776  14.828 -0.0569  0.9133 -0.0229
 1385TIP3    H225571   2.907   4.707  14.957  0.0363 -2.0806 -1.5657
 1386TIP3   OH225572   4.988   5.995   3.787 -0.5850 -0.4932 -0.2081
 1386TIP3    H125573   5.025   6.084   3.789  0.9410 -1.0663 -1.0016
 1386TIP3    H225574   4.971   5.974   3.878 -0.3743  0.3759  0.0456
 1387TIP3   OH225575   2.470   5.580  11.045  0.2521  0.0708 -0.0523
 1387TIP3    H125576   2.545   5.640  11.048 -0.3202  0.7989  0.2089
 1387TIP3    H225577   2.428   5.599  10.960  0.2896 -0.2354 -0.1387
 1388TIP3   OH225578   3.481   0.766  12.468 -0.1148 -0.3538  0.3585
 1388TIP3    H125579   3.447   0.677  12.461  0.0023 -0.4788  1.2288
 1388TIP3    H225580   3.575   0.756  12.475 -0.1536 -0.2148  1.1632
 1389TIP3   OH225581   4.705   3.109   5.803 -0.3231  0.4988  0.3482
 1389TIP3    H125582   4.697   3.158   5.885 -0.6689 -0.7297  1.0656
 1389TIP3    H225583   4.701   3.176   5.735  1.1924  1.6945  1.3499
 1390TIP3   OH225584   3.387   2.432  14.484  0.3830  0.0049  0.3330
 1390TIP3    H125585   3.345   2.351  14.513 -0.5813 -0.3787 -1.9152
 1390TIP3    H225586   3.321   2.500  14.499  0.5949  0.1143  0.7688
 1391TIP3   OH225587   6.363   4.855  13.819 -0.3124 -0.1500  0.4985
 1391TIP3    H125588   6.325   4.827  13.902 -0.1391  1.0674  1.0184
 1391TIP3    H225589   6.454   4.829  13.823 -0.3388 -0.2183  0.6381
 1392TIP3   OH225590   2.185   0.235   3.163  0.0116 -0.2080  0.2568
 1392TIP3    H125591   2.117   0.299   3.185  0.2413  0.2954 -0.4523
 1392TIP3    H225592   2.265   0.287   3.155  0.1693 -0.5589 -0.5062
 1393TIP3   OH225593   0.728   2.889  16.522  0.2369  0.9108 -0.1580
 1393TIP3    H125594   0.727   2.835  16.443 -2.8454  0.1635  0.2361
 1393TIP3    H225595   0.679   2.968  16.497 -2.5921 -0.2009  1.3716
 1394TIP3   OH225596   4.846   5.415  14.542 -0.3388 -0.3818 -0.3281
 1394TIP3    H125597   4.808   5.471  14.473  1.1638  0.1765 -0.7611
 1394TIP3    H225598   4.872   5.335  14.496 -0.1389 -0.3656 -0.2478
 1395TIP3   OH225599   3.121   0.608  11.295 -0.2410 -0.6093  0.0798
 1395TIP3    H125600   3.186   0.554  11.339  0.0002 -1.0058 -0.7405
 1395TIP3    H225601   3.091   0.555  11.221 -0.0034  0.3536 -0.7336
 1396TIP3   OH225602   1.260   2.497   1.223  0.0888  0.2591  0.2953
 1396TIP3    H125603   1.165   2.498   1.235  0.0557 -0.8878  0.2332
 1396TIP3    H225604   1.293   2.556   1.291 -0.6947  1.2195 -0.1177
 1397TIP3   OH225605   0.237   1.638   4.687 -0.5600 -0.0271  0.0179
 1397TIP3    H125606   0.189   1.692   4.749  1.1248 -0.1311  1.4748
 1397TIP3    H225607   0.329   1.645   4.714  0.3446  0.3786 -2.8053
 1398TIP3   OH225608   6.268   2.090  14.782 -0.6139  0.7670 -0.3805
 1398TIP3    H125609   6.306   2.081  14.694 -1.0946 -1.5018 -0.4192
 1398TIP3    H225610   6.331   2.143  14.830  0.1012  1.2952 -1.8276
 1399TIP3   OH225611   0.965   3.420   3.091 -0.4710  0.2356 -0.1278
 1399TIP3    H125612   0.923   3.502   3.119 -1.5594 -0.4786  0.3972
 1399TIP3    H225613   1.053   3.447   3.064 -0.3543  1.3960  1.2669
 1400TIP3   OH225614   5.092   3.897   0.411  0.1488  1.1861 -0.3780
 1400TIP3    H125615   5.039   3.888   0.332  0.4633  0.2215 -0.4844
 1400TIP3    H225616   5.116   3.990   0.413  0.1828  1.2128 -1.4436
 1401TIP3   OH225617   1.673   1.719   4.742  0.6656 -0.1029 -0.1430
 1401TIP3    H125618   1.717   1.790   4.695 -1.2270  1.2132 -0.0879
 1401TIP3    H225619   1.693   1.736   4.834 -0.1543  0.7018 -0.0897
 1402TIP3   OH225620   0.935   4.883   6.425  0.4262 -0.3850 -0.1828
 1402TIP3    H125621   0.991   4.960   6.421  0.0297 -0.1184 -0.6576
 1402TIP3    H225622   0.878   4.890   6.348 -1.8870  0.5877  1.4882
 1403TIP3   OH225623   3.333   2.908  12.763  0.0899 -0.5195 -0.2131
 1403TIP3    H125624   3.424   2.927  12.739  0.6009 -1.7188  0.6455
 1403TIP3    H225625   3.308   2.979  12.822  1.5577 -1.7054  2.0128
 1404TIP3   OH225626   2.396   1.104  11.304  0.5281  0.1478 -0.0480
 1404TIP3    H125627   2.473   1.146  11.266  1.2091 -0.9930  0.0179
 1404TIP3    H225628   2.427   1.066  11.386 -0.2236  0.0616  0.2091
 1405TIP3   OH225629   6.683   3.968  16.395  0.2569 -0.3674 -0.3994
 1405TIP3    H125630   6.646   4.037  16.450  1.1819 -1.0405  1.1438
 1405TIP3    H225631   6.607   3.918  16.364 -0.2921  0.0600  0.2317
 1406TIP3   OH225632   4.294   3.743   1.284  0.2499  0.2659 -0.0339
 1406TIP3    H125633   4.314   3.653   1.311 -1.2284  0.3081  1.2881
 1406TIP3    H225634   4.343   3.798   1.346 -2.0240  0.3500  1.8118
 1407TIP3   OH225635   5.622   1.621   4.930  0.1949  0.0535 -0.2481
 1407TIP3    H125636   5.653   1.656   5.014  2.1407 -0.3182 -0.7497
 1407TIP3    H225637   5.623   1.526   4.942 -2.0652  0.0257  0.1085
 1408TIP3   OH225638   1.282   1.323   0.153 -1.0748 -0.3651 -0.0230
 1408TIP3    H125639   1.195   1.353   0.178 -1.2845 -0.0614 -1.0632
 1408TIP3    H225640   1.272   1.292   0.063 -0.5009 -2.0276  0.4546
 1409TIP3   OH225641   0.346   5.368  15.449 -0.1176  0.1149  0.1455
 1409TIP3    H125642   0.428   5.394  15.491 -0.0924  1.1757 -0.5271
 1409TIP3    H225643   0.331   5.434  15.381 -0.6417 -1.0299 -0.8987
 1410TIP3   OH225644   4.527   5.838  12.184  0.0121  0.0370  0.1248
 1410TIP3    H125645   4.488   5.751  12.189  1.3201 -0.6383 -0.8055
 1410TIP3    H225646   4.590   5.841  12.257 -1.3410  0.9286  1.3062
 1411TIP3   OH225647   4.961   4.243  13.727 -0.1803  0.8405 -0.0813
 1411TIP3    H125648   4.872   4.280  13.726 -0.0422  1.5328  3.0683
 1411TIP3    H225649   4.995   4.265  13.813  2.6934 -0.3826 -0.7908
 1412TIP3   OH225650   6.127   2.029   3.455 -0.1174  0.1038 -0.0036
 1412TIP3    H125651   6.199   2.057   3.511  1.7923 -1.6608 -1.4314
 1412TIP3    H225652   6.167   1.970   3.391 -2.8569 -1.1129 -0.7803
 1413TIP3   OH225653   1.703   4.591   4.658  0.2095  0.2408 -0.5977
 1413TIP3    H125654   1.762   4.520   4.632  1.0280  0.8315 -0.3991
 1413TIP3    H225655   1.752   4.638   4.726  0.1356  1.6431 -1.4896
 1414TIP3   OH225656   4.172   1.204  14.082 -0.4383 -0.5064  0.2881
 1414TIP3    H125657   4.104   1.267  14.061 -0.5796 -0.3047  1.3004
 1414TIP3    H225658   4.133   1.119  14.061 -0.3411 -0.2776 -0.8305
 1415TIP3   OH225659   3.579   1.559  10.577 -0.5551 -0.0252  0.2073
 1415TIP3    H125660   3.609   1.567  10.486 -0.3658 -0.3302  0.2380
 1415TIP3    H225661   3.571   1.649  10.608 -0.6064  0.0808 -0.1084
 1416TIP3   OH225662   0.813   4.614   2.842  0.4799 -0.7664  0.5601
 1416TIP3    H125663   0.881   4.582   2.901 -0.5681 -0.9460  1.7168
 1416TIP3    H225664   0.775   4.689   2.888 -0.4633 -0.9987  0.1907
 1417TIP3   OH225665   2.458   2.868   0.381  0.1051  0.0753  0.1052
 1417TIP3    H125666   2.527   2.802   0.372 -0.2643 -0.2054 -0.8010
 1417TIP3    H225667   2.402   2.855   0.304 -1.1119  0.1211  0.9547
 1418TIP3   OH225668   4.626   5.193  11.205 -0.4735 -0.5086  0.2213
 1418TIP3    H125669   4.564   5.254  11.245 -3.0637 -1.7908 -1.4890
 1418TIP3    H225670   4.628   5.218  11.113  2.0273 -0.2236  0.3012
 1419TIP3   OH225671   1.993   6.377  13.021 -0.3613 -0.1048 -0.3132
 1419TIP3    H125672   2.011   6.435  12.947 -0.5882  0.3287 -0.0334
 1419TIP3    H225673   1.994   6.435  13.098  0.9329 -0.7088  0.1639
 1420TIP3   OH225674   5.530   3.359  15.498  0.1593  0.3507 -0.3864
 1420TIP3    H125675   5.442   3.323  15.483 -0.2910  0.4566  1.7571
 1420TIP3    H225676   5.516   3.437  15.551  1.5315  0.7143 -0.5166
 1421TIP3   OH225677   0.785   0.861  14.830  0.6135 -0.6414  0.7116
 1421TIP3    H125678   0.828   0.943  14.807  1.5032 -0.5871  2.4272
 1421TIP3    H225679   0.769   0.818  14.746  1.8233  0.4362 -0.1036
 1422TIP3   OH225680   6.514   5.474  12.890  0.0160  0.0396  0.0332
 1422TIP3    H125681   6.475   5.466  12.977  1.1757 -1.8774  0.4172
 1422TIP3    H225682   6.608   5.473  12.905  0.2445  0.5370 -1.1962
 1423TIP3   OH225683   5.221   3.440   0.030 -0.0028 -0.0708  0.0618
 1423TIP3    H125684   5.223   3.530   0.063 -0.1091 -0.6008  1.6368
 1423TIP3    H225685   5.277   3.391   0.091  0.9182 -0.8935 -1.3863
 1424TIP3   OH225686   0.857   4.164  14.211 -0.0788 -0.1535  0.4066
 1424TIP3    H125687   0.853   4.081  14.259  1.0905  1.2377  3.1251
 1424TIP3    H225688   0.931   4.211  14.250  0.3993  1.5140 -2.2303
 1425TIP3   OH225689   0.176   2.951  14.252 -0.3243  0.0722 -0.9920
 1425TIP3    H125690   0.271   2.942  14.250 -0.3395 -0.0037 -2.9247
 1425TIP3    H225691   0.143   2.872  14.208 -1.5977 -2.3971  3.6802
 1426TIP3   OH225692   3.634   3.877  15.268  0.4092  0.1590 -0.1143
 1426TIP3    H125693   3.557   3.904  15.217  0.3810  0.5249  0.1177
 1426TIP3    H225694   3.609   3.792  15.305 -0.0524  0.4759  0.3121
 1427TIP3   OH225695   3.321   0.345  11.177  0.4369  0.2711 -0.3512
 1427TIP3    H125696   3.233   0.350  11.138  0.3088  1.1666  0.0307
 1427TIP3    H225697   3.358   0.265  11.141  0.4406  1.2010 -2.5514
 1428TIP3   OH225698   4.909   6.729  16.922 -0.2631 -0.5812 -0.2048
 1428TIP3    H125699   4.986   6.736  16.866 -0.4317 -0.6074 -0.4391
 1428TIP3    H225700   4.839   6.699  16.864  0.0107 -2.5569  0.4149
 1429TIP3   OH225701   4.011   0.080   1.852  0.1127  0.2628  0.5284
 1429TIP3    H125702   3.940   0.133   1.887 -0.6241 -0.5135  0.2336
 1429TIP3    H225703   4.034   0.021   1.924  0.7773  0.8071  0.7776
 1430TIP3   OH225704   5.126   1.494  14.207  0.0185 -0.0441 -0.2072
 1430TIP3    H125705   5.134   1.463  14.297 -0.7508  0.4361  0.0399
 1430TIP3    H225706   5.207   1.466  14.164  1.2667  1.3384  1.1250
 1431TIP3   OH225707   2.011   2.802   1.867  0.0597 -0.2348 -0.0792
 1431TIP3    H125708   1.946   2.810   1.797 -0.8999 -0.9562  0.7083
 1431TIP3    H225709   1.973   2.847   1.942 -0.5484 -2.4688  1.0478
 1432TIP3   OH225710   5.213   0.661   3.984 -0.3391  0.1760  0.0142
 1432TIP3    H125711   5.189   0.741   3.936 -0.0239  1.3942  1.7952
 1432TIP3    H225712   5.289   0.627   3.937  0.6434  1.9423  0.2306
 1433TIP3   OH225713   6.745   3.492  13.579  0.1459 -0.2196  0.4114
 1433TIP3    H125714   6.769   3.442  13.657 -2.2601 -0.6385  0.9703
 1433TIP3    H225715   6.788   3.577  13.591  2.3396 -1.2984  0.6070
 1434TIP3   OH225716   3.484   6.741   4.139  0.0581 -0.2983  0.6932
 1434TIP3    H125717   3.477   6.826   4.181  1.7601 -0.8551  2.2189
 1434TIP3    H225718   3.475   6.678   4.210  1.9030 -1.3001  0.1104
 1435TIP3   OH225719   5.738   2.770   6.256  0.2850  0.0633 -0.4684
 1435TIP3    H125720   5.676   2.705   6.288  1.3793 -0.5810  0.4001
 1435TIP3    H225721   5.684   2.833   6.209 -0.9433 -0.8244 -0.2953
 1436TIP3   OH225722   0.739   5.261  14.938  0.3720 -0.3449 -0.1528
 1436TIP3    H125723   0.687   5.188  14.971 -0.3862  1.0189  1.8703
 1436TIP3    H225724   0.749   5.243  14.845 -2.1037 -1.6474 -0.2499
 1437TIP3   OH225725   4.780   2.016  15.461 -0.2501  0.3643  0.2774
 1437TIP3    H125726   4.731   1.998  15.541 -2.5196 -1.7173 -1.4454
 1437TIP3    H225727   4.729   2.083  15.416  0.4977  0.8238  0.0886
 1438TIP3   OH225728   5.458   0.941   2.758 -0.0284  0.4881  0.3475
 1438TIP3    H125729   5.529   0.997   2.790  1.1006  0.2095 -1.5382
 1438TIP3    H225730   5.450   0.872   2.825  1.3076  0.6758  0.7332
 1439TIP3   OH225731   5.034   1.409  16.091 -0.9918 -0.5660 -0.5314
 1439TIP3    H125732   5.032   1.438  15.999 -0.6128 -1.3323 -0.7824
 1439TIP3    H225733   5.025   1.314  16.087 -1.5432 -0.5640  0.2630
 1440TIP3   OH225734   6.165   4.134   5.434 -0.5530 -0.1262 -0.5396
 1440TIP3    H125735   6.083   4.101   5.469 -0.2476  0.2827  0.6364
 1440TIP3    H225736   6.143   4.217   5.394 -0.7904 -0.2313 -0.6249
 1441TIP3   OH225737   2.717   2.832   4.031 -0.2391 -0.3073  0.4690
 1441TIP3    H125738   2.633   2.831   3.985  0.4002 -1.3388 -0.7780
 1441TIP3    H225739   2.734   2.924   4.050 -1.2651 -0.0113  0.0009
 1442TIP3   OH225740   5.012   1.364  12.906  0.1998  0.4535 -0.2247
 1442TIP3    H125741   4.953   1.308  12.855  0.7145  0.6110 -0.9996
 1442TIP3    H225742   5.030   1.313  12.985 -1.1682  0.5022  0.1527
 1443TIP3   OH225743   0.872   4.334   4.692  0.1715 -0.1460  0.8111
 1443TIP3    H125744   0.925   4.283   4.630  0.3085 -0.7482  1.4043
 1443TIP3    H225745   0.787   4.341   4.650 -0.0020 -1.3117  0.9157
 1444TIP3   OH225746   4.050   2.260   0.051  0.4631 -0.0364  0.1584
 1444TIP3    H125747   3.985   2.211   0.001 -0.0160  0.0435  0.6900
 1444TIP3    H225748   4.054   2.346   0.008  0.2137 -0.0404  0.1258
 1445TIP3   OH225749   0.951   2.283  12.016  0.2769  0.8660  0.6389
 1445TIP3    H125750   1.003   2.363  12.007  0.1332  0.9313  0.3866
 1445TIP3    H225751   0.949   2.246  11.927 -1.5305  1.7395  0.2795
 1446TIP3   OH225752   0.325   0.781   1.450  0.2012 -0.4088 -0.3477
 1446TIP3    H125753   0.245   0.802   1.401 -0.4097 -1.2038  0.2714
 1446TIP3    H225754   0.312   0.691   1.479  2.4549 -1.5109 -2.4108
 1447TIP3   OH225755   5.061   3.598  12.863 -0.3261  0.3893  0.1211
 1447TIP3    H125756   4.978   3.616  12.906  0.9839 -0.0305  3.0611
 1447TIP3    H225757   5.085   3.510  12.892  0.5656 -0.0315 -1.7284
 1448TIP3   OH225758   2.348   3.336   3.446 -0.1666 -0.0180  0.4140
 1448TIP3    H125759   2.362   3.300   3.359  0.2958  1.0898  0.0047
 1448TIP3    H225760   2.329   3.261   3.502  1.5091 -0.9599 -0.2341
 1449TIP3   OH225761   4.839   0.504  11.742  0.1102  0.2947  0.1466
 1449TIP3    H125762   4.746   0.487  11.757  0.1295 -0.5409 -0.6348
 1449TIP3    H225763   4.884   0.456  11.811 -0.0352  0.8851  0.6638
 1450TIP3   OH225764   4.408   2.022  10.545 -0.1790 -0.1371  0.0881
 1450TIP3    H125765   4.476   1.965  10.582 -1.0280 -0.3344  1.4327
 1450TIP3    H225766   4.450   2.108  10.538  0.1808 -0.2224  1.0506
 1451TIP3   OH225767   1.996   4.975   5.295  0.9925  0.2921 -0.2888
 1451TIP3    H125768   1.940   5.043   5.258  1.8152  0.5442 -1.0881
 1451TIP3    H225769   1.997   4.994   5.389 -1.6746 -0.7706  0.0464
 1452TIP3   OH225770   1.476   6.501   1.751 -0.1331  0.1015  0.4014
 1452TIP3    H125771   1.415   6.524   1.680  1.3744 -0.8643 -1.2914
 1452TIP3    H225772   1.429   6.435   1.802  0.2264 -2.4167 -2.2517
 1453TIP3   OH225773   2.339   2.720   4.395 -0.1768 -0.1262 -0.0261
 1453TIP3    H125774   2.406   2.780   4.361  0.6504 -1.3299 -0.6124
 1453TIP3    H225775   2.336   2.739   4.489 -0.7375  1.5735 -0.3588
 1454TIP3   OH225776   1.774   2.152   4.638 -0.3400 -0.0389 -0.2455
 1454TIP3    H125777   1.793   2.059   4.651  0.1037  0.0316 -0.3947
 1454TIP3    H225778   1.839   2.198   4.691  0.0616  0.2047 -0.9487
 1455TIP3   OH225779   3.560   5.742  15.481  0.0416  0.4441 -0.6888
 1455TIP3    H125780   3.603   5.672  15.531  0.4113  0.5952 -0.7945
 1455TIP3    H225781   3.587   5.823  15.525  0.1594  0.5630 -0.9805
 1456TIP3   OH225782   4.270   6.086   2.113 -0.8722  0.1182 -0.0122
 1456TIP3    H125783   4.228   6.171   2.099 -0.8482  0.3798  1.4032
 1456TIP3    H225784   4.198   6.023   2.113 -1.0288  0.2976  0.2427
 1457TIP3   OH225785   3.414   1.115   2.214 -0.3965 -0.4197  0.4354
 1457TIP3    H125786   3.370   1.119   2.129 -0.4859  0.8923  0.5103
 1457TIP3    H225787   3.387   1.031   2.252 -1.0575 -0.6261 -0.4618
 1458TIP3   OH225788   1.238   3.578   5.690 -0.6674 -0.6291  0.3861
 1458TIP3    H125789   1.243   3.526   5.770  0.1918  0.7365  1.2716
 1458TIP3    H225790   1.254   3.668   5.720  0.9244 -0.2335 -1.4644
 1459TIP3   OH225791   5.184   5.886   0.297 -0.0459  0.0310  0.2605
 1459TIP3    H125792   5.135   5.841   0.366 -0.3640  0.6379  0.4405
 1459TIP3    H225793   5.271   5.899   0.334  0.9806 -2.9182 -0.8213
 1460TIP3   OH225794   0.430   3.852   3.601  0.1273 -0.2656  0.2778
 1460TIP3    H125795   0.402   3.761   3.587 -2.3165  0.5085 -0.3467
 1460TIP3    H225796   0.525   3.848   3.601  0.1092 -2.5611 -1.5847
 1461TIP3   OH225797   3.273   1.089   3.744 -0.1982  0.3955  0.2233
 1461TIP3    H125798   3.231   1.083   3.658  1.7042  1.0244 -0.7951
 1461TIP3    H225799   3.304   1.000   3.761  0.7206  0.5637 -0.4649
 1462TIP3   OH225800   2.130   1.570  16.288 -0.0338  0.4887  0.3515
 1462TIP3    H125801   2.102   1.491  16.335 -0.6704  0.1478 -0.5682
 1462TIP3    H225802   2.219   1.550  16.259  0.3329  0.6670  1.3195
 1463TIP3   OH225803   6.417   0.303   1.948 -0.2795 -0.0475 -0.0689
 1463TIP3    H125804   6.361   0.309   2.025  2.0058  0.0358  1.7095
 1463TIP3    H225805   6.357   0.282   1.876 -2.4920 -0.3592  1.7404
 1464TIP3   OH225806   2.471   0.246   1.963  0.5864 -0.0210 -0.1733
 1464TIP3    H125807   2.503   0.210   2.045  0.6665  0.7015  0.1175
 1464TIP3    H225808   2.470   0.172   1.903 -0.2372 -0.7341  0.6917
 1465TIP3   OH225809   5.686   5.423   0.915  0.5077  0.0200  0.2236
 1465TIP3    H125810   5.614   5.417   0.977 -0.1756 -1.5235 -0.6724
 1465TIP3    H225811   5.646   5.457   0.834  0.9658 -0.0059 -0.0182
 1466TIP3   OH225812   3.557   3.697  15.463  0.1922  0.0666 -0.2987
 1466TIP3    H125813   3.646   3.672  15.488  0.2409 -0.9702 -1.4460
 1466TIP3    H225814   3.512   3.615  15.446 -0.9746  0.5828  0.1904
 1467TIP3   OH225815   5.928   0.044  12.228  0.0676  0.0257  0.9505
 1467TIP3    H125816   5.873  -0.015  12.280  0.1338 -0.4554  0.4764
 1467TIP3    H225817   5.876   0.123  12.219 -0.7251 -0.5729  0.1542
 1468TIP3   OH225818   3.966   2.293  14.799  0.0386 -0.1479 -0.4761
 1468TIP3    H125819   3.982   2.383  14.825  1.9847 -0.2382 -1.1595
 1468TIP3    H225820   3.871   2.285  14.794 -0.2095  1.4106  1.0699
 1469TIP3   OH225821   6.446   1.159   2.471  0.1782 -0.2449 -0.1162
 1469TIP3    H125822   6.504   1.120   2.536 -0.2781 -0.3060  0.2594
 1469TIP3    H225823   6.384   1.089   2.449  1.1959 -0.6871 -1.6873
 1470TIP3   OH225824   6.277   0.277   0.124 -0.1831  0.1844 -0.5082
 1470TIP3    H125825   6.280   0.213   0.052 -1.6161  0.0548 -0.4950
 1470TIP3    H225826   6.317   0.232   0.198  0.7009  0.0712 -1.0358
 1471TIP3   OH225827   3.867   6.192   4.575 -0.2323  0.1554  0.4715
 1471TIP3    H125828   3.916   6.145   4.507  1.2539  1.6395  0.4313
 1471TIP3    H225829   3.816   6.125   4.619  0.6443 -1.2343 -0.5414
 1472TIP3   OH225830   4.827   6.567   5.328  0.2530  0.0945  0.0532
 1472TIP3    H125831   4.892   6.509   5.369  1.6392  1.2223 -0.4448
 1472TIP3    H225832   4.792   6.515   5.256 -0.5505 -1.0852  1.2436
 1473TIP3   OH225833   1.803   1.081  15.824 -0.5906 -0.3518  0.2604
 1473TIP3    H125834   1.877   1.021  15.832  0.0522  0.5975  1.7055
 1473TIP3    H225835   1.749   1.063  15.900 -1.0269  0.0603  0.0555
 1474TIP3   OH225836   5.977   4.403  12.125 -0.0058 -0.7791  0.0575
 1474TIP3    H125837   5.919   4.450  12.185  0.6085 -2.4017  2.0090
 1474TIP3    H225838   5.932   4.321  12.107  0.4618 -0.8969 -0.6098
 1475TIP3   OH225839   2.853   2.191  13.259  0.0674  0.6738 -0.5276
 1475TIP3    H125840   2.916   2.264  13.264  2.1701 -1.1131  0.6500
 1475TIP3    H225841   2.851   2.155  13.347 -0.6246 -0.9331 -1.1769
 1476TIP3   OH225842   5.339   3.976  12.063  0.0769 -0.4545 -0.2745
 1476TIP3    H125843   5.266   3.925  12.098 -0.1042 -0.2406 -0.3371
 1476TIP3    H225844   5.298   4.054  12.026  0.5988  1.3992  2.7297
 1477TIP3   OH225845   2.188   4.570  16.153 -0.2834 -0.4170  0.0697
 1477TIP3    H125846   2.202   4.491  16.207 -0.2660 -1.0745 -0.8677
 1477TIP3    H225847   2.099   4.597  16.172 -0.8932 -1.6704 -0.8415
 1478TIP3   OH225848   6.534   2.974   5.317  0.0563 -0.4082  0.1658
 1478TIP3    H125849   6.503   2.971   5.407 -0.6107  0.6033 -0.0117
 1478TIP3    H225850   6.556   3.066   5.302 -1.6339 -0.1738 -1.2503
 1479TIP3   OH225851   2.535   4.566  13.965  0.2049  0.0134  0.4709
 1479TIP3    H125852   2.535   4.608  14.052 -1.9594  2.1203 -0.4022
 1479TIP3    H225853   2.596   4.494  13.973  0.7292  0.6402  3.5083
 1480TIP3   OH225854   3.996   6.339  13.848 -0.5374 -0.1740 -0.2593
 1480TIP3    H125855   4.050   6.414  13.874 -1.7971  0.4383  0.6828
 1480TIP3    H225856   3.910   6.356  13.887 -1.0824 -1.7208 -0.7029
 1481TIP3   OH225857   2.219   6.320   2.697  0.6265 -0.4026  0.8258
 1481TIP3    H125858   2.294   6.261   2.685 -0.7060 -1.8380 -1.1641
 1481TIP3    H225859   2.236   6.393   2.638  0.5911 -0.6150  0.5496
 1482TIP3   OH225860   2.181   1.203  12.380 -0.4514 -0.2576  0.6077
 1482TIP3    H125861   2.198   1.236  12.291  2.5572 -0.2171  1.0819
 1482TIP3    H225862   2.179   1.108  12.370  0.4115 -0.2800  0.5159
 1483TIP3   OH225863   5.816   0.984  16.721 -0.0122  0.2040 -0.3206
 1483TIP3    H125864   5.829   1.037  16.799 -1.5440  1.1995 -0.7048
 1483TIP3    H225865   5.810   0.894  16.753  1.9363  0.2905  0.4043
 1484TIP3   OH225866   6.209   5.067   3.577 -0.2373 -0.8838 -0.1120
 1484TIP3    H125867   6.139   5.133   3.581  0.4648 -0.1075 -0.4418
 1484TIP3    H225868   6.267   5.097   3.508 -0.3159 -2.2846 -0.8276
 1485TIP3   OH225869   4.614   4.624  10.924 -0.2595  0.3370  0.0447
 1485TIP3    H125870   4.683   4.567  10.957 -1.8299 -1.7477 -0.0682
 1485TIP3    H225871   4.658   4.706  10.902  2.3381 -1.2195 -0.9131
 1486TIP3   OH225872   0.316   6.422  13.488 -0.1346 -0.8979 -0.3031
 1486TIP3    H125873   0.387   6.374  13.531  1.5208  2.1729  0.6863
 1486TIP3    H225874   0.258   6.447  13.560 -0.4391 -0.6115 -0.6482
 1487TIP3   OH225875   5.802   1.591  15.699  0.4377  0.4368  0.2463
 1487TIP3    H125876   5.722   1.558  15.741 -0.1894  1.6928  0.0659
 1487TIP3    H225877   5.817   1.529  15.627  0.9214 -1.1117  1.6064
 1488TIP3   OH225878   2.703   3.129   2.441 -0.0019  0.2428 -0.2849
 1488TIP3    H125879   2.703   3.163   2.531  0.4338 -1.7796  0.5279
 1488TIP3    H225880   2.685   3.036   2.450 -2.3094  0.3609 -2.5212
 1489TIP3   OH225881   1.097   3.769  14.228  0.0829 -0.4891 -0.1746
 1489TIP3    H125882   1.144   3.814  14.298 -0.4463 -1.4874  0.8596
 1489TIP3    H225883   1.138   3.683  14.222 -2.5872 -2.0802  1.9791
 1490TIP3   OH225884   4.726   2.297   2.417 -0.2936 -0.2453 -0.4809
 1490TIP3    H125885   4.764   2.230   2.361  2.5232 -0.8166  1.8767
 1490TIP3    H225886   4.789   2.369   2.415  0.7743 -0.9081  2.9780
 1491TIP3   OH225887   3.377   5.017  12.762  0.1175 -0.3076 -0.1159
 1491TIP3    H125888   3.384   5.045  12.670 -0.1477 -0.0817 -0.0687
 1491TIP3    H225889   3.300   5.063  12.795  0.0630 -0.5873  0.1502
 1492TIP3   OH225890   3.601   1.649  10.934 -0.4888 -0.3727  0.3511
 1492TIP3    H125891   3.591   1.716  11.002 -1.9577 -0.6157  0.4048
 1492TIP3    H225892   3.606   1.697  10.852 -0.8038 -0.1697  0.4522
 1493TIP3   OH225893   2.543   5.134   5.512  0.1456 -0.0300  0.0090
 1493TIP3    H125894   2.636   5.113   5.508  0.2489  0.5907 -1.9611
 1493TIP3    H225895   2.499   5.048   5.513  0.7053 -0.3307  1.3735
 1494TIP3   OH225896   4.243   0.237  13.543 -0.4560 -0.4493 -0.3272
 1494TIP3    H125897   4.260   0.237  13.637  1.4264  1.9616 -0.5700
 1494TIP3    H225898   4.156   0.197  13.534 -0.1804 -1.8093  2.2870
 1495TIP3   OH225899   6.152   5.111  11.979  0.2360  0.0331 -0.1384
 1495TIP3    H125900   6.065   5.076  11.998  0.7292 -0.2846  1.7746
 1495TIP3    H225901   6.144   5.204  12.001  0.6150 -0.1946  1.0619
 1496TIP3   OH225902   4.122   0.502  13.869  0.3918  0.1373 -0.0039
 1496TIP3    H125903   4.068   0.533  13.796 -0.6129  1.3189  1.1978
 1496TIP3    H225904   4.098   0.557  13.943  2.3609 -0.1201  0.9174
 1497TIP3   OH225905   1.120   2.371   1.471  0.2349  0.2419 -0.1817
 1497TIP3    H125906   1.053   2.386   1.538  1.2885 -0.6721  1.1442
 1497TIP3    H225907   1.071   2.346   1.393 -1.0569  1.7614  0.0994
 1498TIP3   OH225908   1.086   5.916   0.736 -0.0427 -0.2526  0.2082
 1498TIP3    H125909   1.004   5.911   0.686 -0.6958  0.0129  1.2266
 1498TIP3    H225910   1.075   5.992   0.793  0.7504 -0.4455  0.6341
 1499TIP3   OH225911   5.939   5.588  15.236  0.4655 -0.1592 -0.0563
 1499TIP3    H125912   5.981   5.573  15.152 -1.3494 -0.4283 -0.9590
 1499TIP3    H225913   5.988   5.533  15.297  2.2434  0.5647 -0.7606
 1500TIP3   OH225914   2.854   2.981  16.859  0.1579  0.2069  0.1864
 1500TIP3    H125915   2.911   2.976  16.782  1.1278  0.3498  0.8837
 1500TIP3    H225916   2.860   3.072  16.888 -0.2605  0.1695  0.3972
 1501TIP3   OH225917   1.286   2.818   0.669  0.0835 -0.0356  0.1590
 1501TIP3    H125918   1.220   2.818   0.600 -1.0460  0.4609  1.1950
 1501TIP3    H225919   1.281   2.729   0.706 -1.2246  0.4680  1.3043
 1502TIP3   OH225920   5.829   0.442  11.251  0.9851 -0.0463  0.2730
 1502TIP3    H125921   5.870   0.412  11.332 -0.9694 -2.4406  0.5073
 1502TIP3    H225922   5.744   0.398  11.250  1.1895 -0.6810 -3.3834
 1503TIP3   OH225923   4.803   3.867  15.539 -0.2553  0.0935  0.2029
 1503TIP3    H125924   4.724   3.815  15.524 -0.8530  0.4968  1.7542
 1503TIP3    H225925   4.771   3.957  15.547  0.7985  0.8309 -2.7313
 1504TIP3   OH225926   2.218   2.180  13.679  0.4183 -0.4710  0.3555
 1504TIP3    H125927   2.228   2.274  13.696  0.9623 -0.1789 -1.3870
 1504TIP3    H225928   2.129   2.160  13.707 -0.1511  0.8574 -0.4369
 1505TIP3   OH225929   1.302   5.961  15.637  0.1252  0.4283 -0.9576
 1505TIP3    H125930   1.250   5.886  15.665  1.1095  0.4036  0.9646
 1505TIP3    H225931   1.302   5.956  15.541 -0.4614 -1.5737 -0.9010
 1506TIP3   OH225932   6.479   0.040  13.025 -0.1064 -0.3109  0.5540
 1506TIP3    H125933   6.429   0.105  13.074  0.1431  0.2799  0.0396
 1506TIP3    H225934   6.543   0.091  12.975 -0.8922 -0.8015 -1.0505
 1507TIP3   OH225935   0.292   2.371   3.213  0.1269  0.2034 -0.7026
 1507TIP3    H125936   0.250   2.310   3.152 -0.9831  2.3751 -2.2484
 1507TIP3    H225937   0.379   2.385   3.176 -0.3189  1.0242 -1.4894
 1508TIP3   OH225938   2.015   0.619  12.797  0.1280 -0.6556 -0.0654
 1508TIP3    H125939   2.076   0.638  12.725 -0.7255 -0.7058 -0.8179
 1508TIP3    H225940   1.942   0.573  12.755 -1.3174  1.0457  0.4917
 1509TIP3   OH225941   4.588   2.865   4.316  0.1041  0.3999 -0.1615
 1509TIP3    H125942   4.572   2.931   4.382  0.0738  1.0708 -0.8260
 1509TIP3    H225943   4.678   2.836   4.332 -0.0143  0.3236  0.3677
 1510TIP3   OH225944   0.633   0.229   3.459  0.2895 -0.1041 -0.2463
 1510TIP3    H125945   0.710   0.286   3.456 -0.9293  1.7057  0.8873
 1510TIP3    H225946   0.581   0.255   3.382  0.4493 -0.8150 -0.6054
 1511TIP3   OH225947   4.935   2.540   2.138 -0.1228  0.1468  0.0081
 1511TIP3    H125948   4.859   2.590   2.107 -0.3201 -0.1135  0.0754
 1511TIP3    H225949   4.991   2.533   2.061 -1.6439 -2.4896 -0.9983
 1512TIP3   OH225950   3.582   2.267   3.888  0.3362 -0.0215 -0.3006
 1512TIP3    H125951   3.552   2.210   3.958  1.9543 -0.5597 -0.0014
 1512TIP3    H225952   3.550   2.226   3.808 -1.5547  0.6159  0.0595
 1513TIP3   OH225953   2.659   6.082  10.630 -0.5755  0.1155 -0.5468
 1513TIP3    H125954   2.612   6.021  10.686  0.2842 -1.0131 -1.0042
 1513TIP3    H225955   2.605   6.090  10.551  0.3079 -1.7847 -1.4042
 1514TIP3   OH225956   4.058   1.039  14.423 -0.3699  0.2728  0.4211
 1514TIP3    H125957   4.070   1.104  14.354 -2.5215 -0.4220 -0.7034
 1514TIP3    H225958   4.130   0.978  14.412 -1.4009 -0.5812 -2.1580
 1515TIP3   OH225959   3.607   1.456   1.661  0.0482  0.1831  0.2836
 1515TIP3    H125960   3.600   1.499   1.576 -0.3443 -1.4675 -0.5649
 1515TIP3    H225961   3.681   1.498   1.703  1.1553  0.0881 -1.4706
 1516TIP3   OH225962   6.199   2.794  14.652 -0.6896 -0.2924 -0.1105
 1516TIP3    H125963   6.145   2.844  14.591  0.0137  1.7458  0.8362
 1516TIP3    H225964   6.140   2.772  14.724 -0.4445  1.5051  0.6907
 1517TIP3   OH225965   0.081   2.895   2.995  0.0892 -0.5485  0.0829
 1517TIP3    H125966  -0.000   2.936   3.025  0.0109  0.6112 -1.6174
 1517TIP3    H225967   0.091   2.924   2.905  2.8090 -0.0017  0.4811
 1518TIP3   OH225968   6.150   2.509  12.662 -0.0060 -0.5256  0.1309
 1518TIP3    H125969   6.092   2.543  12.729  1.1479 -1.2255  1.5398
 1518TIP3    H225970   6.123   2.553  12.581 -1.0153  0.8006  1.1644
 1519TIP3   OH225971   0.948   2.745   2.450 -0.1647 -0.2605  0.3538
 1519TIP3    H125972   1.013   2.810   2.425 -0.2227 -0.5179 -0.4865
 1519TIP3    H225973   0.919   2.706   2.367 -2.6495  1.0362  0.5460
 1520TIP3   OH225974   1.369   5.145  14.565  0.6471  0.2109 -0.6552
 1520TIP3    H125975   1.411   5.092  14.633  2.4921  0.1633 -1.7757
 1520TIP3    H225976   1.345   5.083  14.497 -2.6915  0.0094  0.5327
 1521TIP3   OH225977   0.836   1.752  15.456  0.1301  0.4012 -0.4236
 1521TIP3    H125978   0.825   1.847  15.458 -1.0176  0.2909 -0.4538
 1521TIP3    H225979   0.787   1.721  15.532  1.3099 -0.1103  0.1536
 1522TIP3   OH225980   4.387   2.957  14.613  0.0633  0.3558  0.3713
 1522TIP3    H125981   4.453   2.912  14.665 -0.1515 -0.3683  0.0265
 1522TIP3    H225982   4.372   2.900  14.538 -0.6193  0.7280  0.2134
 1523TIP3   OH225983   1.452   5.169   2.472 -0.2252  0.0184  0.3778
 1523TIP3    H125984   1.501   5.090   2.490 -0.3038 -0.0691  0.2148
 1523TIP3    H225985   1.453   5.177   2.377 -0.1456  0.2592  0.3967
 1524TIP3   OH225986   3.211   6.550  15.018 -0.0998  0.1548 -0.0618
 1524TIP3    H125987   3.251   6.637  15.028 -0.9288  0.4976  0.4032
 1524TIP3    H225988   3.119   6.564  15.041 -0.4499 -0.6557 -0.9355
 1525TIP3   OH225989   0.178   2.410  15.184  0.0433  0.2314  0.0455
 1525TIP3    H125990   0.249   2.350  15.161 -1.0025 -0.4940 -1.5105
 1525TIP3    H225991   0.203   2.446  15.269  1.0373 -1.9056  0.7348
 1526TIP3   OH225992   1.107   3.788  13.258 -0.5125  0.5159 -0.1088
 1526TIP3    H125993   1.064   3.873  13.256 -0.9355  0.2993 -0.3365
 1526TIP3    H225994   1.161   3.790  13.337  0.2520  1.3674 -0.6477
 1527TIP3   OH225995   5.116   4.517   1.985  0.1098 -0.5051 -0.0498
 1527TIP3    H125996   5.029   4.489   1.957 -0.0490 -0.1737  0.1100
 1527TIP3    H225997   5.147   4.572   1.913  0.9053 -2.0356 -0.9071
 1528TIP3   OH225998   5.885   1.637   4.455  0.5412 -0.2300 -0.0041
 1528TIP3    H125999   5.887   1.733   4.450  1.2414 -0.2369  0.0435
 1528TIP3    H226000   5.857   1.609   4.368 -0.8372  0.0449  0.3277
 1529TIP3   OH226001   2.838   4.619   5.331 -0.1301  0.0599  0.0041
 1529TIP3    H126002   2.752   4.657   5.348 -1.0672 -0.9734 -1.9771
 1529TIP3    H226003   2.845   4.546   5.392 -0.3054  0.6145  0.7013
 1530TIP3   OH226004   0.570   1.306  12.562 -0.2960 -0.1218  0.1147
 1530TIP3    H126005   0.617   1.226  12.534  1.3568  0.8446 -0.0137
 1530TIP3    H226006   0.565   1.299  12.657  2.2954  0.8272  0.3966
 1531TIP3   OH226007   3.091   2.499   4.346  0.2987 -0.3949  0.0146
 1531TIP3    H126008   3.055   2.582   4.316 -0.0309 -0.9426 -1.2132
 1531TIP3    H226009   3.148   2.471   4.274 -0.9617 -2.0561 -0.3914
 1532TIP3   OH226010   0.020   0.565  13.164 -0.3271  0.3165  0.0688
 1532TIP3    H126011  -0.017   0.651  13.185 -1.4139 -0.2357  0.5004
 1532TIP3    H226012  -0.056   0.506  13.161  0.3195 -0.4980 -0.9556
 1533TIP3   OH226013   1.822   5.692  13.143 -0.4377  0.2953  0.0113
 1533TIP3    H126014   1.780   5.770  13.179 -0.0313  0.0469  1.0448
 1533TIP3    H226015   1.807   5.699  13.049 -1.9707  0.6979  0.2501
 1534TIP3   OH226016   3.068   2.180  15.658 -0.2566 -0.3946  0.2495
 1534TIP3    H126017   2.975   2.189  15.636  0.1360 -1.0345 -1.9233
 1534TIP3    H226018   3.071   2.190  15.753 -2.1722  2.5263  0.1200
 1535TIP3   OH226019   2.406   4.147  14.934 -0.7429 -0.5093 -0.0772
 1535TIP3    H126020   2.361   4.204  14.997 -0.2464  2.1546 -1.9486
 1535TIP3    H226021   2.494   4.138  14.968 -1.2287 -1.4528  0.9896
 1536TIP3   OH226022   0.723   6.807  13.067 -0.7805  0.2859  0.2185
 1536TIP3    H126023   0.660   6.740  13.092 -0.9801  1.0227  1.8756
 1536TIP3    H226024   0.806   6.778  13.105 -0.9630  1.1470  1.3469
 1537TIP3   OH226025   2.928   0.612   1.239 -0.2140  0.4973  0.1118
 1537TIP3    H126026   2.880   0.637   1.160 -0.7435 -0.4306  0.1194
 1537TIP3    H226027   2.862   0.571   1.295  0.6852 -1.4548 -0.1658
 1538TIP3   OH226028   5.368   5.063  12.795  0.4086  0.4377  0.2315
 1538TIP3    H126029   5.374   5.146  12.842 -1.7071  1.7488 -1.6130
 1538TIP3    H226030   5.326   5.003  12.857 -1.0224  1.7138  0.5613
 1539TIP3   OH226031   0.740   6.292   4.327 -0.3833  0.1499  0.2903
 1539TIP3    H126032   0.719   6.375   4.370 -2.1394 -0.0128 -0.1702
 1539TIP3    H226033   0.705   6.302   4.238  1.5582 -0.2037 -0.5633
 1540TIP3   OH226034   2.779   2.145   2.879  0.2543 -0.1419 -0.2795
 1540TIP3    H126035   2.827   2.092   2.815 -2.2717  0.4939 -2.9100
 1540TIP3    H226036   2.739   2.081   2.938  1.5300 -0.8271 -0.1313
 1541TIP3   OH226037   4.088   1.327  10.916  0.4654 -0.3152  0.2851
 1541TIP3    H126038   4.035   1.331  10.837  1.6153  0.7059 -0.4775
 1541TIP3    H226039   4.079   1.237  10.947 -1.7843 -0.1411  0.2755
 1542TIP3   OH226040   1.393   2.199  11.905 -0.6436 -0.0604 -0.5477
 1542TIP3    H126041   1.332   2.255  11.857  1.1118  0.7972 -1.8799
 1542TIP3    H226042   1.478   2.241  11.893  0.3192 -1.5463  0.7492
 1543TIP3   OH226043   3.801   4.126   5.005  0.2011  0.0212 -0.4895
 1543TIP3    H126044   3.773   4.193   4.943  2.0502  0.9966 -0.3362
 1543TIP3    H226045   3.724   4.109   5.059 -1.5538 -0.9863 -3.0701
 1544TIP3   OH226046   4.889   5.546   0.045  0.4688 -0.0156  0.3689
 1544TIP3    H126047   4.913   5.498  -0.034 -0.5760 -1.3650  0.8430
 1544TIP3    H226048   4.912   5.637   0.025  0.6702 -0.3998 -1.2910
 1545TIP3   OH226049   0.633   3.367  15.257  0.3808 -0.0458 -0.2405
 1545TIP3    H126050   0.549   3.410  15.243 -0.2958 -1.4628 -0.7810
 1545TIP3    H226051   0.652   3.381  15.350  0.2307  1.4474 -0.4254
 1546TIP3   OH226052   1.188   2.208   2.306  0.1446  0.3203  0.1539
 1546TIP3    H126053   1.152   2.124   2.275  0.4718 -0.1598  1.0259
 1546TIP3    H226054   1.111   2.263   2.320 -0.0797  0.1496 -0.3839
 1547TIP3   OH226055   6.439   1.786  14.745 -0.0050 -0.0729 -0.1422
 1547TIP3    H126056   6.490   1.720  14.698  1.0818  1.4984 -1.2388
 1547TIP3    H226057   6.387   1.829  14.677 -1.5743 -0.5193  0.7274
 1548TIP3   OH226058   1.292   4.284   4.738  0.1518  0.0745  0.3702
 1548TIP3    H126059   1.385   4.278   4.719 -0.2766  0.2079 -1.9922
 1548TIP3    H226060   1.287   4.349   4.808  1.7030  1.7605 -0.9816
 1549TIP3   OH226061   1.222   2.568  13.523 -0.1665  0.2879 -0.0432
 1549TIP3    H126062   1.176   2.497  13.479 -0.7551  0.8899 -0.4115
 1549TIP3    H226063   1.256   2.528  13.603  0.0443 -0.5581 -0.5402
 1550TIP3   OH226064   1.947   6.138   2.356 -0.1221 -0.1813  0.2892
 1550TIP3    H126065   1.923   6.208   2.416 -0.6208 -0.7971  0.8219
 1550TIP3    H226066   1.999   6.181   2.289 -1.0659  0.8420  0.1831
 1551TIP3   OH226067   3.451   0.178   4.237 -0.2997  0.7331  0.1531
 1551TIP3    H126068   3.382   0.244   4.230 -1.1502 -0.1732 -0.2165
 1551TIP3    H226069   3.527   0.227   4.268 -1.0445  1.7937  0.3817
 1552TIP3   OH226070   0.659   4.655  15.333 -0.2512  0.3529 -0.7535
 1552TIP3    H126071   0.644   4.605  15.253  0.8069  1.5057 -1.6904
 1552TIP3    H226072   0.604   4.732  15.324 -0.0852  0.5186 -0.3853
 1553TIP3   OH226073   4.712   4.842  12.654 -0.1356  0.0761 -0.6592
 1553TIP3    H126074   4.801   4.819  12.626  0.4134 -0.0492  1.0366
 1553TIP3    H226075   4.675   4.761  12.688 -0.7738  0.2136 -1.0058
 1554TIP3   OH226076   2.232   5.572   4.892  0.3449  0.5903  0.6250
 1554TIP3    H126077   2.279   5.490   4.908 -0.9107 -0.1499  0.6715
 1554TIP3    H226078   2.301   5.637   4.880  1.4060 -0.6631 -0.4564
 1555TIP3   OH226079   4.477   6.183   5.864  0.1217  0.1842  0.2583
 1555TIP3    H126080   4.529   6.263   5.853  0.2613 -0.2010 -2.3846
 1555TIP3    H226081   4.539   6.112   5.851 -0.2880 -0.3704  1.2090
 1556TIP3   OH226082   1.450   5.099  11.293 -0.4802  0.5262  0.0796
 1556TIP3    H126083   1.435   5.187  11.326 -0.2312  0.5851  0.0338
 1556TIP3    H226084   1.487   5.112  11.205  0.7650  0.3898  0.5725
 1557TIP3   OH226085   4.749   3.535  10.470 -0.0340  0.3525  1.0500
 1557TIP3    H126086   4.706   3.549  10.385  1.6321  0.7784  0.2323
 1557TIP3    H226087   4.762   3.441  10.476 -0.0010  0.3375  0.7450
 1558TIP3   OH226088   1.891   6.246  16.267 -0.0407  0.0141 -0.2997
 1558TIP3    H126089   1.961   6.182  16.270 -0.4380 -0.3913  0.5566
 1558TIP3    H226090   1.936   6.331  16.260  0.5427 -0.2064  0.6767
 1559TIP3   OH226091   5.683   6.398  16.190  0.0993 -0.4785 -0.5698
 1559TIP3    H126092   5.776   6.420  16.176  0.1449 -0.5265 -0.3353
 1559TIP3    H226093   5.674   6.391  16.285 -0.1478 -0.4641 -0.5930
 1560TIP3   OH226094   1.423   5.971  14.833  0.8611  0.1577 -0.4655
 1560TIP3    H126095   1.381   5.893  14.795  2.2414 -1.1870  0.6282
 1560TIP3    H226096   1.424   6.035  14.762 -2.6684  0.1850 -0.6620
 1561TIP3   OH226097   0.786   4.450  15.857 -0.3273  0.1759 -0.1746
 1561TIP3    H126098   0.737   4.390  15.800 -2.3819  1.4767  0.1348
 1561TIP3    H226099   0.813   4.522  15.799  0.6798 -0.1935 -0.1942
 1562TIP3   OH226100   0.972   1.092   5.054 -0.2399 -0.6708 -0.2230
 1562TIP3    H126101   1.058   1.052   5.068  0.8753  1.2235 -1.1089
 1562TIP3    H226102   0.972   1.168   5.113 -1.6079 -1.0293  0.2651
 1563TIP3   OH226103   2.503   3.853  10.977  0.3268  0.3635  0.2313
 1563TIP3    H126104   2.465   3.941  10.976 -0.8411 -0.1189 -1.1365
 1563TIP3    H226105   2.596   3.868  10.994  0.4525  2.0215 -1.4610
 1564TIP3   OH226106   0.656   4.401  11.785  0.5431 -0.3636 -0.5007
 1564TIP3    H126107   0.619   4.460  11.719 -0.6958  0.3766  0.8008
 1564TIP3    H226108   0.708   4.457  11.842 -1.3410 -0.2872  1.2599
 1565TIP3   OH226109   5.631   4.487   5.084 -0.2409 -0.0051  0.1758
 1565TIP3    H126110   5.713   4.496   5.133  0.8582  1.5924 -1.7739
 1565TIP3    H226111   5.567   4.536   5.135  0.7869  1.3385  0.2348
 1566TIP3   OH226112   3.119   3.720  14.975 -0.2993  0.6565 -0.1964
 1566TIP3    H126113   3.196   3.765  14.939 -2.2354  2.0860 -2.9273
 1566TIP3    H226114   3.128   3.630  14.945 -0.0063  0.9768 -1.1097
 1567TIP3   OH226115   6.501   5.425  16.436  0.0349 -0.0571 -0.0696
 1567TIP3    H126116   6.546   5.485  16.496 -0.3167 -0.1599  0.2967
 1567TIP3    H226117   6.409   5.427  16.464  0.0369 -0.8580  0.0240
 1568TIP3   OH226118   1.968   3.464   0.587 -0.0276 -0.0561  0.2541
 1568TIP3    H126119   1.905   3.534   0.604  1.4943  1.2584  0.6347
 1568TIP3    H226120   1.918   3.399   0.538 -1.6589  0.9775  0.4819
 1569TIP3   OH226121   5.189   5.090  16.777 -0.0030  0.0087  0.2532
 1569TIP3    H126122   5.232   5.017  16.823 -0.7874  0.0184  1.0402
 1569TIP3    H226123   5.189   5.162  16.841 -0.4110  0.2736 -0.0359
 1570TIP3   OH226124   4.773   5.661   2.003 -0.0336  0.1337  0.3293
 1570TIP3    H126125   4.819   5.583   2.034 -1.0544 -0.6957 -0.1422
 1570TIP3    H226126   4.828   5.734   2.029 -0.4405 -0.5146  3.3912
 1571TIP3   OH226127   5.143   4.018  13.150 -0.6641 -0.5201 -0.5561
 1571TIP3    H126128   5.144   3.979  13.063  0.3738  0.2863 -0.9241
 1571TIP3    H226129   5.092   4.099  13.140  1.1042  0.6052 -0.9185
 1572TIP3   OH226130   3.622   0.328   4.387 -0.0128 -0.2500 -0.1672
 1572TIP3    H126131   3.698   0.366   4.432 -0.3963 -1.2518  1.3646
 1572TIP3    H226132   3.560   0.307   4.456 -0.4664 -2.2122 -1.0937
 1573TIP3   OH226133   0.217   3.447   1.613 -0.4206 -0.5494  0.0258
 1573TIP3    H126134   0.184   3.412   1.696 -0.8767 -2.4987 -0.9181
 1573TIP3    H226135   0.173   3.395   1.546 -0.0836  0.9957 -1.4726
 1574TIP3   OH226136   0.874   0.930  15.309 -0.4892 -0.3050  0.3873
 1574TIP3    H126137   0.792   0.976  15.327 -0.6578  0.1912 -1.4238
 1574TIP3    H226138   0.856   0.838  15.329 -1.0859 -0.0271  1.1670
 1575TIP3   OH226139   6.592   4.482   5.097 -0.1120 -0.2044 -0.1413
 1575TIP3    H126140   6.651   4.554   5.118  1.4104 -1.0048 -1.4492
 1575TIP3    H226141   6.602   4.421   5.169 -1.0704  0.6455  0.7479
 1576TIP3   OH226142   2.189   5.408  13.535  0.3004 -0.1001  0.1677
 1576TIP3    H126143   2.098   5.418  13.562  0.6875 -0.1881  1.6060
 1576TIP3    H226144   2.185   5.366  13.450 -0.9832 -1.0185  0.6589
 1577TIP3   OH226145   0.602   3.160  11.744 -0.1831 -0.1322 -0.1708
 1577TIP3    H126146   0.582   3.073  11.709  0.5587  0.2399 -1.5993
 1577TIP3    H226147   0.528   3.181  11.801 -1.4765 -0.7747 -1.5626
 1578TIP3   OH226148   4.684   5.232  10.929  0.5785 -0.3803  0.4426
 1578TIP3    H126149   4.683   5.177  10.850 -0.6380 -0.9270  0.8183
 1578TIP3    H226150   4.653   5.317  10.899 -1.3806 -0.9880  0.5587
 1579TIP3   OH226151   1.217   1.465  11.989  0.3380  0.1601  0.2793
 1579TIP3    H126152   1.131   1.452  12.029  0.8758 -1.7025  0.9371
 1579TIP3    H226153   1.274   1.487  12.063  0.9137 -1.1423  0.2369
 1580TIP3   OH226154   3.674   5.987  13.320  0.8365 -0.4616 -0.4925
 1580TIP3    H126155   3.660   6.052  13.388 -1.8085 -0.0603 -1.3276
 1580TIP3    H226156   3.702   5.908  13.367  0.4778  0.2120  0.8894
 1581TIP3   OH226157   4.365   3.495   1.712  0.2529 -0.3496 -0.0265
 1581TIP3    H126158   4.384   3.588   1.698 -0.8414  0.0266  0.8192
 1581TIP3    H226159   4.270   3.488   1.705  0.1628 -1.0950  1.5118
 1582TIP3   OH226160   3.617   5.729  16.124  0.3441  0.4760  0.0564
 1582TIP3    H126161   3.563   5.808  16.128 -1.4443 -0.7529  1.1923
 1582TIP3    H226162   3.630   5.704  16.216 -0.3343 -1.3465 -0.3060
 1583TIP3   OH226163   5.146   0.075  12.635 -0.2108 -0.2341  0.5694
 1583TIP3    H126164   5.149   0.142  12.567  1.6789  0.2080  1.0509
 1583TIP3    H226165   5.128   0.123  12.715 -1.6168 -0.6619  0.5396
 1584TIP3   OH226166   4.981   0.616   4.396 -0.5016 -0.3587  0.8002
 1584TIP3    H126167   4.903   0.652   4.440 -0.3367  0.3889  0.4845
 1584TIP3    H226168   4.962   0.624   4.303 -0.0549 -0.2000  0.7222
 1585TIP3   OH226169   2.032   3.028   3.305  0.3807 -0.2807 -0.0980
 1585TIP3    H126170   1.967   3.035   3.235 -1.1010 -0.6307  1.1789
 1585TIP3    H226171   2.041   3.117   3.340 -1.0922 -0.5647  1.1214
 1586TIP3   OH226172   1.196   1.656  12.506  0.0110 -0.3302  0.3271
 1586TIP3    H126173   1.117   1.703  12.533  0.5647  0.8243  0.0193
 1586TIP3    H226174   1.265   1.722  12.509  0.7822 -1.0825 -0.3273
 1587TIP3   OH226175   3.152   5.437   5.461 -0.2803  0.2447 -0.2866
 1587TIP3    H126176   3.152   5.348   5.494 -0.5358 -0.0762 -1.1191
 1587TIP3    H226177   3.066   5.471   5.484 -0.1201  0.3385  0.1813
 1588TIP3   OH226178   4.309   2.776  16.399  0.3950  0.1754 -1.0667
 1588TIP3    H126179   4.242   2.718  16.436  0.0771  0.1941 -1.6048
 1588TIP3    H226180   4.392   2.731  16.417  0.3224  0.5756  0.3858
 1589TIP3   OH226181   0.734   3.727   2.881  0.1787 -0.5542 -0.7390
 1589TIP3    H126182   0.817   3.757   2.843 -0.2506 -0.2549 -1.4663
 1589TIP3    H226183   0.712   3.794   2.946  0.7554 -0.8995 -0.1702
 1590TIP3   OH226184   2.272   4.661  12.096 -0.3063  0.2581 -0.0200
 1590TIP3    H126185   2.336   4.619  12.154  0.1315 -2.4227 -2.2420
 1590TIP3    H226186   2.317   4.739  12.063  1.4066 -0.9114 -0.5761
 1591TIP3   OH226187   0.449   4.995   3.550 -0.3722 -0.0115 -0.1597
 1591TIP3    H126188   0.438   5.013   3.457 -0.5524  2.1177  0.2187
 1591TIP3    H226189   0.372   5.033   3.591 -1.1682 -2.4595  0.7467
 1592TIP3   OH226190   3.608   0.453  14.346  0.8697  0.9001 -0.0788
 1592TIP3    H126191   3.626   0.366  14.380  2.1105  1.2823  0.2984
 1592TIP3    H226192   3.519   0.447  14.310  1.1043 -0.6341 -0.4736
 1593TIP3   OH226193   1.200   2.309  11.775 -0.0604 -0.0170  0.1110
 1593TIP3    H126194   1.119   2.346  11.811 -0.3350 -1.2059  0.7671
 1593TIP3    H226195   1.177   2.285  11.685  0.6693  3.1006 -1.0351
 1594TIP3   OH226196   4.646   2.844  14.695 -0.4547 -0.1368  0.2953
 1594TIP3    H126197   4.694   2.765  14.671 -0.3713 -0.3121  1.0146
 1594TIP3    H226198   4.594   2.818  14.771  0.6854  0.8840  1.4589
 1595TIP3   OH226199   0.405   1.390   3.271  0.0728 -0.5283 -0.3624
 1595TIP3    H126200   0.442   1.367   3.356 -0.0877 -0.3734 -0.2509
 1595TIP3    H226201   0.424   1.483   3.260  0.1287 -0.5562 -0.5146
 1596TIP3   OH226202   0.268   2.494   2.564  0.6007 -0.4526  0.1912
 1596TIP3    H126203   0.260   2.398   2.564 -0.9744 -0.3511  0.2754
 1596TIP3    H226204   0.290   2.517   2.474  0.7214 -0.8767  0.1109
 1597TIP3   OH226205   1.104   4.370   4.263 -0.1548 -0.1620 -0.1979
 1597TIP3    H126206   1.106   4.311   4.338 -2.5327  1.2846  1.1274
 1597TIP3    H226207   1.048   4.325   4.199 -2.3439  0.7213  0.9899
 1598TIP3   OH226208   2.764   1.878   4.387  0.3742  0.4796  0.0712
 1598TIP3    H126209   2.670   1.865   4.400  0.3508  2.2349  2.3094
 1598TIP3    H226210   2.805   1.803   4.429 -0.0088  1.0336  1.4955
 1599TIP3   OH226211   6.144   6.673   1.756 -0.5318  0.0482 -0.1464
 1599TIP3    H126212   6.230   6.713   1.740  0.4158 -2.2383 -1.1803
 1599TIP3    H226213   6.144   6.654   1.850 -0.2490  0.7471  0.0062
 1600TIP3   OH226214   4.525   5.575   1.151 -0.0350  0.0884  0.0982
 1600TIP3    H126215   4.559   5.601   1.065 -0.7492  0.0118 -0.2149
 1600TIP3    H226216   4.460   5.509   1.132  1.9658 -2.2605  0.8931
 1601TIP3   OH226217   1.049   2.185   4.912 -0.2204  0.0786  0.4477
 1601TIP3    H126218   1.083   2.107   4.956 -0.2667  0.0244  0.3888
 1601TIP3    H226219   0.962   2.198   4.950 -0.5525 -0.3820 -0.1166
 1602TIP3   OH226220   4.691   3.577   2.736 -0.2564  0.1880  0.1991
 1602TIP3    H126221   4.596   3.570   2.746 -0.3011 -0.5700 -0.5902
 1602TIP3    H226222   4.720   3.628   2.812 -1.4945  2.0607 -0.5162
 1603TIP3   OH226223   4.931   1.519  10.806  0.3380 -1.0108  0.2806
 1603TIP3    H126224   4.957   1.518  10.714 -0.1440  0.3622  0.1059
 1603TIP3    H226225   5.014   1.517  10.854  0.7168  0.5318 -0.2293
 1604TIP3   OH226226   3.566   3.024  16.666 -0.0746  0.2772 -0.2811
 1604TIP3    H126227   3.610   3.109  16.663  1.4311 -0.4764  0.0135
 1604TIP3    H226228   3.549   3.003  16.574 -0.7654  1.0324 -0.3412
 1605TIP3   OH226229   6.062   6.719   5.284 -0.3514 -0.2405 -0.2161
 1605TIP3    H126230   5.966   6.723   5.293 -0.1480  2.0535  2.0520
 1605TIP3    H226231   6.086   6.638   5.330 -1.0372  0.8928  2.3360
 1606TIP3   OH226232   1.550   0.075  11.954 -0.6781 -0.4261  0.6174
 1606TIP3    H126233   1.471   0.085  12.008  0.2174  1.8134  1.6674
 1606TIP3    H226234   1.617   0.123  12.003  0.9118 -0.8366 -1.0828
 1607TIP3   OH226235   2.209   1.786  11.268  0.7038 -0.0532 -0.4591
 1607TIP3    H126236   2.233   1.761  11.179  1.4198 -2.5795  0.3581
 1607TIP3    H226237   2.213   1.704  11.318 -1.7882  0.8607  1.4692
 1608TIP3   OH226238   0.859   1.476  14.287  0.3334  0.2682 -0.5251
 1608TIP3    H126239   0.920   1.515  14.224 -0.2770  0.9475 -0.7014
 1608TIP3    H226240   0.794   1.544  14.303 -0.1985 -0.3364 -0.0865
 1609TIP3   OH226241   1.706   5.698   1.761 -0.2684  0.3273 -1.0786
 1609TIP3    H126242   1.693   5.792   1.771 -0.4030  0.1396  0.7646
 1609TIP3    H226243   1.801   5.686   1.764 -0.2746  0.3568 -0.7037
 1610TIP3   OH226244   3.347   5.711   0.126  0.2428 -0.6177 -0.1849
 1610TIP3    H126245   3.279   5.749   0.182  0.8665  1.1287 -0.5800
 1610TIP3    H226246   3.409   5.672   0.188  1.7118  2.5892  0.5368
 1611TIP3   OH226247   2.160   2.922  13.369 -0.0533  0.1835  0.1154
 1611TIP3    H126248   2.173   2.902  13.276 -0.5570  1.3638 -0.2332
 1611TIP3    H226249   2.189   2.843  13.415 -0.0333 -0.5181 -1.0547
 1612TIP3   OH226250   1.454   1.526   4.867  0.4128  0.5443  0.4889
 1612TIP3    H126251   1.455   1.485   4.780  1.3575 -0.4915  0.9647
 1612TIP3    H226252   1.475   1.618   4.851  1.1082  0.2528 -0.3346
 1613TIP3   OH226253   1.030   6.071   2.302 -0.0487 -0.7616  0.1814
 1613TIP3    H126254   0.947   6.110   2.328  0.2763  2.5494 -2.8827
 1613TIP3    H226255   1.096   6.138   2.325  1.1121 -1.2074 -1.6246
 1614TIP3   OH226256   1.984   0.790   3.266  0.2509  0.1509 -0.1180
 1614TIP3    H126257   2.054   0.784   3.331  0.1287  1.9945  0.2375
 1614TIP3    H226258   1.916   0.841   3.309 -0.4216  0.2028 -1.2068
 1615TIP3   OH226259   0.620   5.659  13.464  0.4387  0.0457 -0.4923
 1615TIP3    H126260   0.693   5.645  13.404 -0.2198 -1.5019 -1.0052
 1615TIP3    H226261   0.637   5.601  13.538 -0.7095 -1.0910 -1.0695
 1616TIP3   OH226262   1.741   5.467  15.560 -0.5387  0.4412  0.8683
 1616TIP3    H126263   1.682   5.457  15.634  0.6503 -3.8101  1.5200
 1616TIP3    H226264   1.829   5.463  15.599  0.1926 -4.0814 -0.6008
 1617TIP3   OH226265   6.811   1.283   1.383  0.1279  0.5350  0.7210
 1617TIP3    H126266   6.834   1.195   1.352  1.3896  0.6155  1.3738
 1617TIP3    H226267   6.895   1.325   1.399 -0.4755  1.2285  2.1856
 1618TIP3   OH226268   5.790   0.139   2.597 -0.1694  0.0713  0.7175
 1618TIP3    H126269   5.729   0.156   2.669 -1.7340 -0.0418 -0.5299
 1618TIP3    H226270   5.786   0.218   2.543 -0.8398 -0.7670 -0.4943
 1619TIP3   OH226271   4.830   4.898   1.272  0.0867 -0.1696 -0.3847
 1619TIP3    H126272   4.734   4.901   1.272  0.0573 -0.9297 -0.6956
 1619TIP3    H226273   4.851   4.805   1.263  0.8553 -0.1016  0.5429
 1620TIP3   OH226274   5.709   4.698  15.138 -0.2552  0.1301  0.3935
 1620TIP3    H126275   5.690   4.757  15.211  0.6431  2.8429 -1.4219
 1620TIP3    H226276   5.626   4.652  15.122 -1.0766  1.0807  1.7108
 1621TIP3   OH226277   0.654   4.908   5.522  0.3322 -0.0701  0.0626
 1621TIP3    H126278   0.727   4.846   5.530  0.3759 -0.2513 -1.4224
 1621TIP3    H226279   0.590   4.877   5.586  0.4691 -1.5179 -0.4526
 1622TIP3   OH226280   4.348   6.722  13.788  0.2045  0.4466  0.2397
 1622TIP3    H126281   4.264   6.755  13.818 -0.5685  1.3556 -2.6267
 1622TIP3    H226282   4.331   6.631  13.762  0.2143  0.5133  0.0022
 1623TIP3   OH226283   6.299   1.497  16.930 -0.0786 -0.1052  0.2687
 1623TIP3    H126284   6.365   1.429  16.923  0.5922  0.5636 -0.0589
 1623TIP3    H226285   6.319   1.557  16.858 -0.7350  0.3713  0.4741
 1624TIP3   OH226286   5.959   4.777  16.652 -0.1138  0.7105 -0.6042
 1624TIP3    H126287   5.941   4.758  16.560 -1.3910 -0.4143 -0.1455
 1624TIP3    H226288   5.880   4.750  16.699  0.7617  0.6367  0.9094
 1625TIP3   OH226289   3.079   2.534  16.883 -0.7105 -0.2110 -0.2363
 1625TIP3    H126290   3.148   2.597  16.901 -1.0200  0.6619 -1.8445
 1625TIP3    H226291   3.036   2.519  16.967  0.3352  0.5730  0.4507
 1626TIP3   OH226292   3.531   2.230  15.766 -0.4482  0.6526 -0.0597
 1626TIP3    H126293   3.568   2.151  15.805 -1.6601 -0.1595 -0.5150
 1626TIP3    H226294   3.535   2.215  15.672  0.0345  1.4794 -0.1795
 1627TIP3   OH226295   5.276   0.816  14.763 -0.2630 -0.3522  0.1523
 1627TIP3    H126296   5.325   0.837  14.843 -0.6859  1.9169 -0.1233
 1627TIP3    H226297   5.201   0.875  14.764 -0.5515 -0.6274 -1.6824
 1628TIP3   OH226298   3.169   2.363  12.601  0.3154  0.1671  0.1399
 1628TIP3    H126299   3.086   2.339  12.559  1.0729  0.1507 -1.3907
 1628TIP3    H226300   3.162   2.326  12.689 -1.6461  0.9086  0.3440
 1629TIP3   OH226301   2.906   4.690  12.208 -0.0330  0.0497 -0.3603
 1629TIP3    H126302   2.817   4.664  12.186  0.1807 -0.4176 -0.6858
 1629TIP3    H226303   2.956   4.608  12.207 -0.0999 -0.1260  2.3878
 1630TIP3   OH226304   4.293   3.623   3.763  0.2865  0.1383 -0.6154
 1630TIP3    H126305   4.379   3.609   3.724  0.3183 -0.6122 -0.2989
 1630TIP3    H226306   4.308   3.619   3.857  0.2037  1.9038 -0.5089
 1631TIP3   OH226307   3.957   5.056   2.972  0.5758 -0.1607  0.2477
 1631TIP3    H126308   3.958   5.137   2.921  1.2928 -1.6860 -2.3350
 1631TIP3    H226309   4.018   4.998   2.927  0.2950 -2.0767  2.1646
 1632TIP3   OH226310   5.308   5.075  12.513 -0.5262  0.5206  0.1067
 1632TIP3    H126311   5.332   5.086  12.605 -0.1946  0.0007  0.0904
 1632TIP3    H226312   5.213   5.085  12.512 -0.8579 -1.7738  0.9117
 1633TIP3   OH226313   3.976   3.857   1.473  0.1149 -0.0490 -0.2369
 1633TIP3    H126314   4.053   3.800   1.480  0.6032  0.5075 -0.9100
 1633TIP3    H226315   3.965   3.871   1.379 -1.4602 -0.9662 -0.2048
 1634TIP3   OH226316   0.838   4.965  14.947  0.1698 -0.5318  0.1012
 1634TIP3    H126317   0.821   4.877  14.914 -1.3381  0.0437 -0.7521
 1634TIP3    H226318   0.778   4.975  15.020  0.2744 -0.1811  0.1416
 1635TIP3   OH226319   0.536   6.140  15.036 -0.3600 -0.4068  0.5021
 1635TIP3    H126320   0.606   6.173  15.092 -0.4355  1.1138 -0.2610
 1635TIP3    H226321   0.504   6.062  15.082  1.4705 -0.8414  1.1232
 1636TIP3   OH226322   3.822   1.055   5.118  0.0340  0.1742 -0.7694
 1636TIP3    H126323   3.805   1.148   5.104  0.6880  0.6330  1.1700
 1636TIP3    H226324   3.775   1.034   5.199  1.0490 -0.8153 -0.4093
 1637TIP3   OH226325   5.803   0.102   6.276  0.4015  0.2711  0.0594
 1637TIP3    H126326   5.739   0.033   6.263  1.3954 -0.5405 -0.6851
 1637TIP3    H226327   5.805   0.116   6.371  1.9745 -2.5336  0.5450
 1638TIP3   OH226328   5.180   5.580  11.801  0.4919  0.1072 -0.1687
 1638TIP3    H126329   5.129   5.607  11.725  0.2258  1.6945  0.5249
 1638TIP3    H226330   5.194   5.486  11.789 -0.9392  0.0099 -1.3348
 1639TIP3   OH226331   4.224   4.794  15.191 -0.1744  0.3301 -0.3562
 1639TIP3    H126332   4.317   4.778  15.205  0.2622  2.5952 -0.2070
 1639TIP3    H226333   4.190   4.814  15.279 -0.5960  0.4399 -0.5420
 1640TIP3   OH226334   4.521   4.429   2.828 -0.3105 -0.2736  0.1965
 1640TIP3    H126335   4.479   4.471   2.754  0.3781 -1.4896 -0.9200
 1640TIP3    H226336   4.495   4.481   2.904  1.8715  3.2535 -1.2343
 1641TIP3   OH226337   5.951   4.606   4.250 -0.6661  0.6115 -0.4572
 1641TIP3    H126338   5.940   4.673   4.183 -1.2375  1.4958  0.4845
 1641TIP3    H226339   5.936   4.652   4.332  0.5609 -0.3235  0.3252
 1642TIP3   OH226340   5.935   0.684  12.878  0.9284 -0.2173  0.5655
 1642TIP3    H126341   5.868   0.700  12.812  2.7232 -3.8009 -2.5233
 1642TIP3    H226342   5.977   0.769  12.891 -2.1380  1.4685  0.3302
 1643TIP3   OH226343   1.461   6.104  14.590  0.3482  0.9262  0.7424
 1643TIP3    H126344   1.474   6.180  14.533  2.9679  2.2550  2.8977
 1643TIP3    H226345   1.524   6.039  14.558  1.3559  1.4312  1.6270
 1644TIP3   OH226346   4.329   2.793  10.450  0.4475  0.0459 -0.0592
 1644TIP3    H126347   4.422   2.788  10.426  0.7671 -0.8703  1.2423
 1644TIP3    H226348   4.330   2.800  10.546 -0.7994  1.6679 -0.1408
 1645TIP3   OH226349   5.406   1.102   1.011  0.1833 -0.0537 -0.1903
 1645TIP3    H126350   5.436   1.183   0.970  1.2550  0.3626  1.3120
 1645TIP3    H226351   5.311   1.101   0.995  0.4082  0.5828 -1.7241
 1646TIP3   OH226352   3.083   1.531   0.608  0.2440  0.1355 -0.1249
 1646TIP3    H126353   3.037   1.612   0.587  1.4917  0.9680  0.2170
 1646TIP3    H226354   3.134   1.510   0.530  0.4318  0.0474  0.0188
 1647TIP3   OH226355   2.061   4.285   3.809 -0.6254  0.3592  0.0398
 1647TIP3    H126356   2.090   4.323   3.892 -0.8518 -1.4989  1.0047
 1647TIP3    H226357   2.025   4.360   3.760  0.9313  1.7772  0.9370
 1648TIP3   OH226358   3.270   1.846   0.280  0.0030  0.2613  0.2326
 1648TIP3    H126359   3.302   1.808   0.198 -0.5820  1.1442 -0.4246
 1648TIP3    H226360   3.313   1.932   0.284 -0.5754  0.5423  0.4529
 1649TIP3   OH226361   3.501   3.885   6.308  0.2133 -0.0501  0.0125
 1649TIP3    H126362   3.434   3.835   6.356  2.5272 -0.9043  2.5939
 1649TIP3    H226363   3.529   3.952   6.370 -0.8572  2.8725 -2.4203
 1650TIP3   OH226364   5.708   2.350  13.169 -0.2675  0.2147 -0.2207
 1650TIP3    H126365   5.671   2.424  13.121 -1.8509 -0.3977 -0.0109
 1650TIP3    H226366   5.793   2.334  13.128  0.2218  2.2837 -0.1185
 1651TIP3   OH226367   2.548   0.593   0.416  0.1702  0.4443 -0.2998
 1651TIP3    H126368   2.565   0.586   0.510 -0.5942  1.6789 -0.0475
 1651TIP3    H226369   2.594   0.673   0.390 -1.8644  1.6414 -0.3979
 1652TIP3   OH226370   1.004   5.558  13.448  0.1522  0.1468  0.6336
 1652TIP3    H126371   0.916   5.535  13.419  0.9211 -0.4414 -1.3556
 1652TIP3    H226372   1.060   5.490  13.412  1.7490  1.8749 -0.3024
 1653TIP3   OH226373   2.360   5.003   2.872 -0.0759 -0.8044 -0.1518
 1653TIP3    H126374   2.375   5.046   2.956  2.3993 -0.9943 -0.4133
 1653TIP3    H226375   2.416   4.925   2.875 -1.4954 -1.9273 -1.2115
 1654TIP3   OH226376   0.278   3.201   3.181 -0.4092  0.2123  0.5823
 1654TIP3    H126377   0.269   3.296   3.191  1.2851  0.3970  0.7767
 1654TIP3    H226378   0.260   3.185   3.088  0.3439  0.8993  0.3009
 1655TIP3   OH226379   3.176   6.728   5.147 -0.0572 -0.4203 -0.1899
 1655TIP3    H126380   3.169   6.817   5.113  0.5234  0.6026  2.1596
 1655TIP3    H226381   3.099   6.718   5.203  0.1420 -1.2074 -0.0422
 1656TIP3   OH226382   3.660   5.777   0.198 -0.2271 -0.1170  0.3956
 1656TIP3    H126383   3.665   5.716   0.124  0.4260 -0.3040  0.5828
 1656TIP3    H226384   3.606   5.732   0.262  0.8159 -0.8172  0.8095
 1657TIP3   OH226385   4.484   3.253  11.869  0.7271  0.2285  0.6728
 1657TIP3    H126386   4.473   3.165  11.906 -0.3120  0.3651  0.7213
 1657TIP3    H226387   4.459   3.312  11.941  0.4169  0.5308  0.3204
 1658TIP3   OH226388   2.075   6.136  14.975 -0.2237 -0.0563 -0.3960
 1658TIP3    H126389   2.030   6.167  14.897 -1.9357  0.6645  0.8198
 1658TIP3    H226390   2.131   6.065  14.944 -0.6003  0.4303 -2.3073
 1659TIP3   OH226391   4.767   1.815   1.349 -0.2413 -0.0059  0.4730
 1659TIP3    H126392   4.846   1.792   1.300  0.2116  0.7008  0.8560
 1659TIP3    H226393   4.696   1.766   1.305  0.6569 -2.1547  1.2655
 1660TIP3   OH226394   6.556   2.427  13.446  0.0358 -0.3432 -0.4934
 1660TIP3    H126395   6.575   2.355  13.506  1.1909  1.2878  1.2113
 1660TIP3    H226396   6.460   2.429  13.442 -0.2339  0.7380  3.0626
 1661TIP3   OH226397   5.995   2.211  11.942 -0.2832  0.1642 -0.0040
 1661TIP3    H126398   5.980   2.189  11.851 -2.0007  3.0552 -0.5347
 1661TIP3    H226399   6.038   2.296  11.940  1.3685 -0.5444  1.9011
 1662TIP3   OH226400   0.294   6.216  13.866 -0.4216 -0.6773 -0.0550
 1662TIP3    H126401   0.301   6.248  13.776  0.5704 -1.2152 -0.1817
 1662TIP3    H226402   0.360   6.147  13.872 -0.3223 -0.4894  1.1564
 1663TIP3   OH226403   4.772   5.832  14.556 -0.4434 -0.2635 -0.3537
 1663TIP3    H126404   4.788   5.862  14.466 -1.1260  0.5794 -0.2012
 1663TIP3    H226405   4.832   5.759  14.567 -0.4043 -0.4363 -1.5314
 1664TIP3   OH226406   1.637   2.419  14.072  0.1510  0.4566 -0.1589
 1664TIP3    H126407   1.723   2.396  14.035  0.4626 -0.2985  0.9601
 1664TIP3    H226408   1.619   2.506  14.039  0.1552 -0.3616 -2.5051
 1665TIP3   OH226409   1.249   6.259   2.330  0.3406  0.0109  0.0834
 1665TIP3    H126410   1.310   6.305   2.273  0.9622 -1.0547 -0.1377
 1665TIP3    H226411   1.278   6.280   2.419  0.6533  0.0015 -0.0160
 1666TIP3   OH226412   0.967   4.205  13.486  0.1396 -0.4427 -0.2896
 1666TIP3    H126413   0.996   4.147  13.416 -0.3663  0.4209 -1.2503
 1666TIP3    H226414   0.883   4.239  13.456 -0.6767 -0.9660  1.2985
 1667TIP3   OH226415   0.719   5.181   0.931 -0.1171  0.5372 -0.1065
 1667TIP3    H126416   0.784   5.119   0.900  0.2508  1.5930 -1.5623
 1667TIP3    H226417   0.756   5.267   0.910 -0.9448  1.2448  1.1648
 1668TIP3   OH226418   2.961   0.535  10.362  0.0368  0.4421 -0.0637
 1668TIP3    H126419   2.939   0.570  10.449  1.3124 -0.4196  0.6344
 1668TIP3    H226420   2.918   0.450  10.359  1.7275 -0.4815  0.6170
 1669TIP3   OH226421   3.764   3.457   4.858 -0.2795  0.0129  0.3880
 1669TIP3    H126422   3.823   3.457   4.933 -0.1597 -0.4622  0.2927
 1669TIP3    H226423   3.795   3.386   4.802 -0.9630 -0.2742  0.3569
 1670TIP3   OH226424   1.730   3.301   2.978  0.1014  0.2423 -0.1621
 1670TIP3    H126425   1.785   3.351   3.038 -0.1753  0.9926 -0.5198
 1670TIP3    H226426   1.790   3.268   2.912  0.1815  0.7162 -0.3280
 1671TIP3   OH226427   3.386   3.933  15.170  0.1304  0.5238  0.4345
 1671TIP3    H126428   3.429   4.017  15.151 -0.4629  0.4436 -1.4237
 1671TIP3    H226429   3.309   3.957  15.221 -0.0802  1.1313 -0.1497
 1672TIP3   OH226430   5.236   1.929  11.719  0.1115  0.4169 -0.1063
 1672TIP3    H126431   5.165   1.910  11.781  0.1653  1.9092  0.4542
 1672TIP3    H226432   5.197   1.988  11.654  0.3730 -0.1935 -0.8273
 1673TIP3   OH226433   6.389   2.984  11.617 -0.3923  0.1483 -0.1987
 1673TIP3    H126434   6.452   3.055  11.601 -0.9918  0.4382 -1.4075
 1673TIP3    H226435   6.304   3.028  11.612 -0.7647 -0.6294 -0.8790
 1674TIP3   OH226436   0.787   2.859  12.085 -0.2185  0.7726  0.9220
 1674TIP3    H126437   0.705   2.856  12.035 -0.7381 -0.0496  1.8022
 1674TIP3    H226438   0.761   2.841  12.175  1.1763 -2.0463  0.8736
 1675TIP3   OH226439   1.703   3.330   1.615  0.2643 -0.1341 -0.0025
 1675TIP3    H126440   1.694   3.322   1.710 -0.5761  0.0356 -0.0656
 1675TIP3    H226441   1.698   3.240   1.582  1.1126 -0.2475  0.1520
 1676TIP3   OH226442   3.375   2.736   6.068 -0.1271  0.0094  0.1188
 1676TIP3    H126443   3.416   2.816   6.033  0.8353 -0.4712  0.1079
 1676TIP3    H226444   3.397   2.737   6.161 -2.0043  0.8758  0.5849
 1677TIP3   OH226445   3.905   0.976   4.078  0.0858 -0.0475 -0.6235
 1677TIP3    H126446   3.862   0.900   4.115  0.2240 -0.1779 -0.7311
 1677TIP3    H226447   3.974   0.998   4.141 -0.8030  0.7975  0.0774
 1678TIP3   OH226448   3.172   3.619  15.508 -0.0042 -0.2306 -0.2878
 1678TIP3    H126449   3.145   3.679  15.579  1.0712 -0.2158  0.1266
 1678TIP3    H226450   3.207   3.677  15.441  0.7874 -0.3652  0.0001
 1679TIP3   OH226451   4.957   6.277   3.616  0.3009 -0.4410  0.4160
 1679TIP3    H126452   4.923   6.366   3.606 -0.6539 -0.7520  0.7475
 1679TIP3    H226453   5.022   6.284   3.686  2.1033  0.4580 -1.2620
 1680TIP3   OH226454   1.998   6.418   0.539  0.4195  0.2783 -0.1784
 1680TIP3    H126455   2.036   6.435   0.626 -0.3594  0.2390  0.1822
 1680TIP3    H226456   1.947   6.497   0.520 -0.9617 -0.4685  0.2620
 1681TIP3   OH226457   3.842   3.565  16.732 -0.1657  0.0468  0.4728
 1681TIP3    H126458   3.813   3.592  16.820 -1.0618  2.1756 -0.3990
 1681TIP3    H226459   3.936   3.586  16.731 -0.6544  2.5522  0.1309
 1682TIP3   OH226460   4.145   5.402  11.471  0.4775  0.1795 -0.0009
 1682TIP3    H126461   4.171   5.357  11.390  0.5721 -0.1545  0.2106
 1682TIP3    H226462   4.113   5.331  11.527  0.8484  0.3525  0.4296
 1683TIP3   OH226463   2.286   1.812   1.152  0.2354  0.0246  0.1183
 1683TIP3    H126464   2.270   1.902   1.179  1.0400  0.0384  0.5772
 1683TIP3    H226465   2.381   1.803   1.151  0.1756 -0.7116 -0.2917
 1684TIP3   OH226466   5.971   5.677  12.073 -0.0577 -0.3362  0.1004
 1684TIP3    H126467   5.920   5.683  12.154 -0.4219  0.3937 -0.1695
 1684TIP3    H226468   5.997   5.767  12.055 -1.5123 -0.1921 -1.5516
 1685TIP3   OH226469   2.143   0.303  11.664  0.0147 -0.7417  0.0191
 1685TIP3    H126470   2.074   0.333  11.604  1.5587  1.7663 -0.6770
 1685TIP3    H226471   2.224   0.334  11.623  1.2882 -0.6832  2.4409
 1686TIP3   OH226472   5.011   1.704  14.369 -0.5065 -0.2241 -0.3256
 1686TIP3    H126473   4.948   1.636  14.391  0.8496 -1.9307 -1.4275
 1686TIP3    H226474   5.089   1.656  14.340  0.7351  1.8055 -0.5465
 1687TIP3   OH226475   5.314   1.036   4.309 -0.3318 -0.4482 -0.3299
 1687TIP3    H126476   5.304   0.951   4.352 -0.0427 -0.5603 -0.4838
 1687TIP3    H226477   5.370   1.086   4.369 -1.4545  0.0509  0.3474
 1688TIP3   OH226478   1.103   1.980  11.646 -0.2067  1.0250  0.1691
 1688TIP3    H126479   1.168   2.050  11.641  0.1710  0.6453 -0.2299
 1688TIP3    H226480   1.140   1.916  11.707 -1.0015  1.6305  1.3306
 1689TIP3   OH226481   0.135   5.315  15.224  0.6150  0.1624 -0.2966
 1689TIP3    H126482   0.189   5.394  15.223  0.9566 -0.0071 -2.8630
 1689TIP3    H226483   0.196   5.244  15.242  0.3975  0.3992  1.4890
 1690TIP3   OH226484   5.445   1.645   2.682  0.1542  0.1618  0.0208
 1690TIP3    H126485   5.369   1.600   2.719  0.2140 -1.5881 -1.8227
 1690TIP3    H226486   5.517   1.623   2.741 -0.2787 -0.2386  0.4107
 1691TIP3   OH226487   4.510   3.832  14.399  0.1717 -0.1437  0.1815
 1691TIP3    H126488   4.509   3.738  14.382  0.3145 -0.0067 -0.6257
 1691TIP3    H226489   4.468   3.841  14.485  0.3598 -0.9576  0.3697
 1692TIP3   OH226490   4.482   2.062  16.431  0.5717 -0.1691 -0.9009
 1692TIP3    H126491   4.446   2.150  16.439  1.7171  0.2353  0.2949
 1692TIP3    H226492   4.424   2.017  16.371 -0.1687  1.3379 -1.3588
 1693TIP3   OH226493   5.699   5.683  11.615  0.3096  0.1110  0.4874
 1693TIP3    H126494   5.754   5.646  11.546 -0.0177  1.6097 -0.6566
 1693TIP3    H226495   5.626   5.622  11.624  1.5636 -1.3200  1.2333
 1694TIP3   OH226496   2.501   6.604  12.537 -0.2561  0.0568  0.0349
 1694TIP3    H126497   2.424   6.572  12.584 -0.1666  1.4920  1.2057
 1694TIP3    H226498   2.544   6.664  12.598  0.1919  1.5418 -1.6592
 1695TIP3   OH226499   1.865   5.007   1.115 -0.4456  0.5335 -0.1015
 1695TIP3    H126500   1.904   4.920   1.124 -0.0068  0.7131 -0.2077
 1695TIP3    H226501   1.930   5.056   1.064 -1.0862  0.6651 -0.8003
 1696TIP3   OH226502   5.891   3.969   2.778  0.1231 -0.2043  0.2311
 1696TIP3    H126503   5.821   3.961   2.842  0.4425  0.7104  0.7086
 1696TIP3    H226504   5.871   4.050   2.731 -0.1317 -0.8835 -0.8638
 1697TIP3   OH226505   5.457   1.953  16.231 -0.0864  0.0488  0.5480
 1697TIP3    H126506   5.371   1.945  16.272 -1.4091  3.2176 -1.2907
 1697TIP3    H226507   5.448   1.912  16.146 -0.0698  1.1092  0.0198
 1698TIP3   OH226508   2.220   0.478  11.305 -0.1572  0.4283  0.1147
 1698TIP3    H126509   2.151   0.541  11.328  0.0427  0.4604  0.6317
 1698TIP3    H226510   2.207   0.462  11.211 -1.1818  0.0478  0.3091
 1699TIP3   OH226511   6.612   0.231   3.533 -0.9125  0.2661  1.4132
 1699TIP3    H126512   6.701   0.232   3.567 -0.5589 -2.1836  0.7601
 1699TIP3    H226513   6.556   0.237   3.611 -0.1276 -2.9053  2.3644
 1700TIP3   OH226514   5.117   6.149   2.881  0.0692 -0.0522 -0.3811
 1700TIP3    H126515   5.082   6.122   2.966  0.5493 -1.1776 -0.5332
 1700TIP3    H226516   5.052   6.211   2.847 -1.0870 -1.0595 -0.0471
 1701TIP3   OH226517   6.430   2.269   1.683  0.0865  0.6837  0.3389
 1701TIP3    H126518   6.429   2.282   1.588  0.7010  0.7452  0.3395
 1701TIP3    H226519   6.460   2.179   1.695 -2.0988 -0.1000  0.4152
 1702TIP3   OH226520   5.813   2.931   2.560  0.3065 -0.2861  0.1395
 1702TIP3    H126521   5.879   2.901   2.623 -0.7682 -2.8421  0.1777
 1702TIP3    H226522   5.737   2.951   2.614 -0.3062 -1.5583 -0.2078
 1703TIP3   OH226523   4.072   0.253  11.457 -0.1682 -0.1308  0.2112
 1703TIP3    H126524   4.163   0.277  11.469  0.1880 -1.4514  0.2740
 1703TIP3    H226525   4.028   0.335  11.433  1.2906  0.2575 -1.2608
 1704TIP3   OH226526   4.996   0.018  14.682 -0.1906  0.1332  0.6533
 1704TIP3    H126527   5.002  -0.067  14.727 -0.4586 -0.4677 -0.4073
 1704TIP3    H226528   4.909   0.051  14.704 -1.1495 -1.1200 -1.0110
 1705TIP3   OH226529   4.194   0.692   3.362 -0.0426  0.0978  0.2595
 1705TIP3    H126530   4.155   0.756   3.302 -0.7624  0.5870  1.2318
 1705TIP3    H226531   4.205   0.614   3.308 -1.3803  0.2939 -0.3447
 1706TIP3   OH226532   4.646   5.808  12.451  0.5389  0.7116 -0.3020
 1706TIP3    H126533   4.617   5.884  12.501 -0.3132  0.4536 -0.3887
 1706TIP3    H226534   4.677   5.746  12.517  1.2974  1.1503 -0.2361
 1707TIP3   OH226535   5.423   3.828  13.970 -0.5283 -0.1584  0.2242
 1707TIP3    H126536   5.406   3.777  13.891  1.5326 -2.0645  0.8936
 1707TIP3    H226537   5.341   3.825  14.019 -0.4814 -3.0308  0.2879
 1708TIP3   OH226538   5.781   0.322   1.126  0.3443  0.5662  0.1259
 1708TIP3    H126539   5.708   0.352   1.073  1.3625  0.6022 -1.3157
 1708TIP3    H226540   5.835   0.271   1.066  1.0770 -0.1620  1.3616
 1709TIP3   OH226541   3.738   3.083   0.011 -0.0074  0.1566 -0.5266
 1709TIP3    H126542   3.751   2.994   0.044 -2.1610 -0.0224  0.0017
 1709TIP3    H226543   3.651   3.082  -0.028 -0.1058  2.0443 -0.4749
 1710TIP3   OH226544   2.693   3.700   7.014 -0.4294 -0.0567 -0.2791
 1710TIP3    H126545   2.618   3.758   7.007  0.1354  0.5817 -1.2320
 1710TIP3    H226546   2.658   3.613   6.996 -0.6210  0.4582 -2.6699
 1711TIP3   OH226547   6.480   3.391   5.522 -0.1142  0.5019 -0.5994
 1711TIP3    H126548   6.399   3.360   5.564  1.2030 -1.8651  0.3901
 1711TIP3    H226549   6.509   3.463   5.577 -1.9761  2.0264 -1.4990
 1712TIP3   OH226550   2.551   6.298  11.183  0.2936  0.2197 -0.2440
 1712TIP3    H126551   2.506   6.376  11.152 -1.4430 -0.7064 -0.1710
 1712TIP3    H226552   2.503   6.225  11.143  0.2696 -0.8849  1.6886
 1713TIP3   OH226553   3.790   6.435  12.887 -0.0591  0.1815  0.1372
 1713TIP3    H126554   3.698   6.412  12.872  0.1891 -0.7952  0.0236
 1713TIP3    H226555   3.828   6.356  12.926  0.1466  1.4383  2.6500
 1714TIP3   OH226556   2.454   5.412  16.247 -0.6188  0.3831 -0.1210
 1714TIP3    H126557   2.390   5.389  16.179 -0.8491 -0.0283  0.2301
 1714TIP3    H226558   2.421   5.369  16.326 -0.9913  1.8035  0.5359
 1715TIP3   OH226559   4.653   5.328   4.254 -0.5663  0.6148 -0.0556
 1715TIP3    H126560   4.616   5.417   4.254 -1.2154  0.3634 -0.7886
 1715TIP3    H226561   4.725   5.333   4.191 -1.4646  0.3051 -1.1404
 1716TIP3   OH226562   3.794   3.189  11.517  0.1646  0.0250  0.5246
 1716TIP3    H126563   3.838   3.249  11.577  1.1025 -0.7520  0.6407
 1716TIP3    H226564   3.865   3.152  11.465 -0.7575  2.2477 -2.6173
 1717TIP3   OH226565   3.331   4.637  13.236 -0.2392  0.2969 -0.2144
 1717TIP3    H126566   3.375   4.684  13.164 -0.9079  2.3833  0.6727
 1717TIP3    H226567   3.301   4.555  13.196  1.0177  0.5694 -1.8234
 1718TIP3   OH226568   6.333   3.777   4.400 -0.3174  0.5484 -0.2030
 1718TIP3    H126569   6.330   3.871   4.417  0.1280  0.9294 -2.0625
 1718TIP3    H226570   6.407   3.765   4.342 -0.4748 -0.9403 -0.1425
 1719TIP3   OH226571   4.898   0.821  16.997 -0.3499  0.4740 -0.5617
 1719TIP3    H126572   4.935   0.783  17.077  3.7487  2.3526 -1.3010
 1719TIP3    H226573   4.966   0.808  16.931 -2.8770  0.5230 -3.3804
 1720TIP3   OH226574   2.582   4.606  15.379  0.3591  0.3696  0.1324
 1720TIP3    H126575   2.546   4.583  15.465 -0.0866  0.8989  0.0885
 1720TIP3    H226576   2.553   4.535  15.322  1.2136 -0.3349  0.5490
 1721TIP3   OH226577   0.711   5.422  15.908  0.3393 -0.2454 -0.0618
 1721TIP3    H126578   0.619   5.395  15.911  0.5299 -1.0644 -1.0387
 1721TIP3    H226579   0.738   5.426  16.000 -0.5346 -0.4837  0.2106
 1722TIP3   OH226580   0.919   5.671  16.699  0.2290  0.1388  0.0547
 1722TIP3    H126581   0.919   5.735  16.628 -4.3673  1.5894  1.0178
 1722TIP3    H226582   0.916   5.586  16.655 -1.7016  0.9680 -1.6068
 1723TIP3   OH226583   4.156   3.386  11.196  0.0916 -0.0384 -0.2301
 1723TIP3    H126584   4.252   3.381  11.190  0.1460 -0.4021  0.7952
 1723TIP3    H226585   4.131   3.444  11.123  1.0008 -0.7048 -1.1096
 1724TIP3   OH226586   4.418   3.329   3.073 -0.1822 -0.1489 -0.4737
 1724TIP3    H126587   4.460   3.407   3.109  1.6163 -1.6733  0.9663
 1724TIP3    H226588   4.469   3.308   2.994 -0.7024  0.1562 -0.8959
 1725TIP3   OH226589   2.413   1.904  14.695 -0.1638  0.2018 -0.5240
 1725TIP3    H126590   2.407   1.933  14.603  3.3048  1.1785 -0.6023
 1725TIP3    H226591   2.397   1.984  14.746 -0.1621  0.0967 -0.3592
 1726TIP3   OH226592   6.288   4.497   1.474  0.0986 -0.3990 -0.5618
 1726TIP3    H126593   6.284   4.448   1.392  2.1266  4.4784 -4.0445
 1726TIP3    H226594   6.197   4.504   1.502 -1.1553  0.1648 -4.2107
 1727TIP3   OH226595   0.695   3.811  14.533  0.1371 -0.2121  0.1258
 1727TIP3    H126596   0.676   3.859  14.614 -0.7015 -0.7774  0.2747
 1727TIP3    H226597   0.611   3.775  14.505  0.4904 -0.3584 -0.7887
 1728TIP3   OH226598   3.862   5.098   2.011 -0.3079  0.0952  0.0749
 1728TIP3    H126599   3.941   5.141   2.041 -0.9835  3.0070 -1.8681
 1728TIP3    H226600   3.804   5.097   2.087  0.4868  0.7471  0.7055
 1729TIP3   OH226601   0.142   1.895  14.363 -0.0645  0.6802 -0.2338
 1729TIP3    H126602   0.135   1.829  14.294  1.1948 -0.1509  0.4029
 1729TIP3    H226603   0.173   1.974  14.319  1.2854 -0.0036 -0.5495
 1730TIP3   OH226604   4.349   4.992  14.067 -0.8407  0.0956 -0.3188
 1730TIP3    H126605   4.309   4.914  14.029  0.6935 -0.9807  0.1579
 1730TIP3    H226606   4.429   5.005  14.015 -0.1426  0.2381  0.7612
 1731TIP3   OH226607   1.556   3.150  13.991 -0.1994 -0.3179 -0.0918
 1731TIP3    H126608   1.587   3.240  13.992  0.9856 -0.7016  1.4266
 1731TIP3    H226609   1.605   3.107  14.061 -0.3980 -2.2611 -1.0845
 1732TIP3   OH226610   0.042   2.129   1.135 -0.2840  0.1977  0.4335
 1732TIP3    H126611   0.100   2.075   1.189  0.3285  0.8419  0.4411
 1732TIP3    H226612   0.028   2.077   1.056  1.0393  0.3853  0.0487
 1733TIP3   OH226613   3.847   0.388   3.712  0.0270 -0.0796 -0.2815
 1733TIP3    H126614   3.855   0.483   3.705 -1.0086  0.0449  0.0250
 1733TIP3    H226615   3.769   0.375   3.766  0.3009 -1.1034 -0.1173
 1734TIP3   OH226616   4.604   1.409  13.078  0.3420 -0.3301  0.3137
 1734TIP3    H126617   4.661   1.399  13.154 -0.8350  0.3776  1.3286
 1734TIP3    H226618   4.617   1.329  13.027  2.8451  0.1568  0.0596
 1735TIP3   OH226619   5.982   2.572   2.048  0.3161 -0.0946 -0.0262
 1735TIP3    H126620   5.995   2.537   2.136  1.5607 -2.5901 -1.1003
 1735TIP3    H226621   6.070   2.594   2.017 -0.1100  0.7700 -0.6772
 1736TIP3   OH226622   4.942   0.100   2.850  0.4333 -0.3737  0.1461
 1736TIP3    H126623   4.918   0.157   2.924  0.5256 -0.9064  0.5904
 1736TIP3    H226624   4.892   0.135   2.776  0.2044  0.0588  0.4973
 1737TIP3   OH226625   3.491   5.569   0.318  1.0357  0.5503  0.5871
 1737TIP3    H126626   3.555   5.499   0.312  0.3752 -0.0243  0.0971
 1737TIP3    H226627   3.476   5.580   0.412  1.9478  0.7971  0.7150
 1738TIP3   OH226628   3.217   4.355  14.067 -0.2655  0.3445  0.2034
 1738TIP3    H126629   3.160   4.318  14.134  1.0439 -1.5372  0.3553
 1738TIP3    H226630   3.293   4.388  14.116 -0.8246  2.1659 -0.0643
 1739TIP3   OH226631   6.266   2.932  12.459  0.1691  0.0194  0.6151
 1739TIP3    H126632   6.244   2.883  12.538  0.7963  1.0245  1.4342
 1739TIP3    H226633   6.357   2.908  12.441  0.4353  0.7583  0.9411
 1740TIP3   OH226634   3.321   6.296   5.150  0.0665 -0.0106 -0.4584
 1740TIP3    H126635   3.385   6.308   5.079 -0.2728  0.9630 -0.6146
 1740TIP3    H226636   3.318   6.382   5.194 -1.8321  0.2714 -1.0437
 1741TIP3   OH226637   0.418   0.193   0.322  0.0530  0.2098  0.1153
 1741TIP3    H126638   0.325   0.176   0.315  0.0871 -1.3230  2.2951
 1741TIP3    H226639   0.428   0.234   0.409  1.3314  0.9981 -0.3771
 1742TIP3   OH226640   6.461   5.399   1.164 -0.0828 -0.2797 -0.2298
 1742TIP3    H126641   6.453   5.417   1.257 -0.9547 -1.3495 -0.0813
 1742TIP3    H226642   6.371   5.380   1.135  0.1871 -0.0376 -1.2652
 1743TIP3   OH226643   2.256   5.685  15.221  0.3188  0.2085 -0.5933
 1743TIP3    H126644   2.233   5.593  15.207  1.1354 -0.3074  1.0963
 1743TIP3    H226645   2.195   5.714  15.289  0.0897  0.9047 -1.0976
 1744TIP3   OH226646   3.702   3.292  12.584  0.2401  0.0865 -0.4785
 1744TIP3    H126647   3.790   3.254  12.586  0.9469  1.6111 -1.1470
 1744TIP3    H226648   3.716   3.386  12.585 -1.4055  0.3715 -0.4907
 1745TIP3   OH226649   1.436   5.663   0.307  0.0506  0.4518 -0.1551
 1745TIP3    H126650   1.348   5.662   0.269 -0.2638  1.2642  0.5119
 1745TIP3    H226651   1.449   5.753   0.335  0.6612  0.1029  0.7421
 1746TIP3   OH226652   2.477   5.276   1.096  0.0373 -0.5804 -0.2348
 1746TIP3    H126653   2.423   5.198   1.080 -2.1583  1.0752 -1.4074
 1746TIP3    H226654   2.547   5.271   1.032 -0.6870 -1.0959 -1.0063
 1747TIP3   OH226655   4.530   3.362  13.516 -0.1327 -0.0032 -0.2796
 1747TIP3    H126656   4.611   3.346  13.564 -0.3008 -1.2105 -0.3664
 1747TIP3    H226657   4.558   3.409  13.437  0.5760 -0.9504 -0.6108
 1748TIP3   OH226658   4.825   2.154   0.538 -0.7596 -0.0369 -0.3649
 1748TIP3    H126659   4.901   2.191   0.493  0.3109 -1.0723  0.5149
 1748TIP3    H226660   4.764   2.130   0.468  0.4988 -0.8341 -1.2255
 1749TIP3   OH226661   2.832   3.217   6.187 -0.0474  0.4731 -0.2041
 1749TIP3    H126662   2.743   3.234   6.221  0.4826 -1.1976  2.3084
 1749TIP3    H226663   2.886   3.284   6.229  0.0959  0.5749 -0.5522
 1750TIP3   OH226664   2.272   4.969   3.368  0.2217 -0.5252 -0.5798
 1750TIP3    H126665   2.312   4.982   3.454 -0.3524 -2.4803  0.0319
 1750TIP3    H226666   2.220   5.049   3.353  1.0552  0.2393  0.4461
 1751TIP3   OH226667   0.677   1.578  15.302 -0.3485 -0.0571  0.2812
 1751TIP3    H126668   0.706   1.665  15.275 -0.3914  0.6934  2.4618
 1751TIP3    H226669   0.754   1.523  15.294 -0.7836 -0.4090 -3.0557
 1752TIP3   OH226670   0.254   6.064  12.488  0.1636 -0.1406  0.1025
 1752TIP3    H126671   0.204   6.136  12.450  0.5629 -1.2663 -2.7803
 1752TIP3    H226672   0.188   6.002  12.519 -0.2036  0.0130 -0.3654
 1753TIP3   OH226673   0.111   6.762   3.493 -0.0244  0.1033 -0.3751
 1753TIP3    H126674   0.177   6.692   3.499 -0.5238 -0.3174  0.2564
 1753TIP3    H226675   0.035   6.720   3.454  0.0982  0.6196 -1.2146
 1754TIP3   OH226676   6.725   1.866  14.038  0.0301 -0.2047 -0.0669
 1754TIP3    H126677   6.637   1.895  14.064  0.1236 -1.0275  1.2580
 1754TIP3    H226678   6.731   1.776  14.069  1.1648 -0.3329 -0.5979
 1755TIP3   OH226679   4.370   0.850  14.033 -0.2561  1.4730 -0.4401
 1755TIP3    H126680   4.293   0.874  13.980 -1.3768  1.8643  1.3003
 1755TIP3    H226681   4.352   0.886  14.119  0.5405 -0.9184  0.8197
 1756TIP3   OH226682   0.319   3.143  15.744  0.6363  0.6206  0.3278
 1756TIP3    H126683   0.292   3.088  15.671  1.7613  1.2802 -0.6199
 1756TIP3    H226684   0.245   3.141  15.805  0.5529 -1.7533  0.2482
 1757TIP3   OH226685   0.296   2.586  13.470  0.3451 -0.2134  0.2371
 1757TIP3    H126686   0.305   2.625  13.557 -0.5255 -1.1357  0.7516
 1757TIP3    H226687   0.202   2.572  13.459  0.5644 -1.3833 -0.2746
 1758TIP3   OH226688   2.219   1.328   3.579  0.6520  0.5720 -0.4076
 1758TIP3    H126689   2.286   1.260   3.569  0.5657 -0.1587  2.8899
 1758TIP3    H226690   2.139   1.288   3.544  1.6117  1.1493 -3.6170
 1759TIP3   OH226691   3.339   2.026  11.565  0.0784  0.0571 -0.6605
 1759TIP3    H126692   3.305   2.113  11.546  0.1687  0.1583 -0.3531
 1759TIP3    H226693   3.417   2.041  11.618 -0.0444 -0.2196 -0.3988
 1760TIP3   OH226694   3.819   1.315   3.449 -0.3742  0.1617 -0.3140
 1760TIP3    H126695   3.886   1.333   3.383 -0.3266 -2.3107 -1.0427
 1760TIP3    H226696   3.853   1.355   3.529  1.3683  0.0450 -0.9436
 1761TIP3   OH226697   0.832   4.947   5.750  0.5668 -0.0152 -0.1764
 1761TIP3    H126698   0.787   5.013   5.698 -0.6783 -0.6948  0.0136
 1761TIP3    H226699   0.821   4.976   5.841 -0.5920 -0.8281 -0.0420
 1762TIP3   OH226700   3.597   4.151   5.433  0.4313  0.5225  0.4628
 1762TIP3    H126701   3.551   4.227   5.471  2.9974  2.0645  0.7209
 1762TIP3    H226702   3.629   4.103   5.509  1.1532  0.7170  0.2838
 1763TIP3   OH226703   5.547   2.670   2.716  0.0700  0.6347 -0.4836
 1763TIP3    H126704   5.460   2.672   2.758 -0.3158 -0.0928 -1.2278
 1763TIP3    H226705   5.607   2.656   2.789 -0.6749 -1.6337 -0.2176
 1764TIP3   OH226706   3.019   2.744  13.213 -0.1612 -0.1014 -0.6191
 1764TIP3    H126707   3.095   2.753  13.271 -0.4120  0.2157 -0.3408
 1764TIP3    H226708   3.045   2.789  13.132 -0.0862  0.0801 -0.4936
 1765TIP3   OH226709   1.071   0.531   1.433 -0.1813  0.2995  0.1620
 1765TIP3    H126710   1.019   0.476   1.374  0.0586  1.8727 -1.6143
 1765TIP3    H226711   1.141   0.474   1.464  0.4741 -0.2709 -2.1769
 1766TIP3   OH226712   1.252   1.632  11.101  0.6529 -0.5078  0.3541
 1766TIP3    H126713   1.187   1.656  11.168  1.3810  2.2898  0.1669
 1766TIP3    H226714   1.200   1.621  11.021  0.0697 -1.4019  0.8371
 1767TIP3   OH226715   4.759   4.589   3.254 -0.0728  0.5895  0.1070
 1767TIP3    H126716   4.686   4.649   3.267 -1.4640 -1.2654  1.3094
 1767TIP3    H226717   4.779   4.595   3.161 -1.5691  1.3566 -0.1953
 1768TIP3   OH226718   0.290   5.276   3.558  0.1629 -0.0022  0.2576
 1768TIP3    H126719   0.203   5.237   3.555 -0.0758  0.3680  1.6342
 1768TIP3    H226720   0.280   5.361   3.514  0.2701 -0.6876 -1.1508
 1769TIP3   OH226721   3.468   0.881   1.067  0.2196  0.0652 -0.7587
 1769TIP3    H126722   3.493   0.964   1.025  1.0834 -0.5166 -1.4309
 1769TIP3    H226723   3.374   0.875   1.054 -0.1383  1.6810  0.6569
 1770TIP3   OH226724   0.421   0.653  15.261 -0.7542  0.0983 -0.2711
 1770TIP3    H126725   0.338   0.635  15.217 -0.5874 -1.7570  0.0991
 1770TIP3    H226726   0.481   0.678  15.191 -0.7617 -1.8425 -1.0336
 1771TIP3   OH226727   5.373   0.586  12.394 -0.0830 -0.2956  0.1726
 1771TIP3    H126728   5.429   0.631  12.330  0.1011 -0.3053  0.3235
 1771TIP3    H226729   5.433   0.527  12.439 -0.4445 -1.1824 -0.4752
 1772TIP3   OH226730   5.062   1.143  14.184 -0.7707  0.2636 -0.0747
 1772TIP3    H126731   5.089   1.055  14.209  1.6614  1.5659  2.5875
 1772TIP3    H226732   5.134   1.176  14.129 -1.7082  0.5788 -1.1492
 1773TIP3   OH226733   5.701   1.124  11.635 -0.2271 -0.0135  0.0123
 1773TIP3    H126734   5.728   1.181  11.563 -1.3538  1.5306  0.7718
 1773TIP3    H226735   5.784   1.092  11.672  0.6370  3.2353  1.2311
 1774TIP3   OH226736   2.236   0.357   2.103  0.5448  0.0797 -0.0614
 1774TIP3    H126737   2.302   0.366   2.034  0.3259  0.2928 -0.2435
 1774TIP3    H226738   2.171   0.424   2.083 -0.0677 -0.5713 -0.2537
 1775TIP3   OH226739   4.514   0.802  12.130 -0.5178 -0.4792 -0.5896
 1775TIP3    H126740   4.576   0.739  12.093 -0.5690  0.2412 -1.9554
 1775TIP3    H226741   4.553   0.887  12.114 -0.4960 -0.1151  1.1740
 1776TIP3   OH226742   4.944   4.339   5.843  0.2313  0.5129  0.4128
 1776TIP3    H126743   4.925   4.265   5.900  0.2939  0.3798  0.2602
 1776TIP3    H226744   4.926   4.416   5.897  0.3142  0.3872  0.6198
 1777TIP3   OH226745   3.457   0.494  13.282  0.3944  0.1359  0.4031
 1777TIP3    H126746   3.467   0.433  13.210  1.4698 -1.8904  2.1534
 1777TIP3    H226747   3.444   0.579  13.240  0.7044 -0.9829 -2.1381
 1778TIP3   OH226748   4.005   2.572  13.521 -0.2815 -0.2851  0.0497
 1778TIP3    H126749   3.942   2.519  13.471  1.3659  0.2929 -2.8922
 1778TIP3    H226750   4.089   2.554  13.479  0.8124  2.3438  0.9390
 1779TIP3   OH226751   2.677   1.312   5.640  0.8574 -0.0196 -0.2882
 1779TIP3    H126752   2.612   1.252   5.602 -0.0931  0.5079  0.4563
 1779TIP3    H226753   2.710   1.266   5.717  1.3021 -0.2365 -0.5997
 1780TIP3   OH226754   6.616   3.244  12.042 -0.0160 -0.6877  0.0927
 1780TIP3    H126755   6.558   3.318  12.061 -1.9697 -1.9770 -0.5821
 1780TIP3    H226756   6.675   3.240  12.118 -1.0742  0.3922  1.0160
 1781TIP3   OH226757   1.816   5.645   5.091 -0.3519 -0.3388 -0.1652
 1781TIP3    H126758   1.730   5.603   5.080 -0.1229 -0.6683 -0.7628
 1781TIP3    H226759   1.795   5.738   5.101 -0.8137 -0.4856  0.3058
 1782TIP3   OH226760   2.251   5.817  16.427 -0.1587 -0.4705  0.4525
 1782TIP3    H126761   2.320   5.787  16.485 -0.4453 -1.0535  0.5025
 1782TIP3    H226762   2.243   5.748  16.360  0.3735  0.3324 -0.4591
 1783TIP3   OH226763   2.124   6.652  12.394 -0.1208  0.2236 -0.0331
 1783TIP3    H126764   2.156   6.567  12.365 -0.1062  0.7659 -1.7508
 1783TIP3    H226765   2.029   6.645  12.392 -0.1920  0.9040 -2.5421
 1784TIP3   OH226766   6.455   6.420   4.374  0.1890 -0.1725  0.3577
 1784TIP3    H126767   6.491   6.401   4.287 -0.6838  0.5115 -0.1744
 1784TIP3    H226768   6.379   6.474   4.357 -1.1976 -1.6870  1.4376
 1785TIP3   OH226769   3.062   4.328  12.598  0.0712  0.2019 -0.0132
 1785TIP3    H126770   3.088   4.261  12.662  1.3252 -0.7997 -1.4911
 1785TIP3    H226771   3.139   4.385  12.592  0.7699 -0.8626 -2.0193
 1786TIP3   OH226772   5.435   2.967  14.655  0.3733 -0.8639  0.0213
 1786TIP3    H126773   5.512   2.916  14.629  0.8900 -0.6748  1.1466
 1786TIP3    H226774   5.470   3.046  14.696 -0.4271 -0.3276 -0.2965
 1787TIP3   OH226775   3.935   0.990   3.428 -0.3229  0.6049 -0.3617
 1787TIP3    H126776   3.995   1.020   3.497 -0.4558  1.4104 -0.5806
 1787TIP3    H226777   3.848   1.007   3.465 -0.4198 -0.2500 -0.1795
 1788TIP3   OH226778   2.169   2.691  13.616 -0.7525  0.3642 -0.3882
 1788TIP3    H126779   2.192   2.622  13.554 -0.7457  1.1895 -1.3260
 1788TIP3    H226780   2.078   2.672  13.641 -0.0944 -1.1928  1.0370
 1789TIP3   OH226781   4.584   4.217   4.176 -0.0686 -0.2053  0.6513
 1789TIP3    H126782   4.532   4.187   4.101  0.0096  0.9888  0.0905
 1789TIP3    H226783   4.660   4.259   4.137 -0.1629  0.6797  1.3894
 1790TIP3   OH226784   1.508   1.070   1.820 -0.3229  0.2801 -0.1543
 1790TIP3    H126785   1.472   1.105   1.901  2.9683  0.5445  1.3218
 1790TIP3    H226786   1.452   0.994   1.800 -0.9554 -0.0843  2.6157
 1791TIP3   OH226787   5.515   2.579   5.476  0.8926 -0.1802  0.0589
 1791TIP3    H126788   5.537   2.613   5.563  0.5734 -0.0095  0.0749
 1791TIP3    H226789   5.460   2.647   5.437  2.3763  0.4992 -0.9317
 1792TIP3   OH226790   6.737   4.202   0.577 -0.0404  0.5410 -0.1085
 1792TIP3    H126791   6.787   4.189   0.497 -0.8730  0.4877 -0.6303
 1792TIP3    H226792   6.803   4.203   0.647  0.5900 -0.7092 -0.6519
 1793TIP3   OH226793   5.658   2.373   5.996  0.6296  1.0779  0.1946
 1793TIP3    H126794   5.712   2.434   5.947 -0.5886  1.6520 -0.4934
 1793TIP3    H226795   5.568   2.400   5.977  0.1007  0.5586  1.8010
 1794TIP3   OH226796   3.750   0.212   5.363 -1.0290 -0.1954 -0.5425
 1794TIP3    H126797   3.734   0.149   5.434  0.9955 -1.6247 -1.2268
 1794TIP3    H226798   3.767   0.295   5.408 -0.1773 -0.9807  0.6505
 1795TIP3   OH226799   1.732   4.361  14.138  0.0896 -0.1065  0.2637
 1795TIP3    H126800   1.759   4.372  14.046 -0.1826 -0.7336  0.0973
 1795TIP3    H226801   1.637   4.351  14.134  0.0054  0.4883  0.6843
 1796TIP3   OH226802   4.194   1.663  17.024  0.2480  0.1721 -0.1674
 1796TIP3    H126803   4.177   1.571  17.007 -0.2024  0.3756 -0.8612
 1796TIP3    H226804   4.209   1.701  16.938  0.1903  0.7982  0.0946
 1797TIP3   OH226805   5.780   6.770   5.320  0.2612 -0.2516  0.4059
 1797TIP3    H126806   5.723   6.697   5.346  1.0110 -0.6846  0.8900
 1797TIP3    H226807   5.757   6.841   5.379  0.6644 -0.6389  1.0441
 1798TIP3   OH226808   3.126   0.377  12.146 -0.1020 -0.0015 -0.5730
 1798TIP3    H126809   3.079   0.332  12.216  1.0563 -0.1196  0.1542
 1798TIP3    H226810   3.069   0.371  12.070 -2.1622  1.5340  0.7398
 1799TIP3   OH226811   0.347   4.799   2.613  0.3329  0.1328 -0.2449
 1799TIP3    H126812   0.394   4.775   2.693  0.8122  0.4893 -0.4159
 1799TIP3    H226813   0.415   4.807   2.547 -0.1922 -1.5944 -1.0496
 1800TIP3   OH226814   3.211   2.156  10.728  0.2707 -0.2563 -0.2670
 1800TIP3    H126815   3.170   2.211  10.662  1.0212  0.2059 -0.3553
 1800TIP3    H226816   3.141   2.138  10.791  0.2837  1.7276  0.3592
 1801TIP3   OH226817   3.493   3.383   2.144 -0.8067 -0.3435  0.0832
 1801TIP3    H126818   3.413   3.346   2.183 -0.2687 -1.7971 -0.1122
 1801TIP3    H226819   3.527   3.313   2.089  1.6733 -0.5308  1.6929
 1802TIP3   OH226820   3.032   0.397  11.710  1.2584 -0.2480  0.3701
 1802TIP3    H126821   2.949   0.411  11.666  1.1947  0.0206  0.5749
 1802TIP3    H226822   3.082   0.341  11.651  0.9367 -0.4001  0.2421
 1803TIP3   OH226823   2.786   5.186   1.353 -1.0553  0.2451  0.2722
 1803TIP3    H126824   2.780   5.245   1.278  1.3317  0.3495  0.0665
 1803TIP3    H226825   2.776   5.243   1.429 -1.4856  0.4761  0.0436
 1804TIP3   OH226826   3.928   0.940  13.676 -0.1110  0.4287 -0.0834
 1804TIP3    H126827   3.964   0.958  13.590  0.8298 -1.8682 -0.2084
 1804TIP3    H226828   3.840   0.906  13.659  1.0469 -2.6484 -0.3935
 1805TIP3   OH226829   1.250   3.483   0.106  0.0335  0.3661 -0.0153
 1805TIP3    H126830   1.328   3.453   0.059 -0.4464 -0.3772 -0.3586
 1805TIP3    H226831   1.276   3.567   0.144  1.6403 -0.7826  1.5764
 1806TIP3   OH226832   2.542   4.407   5.337  0.7982  0.2438 -0.4010
 1806TIP3    H126833   2.539   4.440   5.247 -2.0335 -0.3494 -0.6148
 1806TIP3    H226834   2.542   4.312   5.328  0.8294  0.1774  0.2310
 1807TIP3   OH226835   4.479   0.287  15.735  0.0797 -0.2074 -0.0158
 1807TIP3    H126836   4.406   0.347  15.752 -0.0324 -0.5465  0.7174
 1807TIP3    H226837   4.535   0.295  15.813  0.0098 -1.1297  0.1379
 1808TIP3   OH226838   3.990   2.213  15.770 -0.0965  0.5672  0.1711
 1808TIP3    H126839   4.059   2.276  15.750  1.2464 -0.9270 -0.1366
 1808TIP3    H226840   3.973   2.169  15.687 -0.2037 -0.2367  0.6088
 1809TIP3   OH226841   0.735   1.892   5.107 -0.4834  0.2139 -0.3983
 1809TIP3    H126842   0.769   1.877   5.019 -0.6947  1.2497 -0.6694
 1809TIP3    H226843   0.675   1.966   5.098  0.8825  1.5771  0.9167
 1810TIP3   OH226844   3.861   5.495  12.112 -0.1247 -0.1690 -0.1569
 1810TIP3    H126845   3.849   5.430  12.181 -0.3293 -0.4016 -0.4099
 1810TIP3    H226846   3.775   5.538  12.106 -0.0111  0.0745 -0.0390
 1811TIP3   OH226847   0.362   6.443  14.786 -0.0398  0.0076  0.2160
 1811TIP3    H126848   0.455   6.430  14.769  0.2812  1.5621  0.5753
 1811TIP3    H226849   0.324   6.458  14.699  0.2620  0.5534  0.1740
 1812TIP3   OH226850   6.110   4.601  12.302 -0.3826  0.4031  0.4270
 1812TIP3    H126851   6.104   4.529  12.239  0.0815  0.0142  0.8162
 1812TIP3    H226852   6.097   4.560  12.388  2.5190  0.2742  0.9156
 1813TIP3   OH226853   2.491   6.590  16.075  0.0017  0.0137 -0.1961
 1813TIP3    H126854   2.477   6.496  16.065  0.9459  0.0053 -1.8494
 1813TIP3    H226855   2.457   6.611  16.163  0.6431 -2.0160  0.5795
 1814TIP3   OH226856   6.137   0.685  10.942  0.1662  0.0219  0.0792
 1814TIP3    H126857   6.217   0.654  10.900 -1.3129 -1.7963 -1.6458
 1814TIP3    H226858   6.071   0.620  10.916 -2.4338  2.8176 -0.8395
 1815TIP3   OH226859   1.712   1.121  13.229  0.5157 -0.3745  0.4232
 1815TIP3    H126860   1.652   1.073  13.287  0.6185  0.2053  1.0204
 1815TIP3    H226861   1.744   1.193  13.283  0.8289  0.0144 -0.2776
 1816TIP3   OH226862   1.585   0.373   0.212  0.2880  0.3906  0.7113
 1816TIP3    H126863   1.575   0.466   0.231 -0.4121  0.0862  1.8856
 1816TIP3    H226864   1.509   0.331   0.252 -1.5776 -0.3124 -3.1124
 1817TIP3   OH226865   0.953   5.835   2.218 -0.2414 -0.1376 -0.6435
 1817TIP3    H126866   0.974   5.914   2.268 -1.3545 -1.0514  1.3427
 1817TIP3    H226867   1.014   5.838   2.143  3.2035  0.0838  1.9153
 1818TIP3   OH226868   4.696   2.227  12.366  0.2646 -0.0483  0.0735
 1818TIP3    H126869   4.627   2.168  12.395 -0.1243 -0.0424 -0.7829
 1818TIP3    H226870   4.659   2.315  12.378  1.0468  0.0687  1.8536
 1819TIP3   OH226871   1.246   3.942   5.517  0.3686  0.0320 -0.7251
 1819TIP3    H126872   1.238   4.001   5.442  1.7806  1.1217 -0.0556
 1819TIP3    H226873   1.316   3.881   5.493  1.0865  0.6202 -0.1601
 1820TIP3   OH226874   6.451   3.363   0.238 -0.7108  0.3314  0.2009
 1820TIP3    H126875   6.394   3.294   0.204 -1.1342  1.3084 -1.1408
 1820TIP3    H226876   6.527   3.317   0.273 -2.0747 -0.9711  1.5848
 1821TIP3   OH226877   1.251   2.832  13.477 -0.0232 -0.2569  0.0148
 1821TIP3    H126878   1.242   2.739  13.498  1.3128 -1.1198 -2.7664
 1821TIP3    H226879   1.345   2.849  13.485 -0.3753  1.2780  1.7374
 1822TIP3   OH226880   3.391   2.193  11.272  0.7198 -0.0427 -0.3124
 1822TIP3    H126881   3.375   2.213  11.365  1.0454 -1.2078  0.0150
 1822TIP3    H226882   3.415   2.277  11.233  4.2437 -0.0751  1.4254
 1823TIP3   OH226883   4.710   6.769  16.597 -0.0658 -0.3372  0.2295
 1823TIP3    H126884   4.771   6.712  16.550 -1.3917 -1.4482 -0.1809
 1823TIP3    H226885   4.752   6.855  16.595  1.1996 -0.9473 -0.5707
 1824TIP3   OH226886   5.738   2.407  16.356 -0.5139 -0.3074 -0.0810
 1824TIP3    H126887   5.735   2.334  16.294 -1.1629 -2.2468  2.1021
 1824TIP3    H226888   5.800   2.468  16.318 -0.2192 -1.8124 -2.1881
 1825TIP3   OH226889   6.211   3.169  16.258  0.2881  0.7107  0.5875
 1825TIP3    H126890   6.266   3.230  16.306 -1.0051  1.1988  1.4852
 1825TIP3    H226891   6.202   3.207  16.171  0.5783  1.1140  0.7340
 1826TIP3   OH226892   4.414   3.204  15.752 -0.4214 -0.2374 -0.0883
 1826TIP3    H126893   4.403   3.113  15.778  3.3700 -0.9626 -0.4254
 1826TIP3    H226894   4.410   3.253  15.834  0.9437 -1.2036  0.5947
 1827TIP3   OH226895   1.945   5.165  14.379 -0.6299  0.1223  0.0705
 1827TIP3    H126896   1.928   5.177  14.472 -0.2762  0.9504  0.0392
 1827TIP3    H226897   2.005   5.236  14.356 -0.6992 -0.0796 -0.7818
 1828TIP3   OH226898   3.295   1.293  10.527 -0.1597  0.2319 -0.0243
 1828TIP3    H126899   3.358   1.248  10.471 -1.0496 -2.2504  0.7791
 1828TIP3    H226900   3.215   1.296  10.474 -0.1727  0.6259  0.0210
 1829TIP3   OH226901   6.097   3.177  13.638 -0.3655 -0.1167  0.3562
 1829TIP3    H126902   6.191   3.195  13.633 -0.6977  1.4912 -1.4192
 1829TIP3    H226903   6.056   3.262  13.623 -2.1235 -0.8113  0.9989
 1830TIP3   OH226904   4.579   6.069   1.554  0.4493  0.3258 -0.2786
 1830TIP3    H126905   4.622   6.150   1.529  1.6690 -0.0293  0.5814
 1830TIP3    H226906   4.557   6.081   1.647  1.0048 -0.4610 -0.0344
 1831TIP3   OH226907   1.195   4.324   3.945  0.1304  0.1815  0.3471
 1831TIP3    H126908   1.111   4.329   3.899 -0.0991  0.3414  0.7843
 1831TIP3    H226909   1.172   4.312   4.037  0.5792  1.3719  0.6238
 1832TIP3   OH226910   2.055   6.571  15.245 -0.2821 -0.3863  0.4323
 1832TIP3    H126911   2.031   6.611  15.329 -1.7877  1.6259 -0.8659
 1832TIP3    H226912   1.975   6.577  15.192  0.5104 -1.9786 -1.0222
 1833TIP3   OH226913   2.630   0.681  16.829 -0.4929 -0.0624 -0.2822
 1833TIP3    H126914   2.661   0.757  16.780 -1.9713  0.8148  0.0927
 1833TIP3    H226915   2.630   0.609  16.765 -0.9594  0.7041 -1.1583
 1834TIP3   OH226916   3.236   0.641   1.590 -0.1775 -0.2112 -0.3834
 1834TIP3    H126917   3.271   0.602   1.510 -1.4551 -0.2774 -0.9277
 1834TIP3    H226918   3.190   0.569   1.634  0.6379 -0.2177  0.5135
 1835TIP3   OH226919   2.818   3.921   3.184  0.4053 -0.2296 -0.2731
 1835TIP3    H126920   2.785   4.001   3.224  0.3784  0.7226 -2.1107
 1835TIP3    H226921   2.899   3.903   3.231  0.9361  1.4572 -0.4632
 1836TIP3   OH226922   0.041   1.461  12.856 -0.2788 -0.0389  0.6064
 1836TIP3    H126923  -0.033   1.505  12.898 -0.0068  0.5464  0.4847
 1836TIP3    H226924   0.057   1.511  12.776  0.7939  0.3741  1.0620
 1837TIP3   OH226925   3.119   5.362  14.654  0.3390  0.1588 -0.1081
 1837TIP3    H126926   3.201   5.354  14.604  0.2624 -1.5058 -0.0290
 1837TIP3    H226927   3.134   5.436  14.713  0.0447  2.9887 -3.2323
 1838TIP3   OH226928   3.319   1.913  16.464 -0.1693  0.7640  0.9091
 1838TIP3    H126929   3.391   1.853  16.445  1.0364  2.1849  0.7587
 1838TIP3    H226930   3.241   1.870  16.430  1.0688  0.6280 -2.0444
 1839TIP3   OH226931   2.159   0.143   5.831 -0.1514 -0.0346  0.0631
 1839TIP3    H126932   2.109   0.137   5.750  0.0704 -0.4303 -0.0477
 1839TIP3    H226933   2.107   0.094   5.895 -0.7630  1.0154  0.3847
 1840TIP3   OH226934   2.848   6.128   3.176  0.0432  0.7306 -0.0911
 1840TIP3    H126935   2.851   6.035   3.155  0.4560  0.1888  2.1792
 1840TIP3    H226936   2.940   6.154   3.185 -0.1050  0.5765  2.3022
 1841TIP3   OH226937   6.208   5.364   4.304  0.4987 -0.2480  0.4372
 1841TIP3    H126938   6.119   5.340   4.330 -0.8111  1.2252 -2.2455
 1841TIP3    H226939   6.239   5.288   4.255  0.8313 -0.8453  1.5476
 1842TIP3   OH226940   4.992   0.884  13.143  0.0913  0.2160  0.0658
 1842TIP3    H126941   4.948   0.851  13.065  0.9360  1.6977 -1.0998
 1842TIP3    H226942   4.957   0.831  13.215 -0.4914 -1.3906 -1.3351
 1843TIP3   OH226943   6.449   2.531  10.622 -0.3536  0.2374  0.0173
 1843TIP3    H126944   6.489   2.576  10.548 -0.2254  0.3631  0.1637
 1843TIP3    H226945   6.421   2.447  10.586  0.0017  0.1661 -0.0961
 1844TIP3   OH226946   1.526   1.607  14.179  0.1526  0.0185 -0.2283
 1844TIP3    H126947   1.448   1.567  14.142 -0.6005 -0.9260  2.1580
 1844TIP3    H226948   1.595   1.543  14.165 -0.0420 -0.1782 -0.2844
 1845TIP3   OH226949   3.931   1.804   1.342  0.0567  0.5642  0.2571
 1845TIP3    H126950   3.839   1.804   1.367  0.0978 -1.2167  0.5392
 1845TIP3    H226951   3.979   1.820   1.423  0.0424 -0.6282  0.5164
 1846TIP3   OH226952   1.037   5.880   1.173 -0.1575  0.2995  0.3976
 1846TIP3    H126953   0.966   5.822   1.199 -0.4479  0.1520 -0.6748
 1846TIP3    H226954   1.073   5.913   1.255 -0.7182 -0.5197  0.9796
 1847TIP3   OH226955   5.975   4.126   0.988 -0.2864  0.2167  0.2126
 1847TIP3    H126956   5.997   4.153   0.899  0.6951 -1.9767 -0.2474
 1847TIP3    H226957   5.881   4.109   0.985 -0.7143  2.2567  0.2231
 1848TIP3   OH226958   1.521   3.902  10.672 -0.0301 -0.4945  0.2323
 1848TIP3    H126959   1.558   3.859  10.595  1.5633 -0.8664  1.1605
 1848TIP3    H226960   1.495   3.989  10.640  2.7931  0.2778 -0.3087
 1849TIP3   OH226961   1.768   2.394   3.682  0.3454  0.8572 -0.0730
 1849TIP3    H126962   1.719   2.336   3.624 -0.7059  0.1060  1.4795
 1849TIP3    H226963   1.746   2.482   3.652 -1.2158  0.5133 -0.0393
 1850TIP3   OH226964   0.429   6.562  11.173 -0.0313 -0.5848 -0.0558
 1850TIP3    H126965   0.440   6.620  11.097  1.2483 -1.6419 -0.7205
 1850TIP3    H226966   0.518   6.532  11.193  0.0365  1.3893  3.3027
 1851TIP3   OH226967   1.712   6.556   4.178 -0.4500 -0.3061 -0.1368
 1851TIP3    H126968   1.636   6.558   4.121  0.5153 -0.4975 -1.4671
 1851TIP3    H226969   1.691   6.491   4.245 -1.4549 -0.3429 -0.4799
 1852TIP3   OH226970   1.531   1.083   5.735  0.6812 -0.0903 -0.5001
 1852TIP3    H126971   1.480   1.110   5.812  1.7859  0.7606 -0.0405
 1852TIP3    H226972   1.501   0.994   5.717  1.8930 -1.1851  2.2400
 1853TIP3   OH226973   6.636   4.390   2.490 -0.2668  0.0526 -0.0481
 1853TIP3    H126974   6.631   4.379   2.395  0.8528  0.2276 -0.1399
 1853TIP3    H226975   6.576   4.323   2.525 -1.4982  0.6666 -0.8859
 1854TIP3   OH226976   6.401   4.222  11.444 -0.0071  0.0787  0.0097
 1854TIP3    H126977   6.380   4.258  11.357  0.2986 -0.8151 -0.4421
 1854TIP3    H226978   6.460   4.149  11.426  0.8377  0.4865  1.0492
 1855TIP3   OH226979   6.516   0.566   1.535  0.7598  0.5248 -0.0339
 1855TIP3    H126980   6.557   0.541   1.452 -0.7582 -1.3730 -0.3028
 1855TIP3    H226981   6.487   0.656   1.521  2.3517  0.9592 -0.7774
 1856TIP3   OH226982   1.283   2.978  12.294 -0.1267 -0.0121  0.3806
 1856TIP3    H126983   1.359   2.919  12.298  2.6176  3.2293  0.5136
 1856TIP3    H226984   1.251   2.970  12.204  0.4420 -1.3214  0.2704
 1857TIP3   OH226985   3.790   2.498  13.969  0.5135 -0.2102 -0.0029
 1857TIP3    H126986   3.866   2.507  13.912 -0.7004 -0.6982 -1.7742
 1857TIP3    H226987   3.767   2.588  13.993  1.9554 -0.0784  1.0578
 1858TIP3   OH226988   6.226   5.480  16.533 -0.3443 -0.2320 -0.6925
 1858TIP3    H126989   6.183   5.457  16.451 -2.6269 -0.5870  0.5311
 1858TIP3    H226990   6.191   5.419  16.597  0.4286  0.8228  0.8028
 1859TIP3   OH226991   5.650   5.429  14.851  0.4477  0.5617 -0.5852
 1859TIP3    H126992   5.654   5.514  14.807 -1.7452  0.6544 -0.7066
 1859TIP3    H226993   5.563   5.426  14.891  0.6944 -1.3848 -0.0634
 1860TIP3   OH226994   1.695   5.720   1.455 -0.0300 -0.0865 -0.2154
 1860TIP3    H126995   1.721   5.636   1.418 -2.0883 -0.4084 -1.0697
 1860TIP3    H226996   1.681   5.701   1.548  0.8508 -0.3335 -0.1215
 1861TIP3   OH226997   2.960   1.646  14.490 -0.0495 -0.6064  1.0802
 1861TIP3    H126998   2.866   1.634  14.480  0.0875 -0.4837 -0.6623
 1861TIP3    H226999   2.998   1.560  14.470  0.3301  0.0109 -1.1868
 1862TIP3   OH227000   3.471   1.238   1.278  0.1308  0.1076  0.4519
 1862TIP3    H127001   3.416   1.169   1.317 -0.3486 -0.3091 -0.9100
 1862TIP3    H227002   3.554   1.194   1.258  0.1537  0.1621  0.4279
 1863TIP3   OH227003   2.405   5.691  11.912 -0.3036 -0.2397 -0.1299
 1863TIP3    H127004   2.482   5.636  11.896  0.1857 -0.2355  1.8819
 1863TIP3    H227005   2.430   5.778  11.881  0.1498 -0.4438 -0.3456
 1864TIP3   OH227006   5.968   1.285  14.338 -0.0973 -0.0620 -0.0590
 1864TIP3    H127007   5.933   1.303  14.426  1.0112  3.4982 -0.1856
 1864TIP3    H227008   5.922   1.347  14.281  2.1606  0.6720 -1.2125
 1865TIP3   OH227009   6.491   2.242  13.109 -0.1810 -0.4027  0.1516
 1865TIP3    H127010   6.521   2.321  13.155 -1.0439  0.3793 -0.5807
 1865TIP3    H227011   6.566   2.182  13.112  0.9147  0.8929 -0.2869
 1866TIP3   OH227012   5.107   3.176   3.434 -0.3419 -0.1639 -0.5203
 1866TIP3    H127013   5.164   3.102   3.412 -1.0542 -0.8086 -0.2673
 1866TIP3    H227014   5.098   3.172   3.529 -1.7008 -0.7861 -0.6401
 1867TIP3   OH227015   4.308   5.845   2.686 -0.2365 -0.6062 -0.0106
 1867TIP3    H127016   4.373   5.787   2.726 -0.8574 -0.6129  1.0424
 1867TIP3    H227017   4.349   5.876   2.605  1.0436 -0.6617  0.5957
 1868TIP3   OH227018   2.514   1.741   1.880 -0.1837  0.2401  0.2139
 1868TIP3    H127019   2.428   1.700   1.887 -0.2111  0.4319  1.1598
 1868TIP3    H227020   2.564   1.683   1.822 -0.9024  0.0627 -0.2441
 1869TIP3   OH227021   0.808   1.665  13.622  0.1914 -0.5625  0.1347
 1869TIP3    H127022   0.771   1.706  13.544  2.4168 -0.0303 -0.7219
 1869TIP3    H227023   0.759   1.583  13.632 -1.0281 -0.0142 -1.0140
 1870TIP3   OH227024   4.469   0.675   1.283 -0.0072  0.6957 -0.5841
 1870TIP3    H127025   4.516   0.607   1.234 -1.9569 -0.3618 -1.0642
 1870TIP3    H227026   4.537   0.740   1.304  1.9491 -1.3967 -0.0331
 1871TIP3   OH227027   1.635   5.794  15.168  0.6031 -0.2038  0.0754
 1871TIP3    H127028   1.682   5.835  15.095 -0.2584  0.1050 -0.3210
 1871TIP3    H227029   1.555   5.760  15.128  1.3802 -2.4943  0.3415
 1872TIP3   OH227030   3.401   6.307   2.930 -0.5178  0.2814  0.4085
 1872TIP3    H127031   3.468   6.269   2.987  0.1456  0.6691 -0.0884
 1872TIP3    H227032   3.433   6.395   2.911 -0.7041  0.1532 -0.5754
 1873TIP3   OH227033   2.630   0.583  13.890  0.5987 -0.5657 -0.8697
 1873TIP3    H127034   2.582   0.593  13.972  4.0799 -0.2439  1.2895
 1873TIP3    H227035   2.561   0.577  13.823 -2.3791  1.0497  1.7785
 1874TIP3   OH227036   0.710   0.292  12.616  0.3376 -0.0484 -0.0181
 1874TIP3    H127037   0.778   0.224  12.614 -1.3876 -1.8638  0.0600
 1874TIP3    H227038   0.656   0.270  12.691 -2.7573 -1.2163 -2.3847
 1875TIP3   OH227039   6.791   2.856  17.022  0.0470 -0.3214 -0.2537
 1875TIP3    H127040   6.827   2.773  17.052 -0.3760 -0.9353 -1.3849
 1875TIP3    H227041   6.747   2.893  17.099 -0.6901 -1.6655  0.0037
 1876TIP3   OH227042   0.346   4.514  11.053 -0.5544 -0.1811 -0.1326
 1876TIP3    H127043   0.432   4.549  11.030 -0.2758 -1.2284 -0.7536
 1876TIP3    H227044   0.359   4.475  11.140 -0.2630 -0.7833 -0.4418
 1877TIP3   OH227045   0.919   2.117   3.339  0.5463 -0.0969  0.2328
 1877TIP3    H127046   0.848   2.161   3.293  0.6667 -1.3396 -1.2536
 1877TIP3    H227047   0.905   2.138   3.431 -1.6327 -0.1231 -0.0316
 1878TIP3   OH227048   1.341   0.420  14.424 -0.5175 -0.1609  0.3856
 1878TIP3    H127049   1.326   0.385  14.336  0.4105  1.3123 -0.3978
 1878TIP3    H227050   1.421   0.378  14.453 -0.7070 -0.4847  0.4470
 1879TIP3   OH227051   6.280   4.643   2.776  0.1239  0.0484  0.0149
 1879TIP3    H127052   6.232   4.715   2.818 -1.1496  0.2035 -1.5982
 1879TIP3    H227053   6.353   4.686   2.731 -0.3065  0.2653 -0.4784
 1880TIP3   OH227054   5.967   0.112  15.915  1.0219  0.3966 -0.1216
 1880TIP3    H127055   5.925   0.189  15.877 -0.9903  0.0357  1.2123
 1880TIP3    H227056   5.966   0.047  15.845 -1.2155  0.2262  0.0198
 1881TIP3   OH227057   1.334   2.818  10.607 -0.2111 -0.3889 -0.5929
 1881TIP3    H127058   1.253   2.829  10.558  0.1011 -0.9106 -1.2460
 1881TIP3    H227059   1.309   2.833  10.698 -0.8294  0.4604 -0.8853
 1882TIP3   OH227060   6.041   5.576   5.955 -0.2332 -0.2544  0.3719
 1882TIP3    H127061   5.994   5.493   5.965 -1.3457  0.4393  1.2042
 1882TIP3    H227062   6.123   5.562   6.001 -0.0085 -1.1909 -0.2873
 1883TIP3   OH227063   2.531   6.064  16.010  0.1125  0.3379 -0.1937
 1883TIP3    H127064   2.533   6.056  16.105  0.6762 -1.1556 -0.2972
 1883TIP3    H227065   2.470   6.136  15.993 -1.9957 -1.0064  1.2071
 1884TIP3   OH227066   5.428   3.777   5.649 -0.0513  0.2347  0.3346
 1884TIP3    H127067   5.383   3.755   5.567  0.7667  0.6283 -0.2390
 1884TIP3    H227068   5.361   3.770   5.716 -1.2961  1.9878 -0.6360
 1885TIP3   OH227069   2.633   2.163  10.454 -0.0477  0.6188  0.6734
 1885TIP3    H127070   2.550   2.120  10.479  0.3443 -0.9258 -0.5593
 1885TIP3    H227071   2.701   2.102  10.483  0.4957 -0.1490 -1.9452
 1886TIP3   OH227072   2.601   0.775  11.294  0.0816  0.0866 -0.4844
 1886TIP3    H127073   2.602   0.767  11.389 -0.3171 -1.0499 -0.5659
 1886TIP3    H227074   2.508   0.779  11.272  0.1334 -0.9008 -0.9149
 1887TIP3   OH227075   6.629   2.581  12.705  0.2919  0.1997  0.2354
 1887TIP3    H127076   6.652   2.631  12.783 -0.0095 -1.4001  1.3907
 1887TIP3    H227077   6.589   2.501  12.738 -0.7318 -0.1118 -1.5901
 1888TIP3   OH227078   6.373   2.029   0.095 -0.3433 -0.0719  0.8987
 1888TIP3    H127079   6.393   1.976   0.017 -1.1724  0.8362  0.0301
 1888TIP3    H227080   6.347   2.115   0.059  0.8073  0.8816  2.2474
 1889TIP3   OH227081   4.352   4.420   4.979  0.1111  0.0089 -0.2636
 1889TIP3    H127082   4.408   4.488   5.015  1.3035 -0.8836 -0.3577
 1889TIP3    H227083   4.340   4.445   4.887 -2.7576  2.1675  0.5695
 1890TIP3   OH227084   2.238   6.731  13.864  0.3503  0.0181 -0.6155
 1890TIP3    H127085   2.317   6.780  13.843 -0.5229  1.4336 -0.7419
 1890TIP3    H227086   2.265   6.639  13.862  2.1087  0.4862 -0.0839
 1891TIP3   OH227087   6.142   1.658   0.111  0.0041  0.2598  1.0040
 1891TIP3    H127088   6.220   1.606   0.087 -0.5975 -0.5404  0.7229
 1891TIP3    H227089   6.128   1.716   0.036 -1.3099 -1.5734 -0.2713
 1892TIP3   OH227090   2.949   3.633   3.429  0.3891  0.0160 -0.1548
 1892TIP3    H127091   2.871   3.679   3.399 -0.0526 -0.3302  0.4379
 1892TIP3    H227092   2.979   3.583   3.353  0.1895  0.3558 -0.4567
 1893TIP3   OH227093   0.388   1.845  15.757 -0.1107 -0.1796 -0.1837
 1893TIP3    H127094   0.357   1.931  15.784  1.2924 -0.1606  1.5489
 1893TIP3    H227095   0.467   1.862  15.706  0.1958 -0.4137  0.2012
 1894TIP3   OH227096   0.622   1.822   1.900  0.1651 -0.7015  0.1916
 1894TIP3    H127097   0.610   1.732   1.930 -1.0675 -0.2966  0.9996
 1894TIP3    H227098   0.700   1.854   1.946 -2.0494  0.1310  3.7199
 1895TIP3   OH227099   0.933   4.557   3.073 -0.0711  0.4183 -0.2615
 1895TIP3    H127100   0.928   4.647   3.106 -0.8044  0.0872  0.5719
 1895TIP3    H227101   0.851   4.517   3.100 -0.8836  0.1879 -2.8266
 1896TIP3   OH227102   0.550   6.763   1.162  0.1406  0.2096  0.1988
 1896TIP3    H127103   0.598   6.773   1.244  0.4183  0.2324  0.0389
 1896TIP3    H227104   0.537   6.669   1.152  0.4866  0.1747  0.0594
 1897TIP3   OH227105   6.630   6.351   5.943  0.5351  0.0938  0.3844
 1897TIP3    H127106   6.567   6.295   5.988  1.0215  0.0013  0.9568
 1897TIP3    H227107   6.610   6.439   5.974  1.1839 -0.0250  1.1742
 1898TIP3   OH227108   1.975   0.714  10.753  0.3861  0.1693 -0.2713
 1898TIP3    H127109   1.961   0.643  10.816 -0.2254 -0.3515 -0.9794
 1898TIP3    H227110   1.917   0.693  10.680  0.7110  1.0364 -0.7908
 1899TIP3   OH227111   4.945   0.060   4.414 -0.3801  0.5818 -0.2509
 1899TIP3    H127112   5.037   0.046   4.394 -0.0990  0.4925  1.0542
 1899TIP3    H227113   4.898   0.029   4.336  0.6122 -0.5685 -0.4044
 1900TIP3   OH227114   0.710   2.683  15.696 -0.2287 -0.4336 -0.4893
 1900TIP3    H127115   0.644   2.748  15.717 -0.9390 -1.3786  0.2917
 1900TIP3    H227116   0.721   2.633  15.777  1.2520 -0.4748 -0.6805
 1901TIP3   OH227117   1.455   4.371  14.245  0.2520 -0.3661  0.1083
 1901TIP3    H127118   1.403   4.297  14.277  1.0812 -0.9225  0.2228
 1901TIP3    H227119   1.527   4.378  14.308  0.7707 -0.1584 -0.4973
 1902TIP3   OH227120   0.136   3.346   1.841 -0.1716  0.2659 -0.4129
 1902TIP3    H127121   0.063   3.285   1.849  0.8236 -0.8831  0.0562
 1902TIP3    H227122   0.174   3.351   1.928  0.3924  0.7687 -0.6755
 1903TIP3   OH227123   0.404   1.682   0.232 -0.0838  0.2653  0.2167
 1903TIP3    H127124   0.324   1.629   0.237 -0.9180  1.5986  2.0952
 1903TIP3    H227125   0.472   1.627   0.270  0.0018 -0.9456 -1.5405
 1904TIP3   OH227126   4.042   5.416  14.525 -0.2626  0.0781  0.2215
 1904TIP3    H127127   4.055   5.448  14.436  1.3097  0.4243  0.5351
 1904TIP3    H227128   3.989   5.483  14.567 -1.3816 -0.2934 -0.5515
 1905TIP3   OH227129   4.710   0.842  11.353 -0.2846  0.6463 -0.0536
 1905TIP3    H127130   4.791   0.883  11.384 -0.4473  1.2856 -0.4521
 1905TIP3    H227131   4.641   0.904  11.377 -0.6301  0.2096  0.0777
 1906TIP3   OH227132   2.759   6.317   2.797 -0.5289 -0.1899  0.1162
 1906TIP3    H127133   2.851   6.294   2.808 -0.3871  0.1905 -0.2192
 1906TIP3    H227134   2.717   6.290   2.878 -0.1486 -0.5097  0.2082
 1907TIP3   OH227135   2.153   4.244  15.643 -0.1781 -0.5353  0.2024
 1907TIP3    H127136   2.164   4.335  15.672  3.8966 -1.4014  1.9782
 1907TIP3    H227137   2.063   4.222  15.668 -0.3583  2.1367  2.4227
 1908TIP3   OH227138   3.905   6.566  12.410  0.5330  0.0141  0.4807
 1908TIP3    H127139   3.910   6.574  12.505  0.9338 -1.8725  0.6676
 1908TIP3    H227140   3.819   6.601  12.388  0.8242  1.3774  1.4045
 1909TIP3   OH227141   5.318   1.225   2.184 -0.0522 -0.2989 -0.3088
 1909TIP3    H127142   5.304   1.318   2.171  1.4669  0.0119  0.0859
 1909TIP3    H227143   5.245   1.197   2.239  0.6009  1.1462  1.4072
 1910TIP3   OH227144   2.797   5.600   1.989 -0.0937  0.2101  0.0239
 1910TIP3    H127145   2.864   5.537   1.964 -0.4148 -0.1579  0.0930
 1910TIP3    H227146   2.824   5.681   1.945  0.2831  0.0124 -0.1159
 1911TIP3   OH227147   0.470   1.061  15.599 -0.6874 -0.0160 -0.1173
 1911TIP3    H127148   0.424   1.129  15.648 -1.7507  0.6672 -1.9712
 1911TIP3    H227149   0.401   1.005  15.565  0.0349 -0.5649 -0.6983
 1912TIP3   OH227150   1.636   1.878  14.842  0.0401  0.0852  0.0756
 1912TIP3    H127151   1.687   1.882  14.761  1.6084  0.7318  1.0397
 1912TIP3    H227152   1.569   1.945  14.832  0.3749  0.3235 -0.5860
 1913TIP3   OH227153   5.052   5.103   4.528  0.1275  0.1603  0.1911
 1913TIP3    H127154   5.089   5.180   4.571 -0.3931  1.2200 -1.1760
 1913TIP3    H227155   5.082   5.029   4.581  2.5675  1.0935  0.2803
 1914TIP3   OH227156   3.902   1.908  16.140  0.2939 -0.1866  0.0918
 1914TIP3    H127157   3.957   1.879  16.066  0.3723  0.4045 -0.0871
 1914TIP3    H227158   3.937   1.994  16.163  1.0933 -0.8874  1.6458
 1915TIP3   OH227159   1.696   4.384  14.722  0.1187 -0.1111  0.7902
 1915TIP3    H127160   1.788   4.399  14.703  0.1816  0.1188  1.2615
 1915TIP3    H227161   1.657   4.471  14.724 -0.4402 -0.2781 -0.9797
 1916TIP3   OH227162   0.807   6.372  14.365  0.1343 -0.2607  0.2468
 1916TIP3    H127163   0.855   6.289  14.374  0.5956 -0.2424 -1.6352
 1916TIP3    H227164   0.872   6.439  14.381  0.3571 -0.2600 -0.5912
 1917TIP3   OH227165   2.678   2.017  12.831 -0.3533  0.3951  0.1220
 1917TIP3    H127166   2.760   2.064  12.825 -1.5752  2.8300  1.2930
 1917TIP3    H227167   2.637   2.049  12.911 -2.1811 -1.2053 -0.0907
 1918TIP3   OH227168   5.587   0.788   6.418  0.7586 -0.6478  0.0440
 1918TIP3    H127169   5.544   0.748   6.493  0.1048 -0.5718 -0.2844
 1918TIP3    H227170   5.681   0.776   6.435  0.6065 -2.6846 -0.2357
 1919TIP3   OH227171   4.606   0.094  13.536 -0.2835  0.0761  0.1234
 1919TIP3    H127172   4.693   0.125  13.512 -0.3677  0.9651  0.9019
 1919TIP3    H227173   4.570   0.163  13.591 -1.1622 -0.6530  0.4983
 1920TIP3   OH227174   6.609   5.759  15.458 -0.4934  0.1751 -0.5220
 1920TIP3    H127175   6.668   5.684  15.460  0.3403  0.8225  0.9285
 1920TIP3    H227176   6.553   5.748  15.535  1.8337  2.6387  1.7421
 1921TIP3   OH227177   3.373   5.011   5.656  0.1874  0.6378  0.0593
 1921TIP3    H127178   3.433   5.030   5.584  0.3105  1.9977  0.4956
 1921TIP3    H227179   3.350   4.919   5.644 -1.7545  1.3764 -3.1637
 1922TIP3   OH227180   0.187   5.922   4.464  0.0289 -0.7191  0.4246
 1922TIP3    H127181   0.093   5.905   4.475 -0.4385  0.9782 -0.5434
 1922TIP3    H227182   0.223   5.922   4.552 -1.4877  1.6007  1.1300
 1923TIP3   OH227183   0.748   3.477   5.610 -0.2741 -0.1175  0.1014
 1923TIP3    H127184   0.713   3.445   5.527  1.7784 -0.9196 -0.5326
 1923TIP3    H227185   0.739   3.403   5.670 -0.7277  0.0783  0.2771
 1924TIP3   OH227186   3.521   5.034   1.445  0.0485  0.2714  0.0079
 1924TIP3    H127187   3.567   5.062   1.525  2.4176 -2.7427 -0.1205
 1924TIP3    H227188   3.499   4.943   1.461  0.4372 -0.3690 -2.7129
 1925TIP3   OH227189   4.787   0.497  15.192  0.1558 -0.2867 -0.9062
 1925TIP3    H127190   4.842   0.546  15.132  2.1392  0.5755  1.4211
 1925TIP3    H227191   4.841   0.421  15.217  0.0225  0.1306  0.7853
 1926TIP3   OH227192   3.550   0.117   3.099  0.0454  0.7997  0.1145
 1926TIP3    H127193   3.481   0.174   3.131 -2.6033 -1.3073 -1.4296
 1926TIP3    H227194   3.580   0.159   3.018  1.1297  2.0561  1.1246
 1927TIP3   OH227195   6.455   1.274  16.870  0.1504  0.2144 -0.2107
 1927TIP3    H127196   6.497   1.246  16.788 -0.8576  1.3633 -1.1640
 1927TIP3    H227197   6.373   1.224  16.874  0.2001  0.1548  0.1082
 1928TIP3   OH227198   1.478   1.818   0.001 -0.3449 -0.0205  0.3436
 1928TIP3    H127199   1.435   1.734  -0.014  1.0950 -0.6279 -0.5511
 1928TIP3    H227200   1.410   1.883  -0.019 -1.1846 -0.9470  0.1133
 1929TIP3   OH227201   0.164   5.592   3.708  0.6005 -0.2293 -0.3347
 1929TIP3    H127202   0.156   5.665   3.769  0.8669 -1.5239  1.3199
 1929TIP3    H227203   0.126   5.518   3.754  2.4502 -1.6699 -1.0026
 1930TIP3   OH227204   0.849   2.582   5.820 -0.7758 -0.2762  0.0520
 1930TIP3    H127205   0.909   2.575   5.894 -1.1721 -0.5856  0.3460
 1930TIP3    H227206   0.868   2.506   5.766 -2.2753 -1.5052  1.1727
 1931TIP3   OH227207   0.113   4.234   2.856  0.0740  0.3402 -0.1641
 1931TIP3    H127208   0.192   4.227   2.802  0.0858  0.7848 -0.2045
 1931TIP3    H227209   0.058   4.297   2.810 -0.1369  0.3271  0.0686
 1932TIP3   OH227210   2.467   5.828  11.379 -0.0724  0.1697  0.0398
 1932TIP3    H127211   2.551   5.826  11.334 -0.6966  0.0975 -1.1672
 1932TIP3    H227212   2.435   5.737  11.376 -1.4304  0.6546 -1.9978
 1933TIP3   OH227213   6.590   5.226   5.778 -0.5403 -0.0453  0.3718
 1933TIP3    H127214   6.608   5.282   5.854  1.1549 -0.9060  0.6510
 1933TIP3    H227215   6.523   5.165   5.809  0.0339 -0.2950  1.1316
 1934TIP3   OH227216   6.426   2.233   4.144 -0.4504  0.1825 -0.1082
 1934TIP3    H127217   6.404   2.274   4.228 -0.9983  1.4903 -0.8746
 1934TIP3    H227218   6.347   2.186   4.118  0.3527 -2.0111  1.0571
 1935TIP3   OH227219   4.146   6.619  15.054 -0.5228 -0.0860 -0.8134
 1935TIP3    H127220   4.112   6.643  14.968  0.1566  0.7126 -0.8761
 1935TIP3    H227221   4.083   6.657  15.116 -1.7099 -1.7336 -0.9310
 1936TIP3   OH227222   1.468   6.158  13.325 -0.0109 -0.6767  0.7111
 1936TIP3    H127223   1.518   6.129  13.402 -0.5432 -0.5392  1.1177
 1936TIP3    H227224   1.526   6.221  13.281  0.3551 -0.8626  0.9170
 1937TIP3   OH227225   2.840   4.009   4.850 -0.3771 -0.5922 -0.0970
 1937TIP3    H127226   2.794   4.031   4.769  0.0743 -0.5139 -0.3331
 1937TIP3    H227227   2.915   3.957   4.822 -0.5547 -1.0882  0.3268
 1938TIP3   OH227228   0.726   4.296   3.974 -0.0899 -0.4936 -0.3290
 1938TIP3    H127229   0.760   4.377   3.938  0.5192 -0.3552  0.5174
 1938TIP3    H227230   0.689   4.321   4.059 -0.1005 -1.0580 -0.1597
 1939TIP3   OH227231   0.659   2.194  11.758 -0.4945 -0.3383  0.2367
 1939TIP3    H127232   0.642   2.172  11.666  0.6144 -1.6225  0.3121
 1939TIP3    H227233   0.754   2.202  11.763 -0.6715  2.8661  0.6257
 1940TIP3   OH227234   1.819   4.450  15.232  0.5682  0.4222  0.2079
 1940TIP3    H127235   1.812   4.356  15.221  1.4513  0.4670 -0.9075
 1940TIP3    H227236   1.798   4.487  15.146  3.9877  0.9973 -0.5324
 1941TIP3   OH227237   3.418   1.505   3.844  0.8083  0.6604 -0.2358
 1941TIP3    H127238   3.458   1.418   3.848 -0.0211  0.3193  2.2074
 1941TIP3    H227239   3.490   1.566   3.856  1.0642  0.1795  0.7710
 1942TIP3   OH227240   1.887   3.690  10.906 -0.1024  0.8604 -0.5714
 1942TIP3    H127241   1.887   3.775  10.861  0.1768  0.2954 -1.6748
 1942TIP3    H227242   1.969   3.648  10.879  0.5381  0.8835  1.2545
 1943TIP3   OH227243   6.765   4.227  11.765  0.0434 -0.2046  0.7803
 1943TIP3    H127244   6.760   4.156  11.829 -0.0582 -0.0743  0.9186
 1943TIP3    H227245   6.752   4.185  11.680 -1.0373 -0.2080  0.9395
 1944TIP3   OH227246   2.090   2.070  11.299  0.7048  0.3143  0.6395
 1944TIP3    H127247   2.148   1.998  11.273  0.5297 -0.2123  1.6474
 1944TIP3    H227248   2.005   2.048  11.262  0.8643  0.4666  0.1830
 1945TIP3   OH227249   0.639   2.636   5.268 -0.3382 -0.9285 -0.2734
 1945TIP3    H127250   0.672   2.710   5.217 -2.6348  0.4775  0.1417
 1945TIP3    H227251   0.638   2.563   5.206 -2.0573  0.4695 -2.0411
 1946TIP3   OH227252   4.828   2.285  16.510  0.1818 -0.5958  0.5520
 1946TIP3    H127253   4.836   2.301  16.415  2.5936 -0.9381  0.6419
 1946TIP3    H227254   4.772   2.207  16.516  0.1216 -0.6692 -0.5912
 1947TIP3   OH227255   1.739   1.819   4.499  0.1449 -0.2155 -0.5199
 1947TIP3    H127256   1.770   1.877   4.430 -0.6405 -0.8448 -1.4126
 1947TIP3    H227257   1.680   1.758   4.456 -2.3098  0.8687  1.1087
 1948TIP3   OH227258   3.702   3.712   0.090 -0.1583  0.4922 -0.2378
 1948TIP3    H127259   3.611   3.692   0.068 -0.6194 -0.8584  2.4484
 1948TIP3    H227260   3.697   3.791   0.145  0.3043  0.4097 -0.0714
 1949TIP3   OH227261   6.009   1.384   0.551  0.1442 -0.0251 -0.2414
 1949TIP3    H127262   5.935   1.323   0.556 -0.7143  0.9751 -0.3081
 1949TIP3    H227263   6.050   1.366   0.467 -1.1089  0.5863 -1.0106
 1950TIP3   OH227264   2.807   4.472  11.045  0.0612  0.3128  0.2380
 1950TIP3    H127265   2.744   4.431  11.105 -0.7421  0.1693 -0.6882
 1950TIP3    H227266   2.822   4.407  10.977 -0.1676  1.0218 -0.5098
 1951TIP3   OH227267   1.381   5.363  16.019  0.5685  0.1548  0.7061
 1951TIP3    H127268   1.413   5.411  16.095  0.4490 -0.6883  1.3060
 1951TIP3    H227269   1.449   5.297  16.003  1.3582  1.2827 -0.8828
 1952TIP3   OH227270   3.418   4.794   2.109  0.3454 -0.1662 -0.2463
 1952TIP3    H127271   3.369   4.820   2.187  2.2376  1.3793  0.5049
 1952TIP3    H227272   3.404   4.699   2.102 -1.4998 -0.0042  0.7628
 1953TIP3   OH227273   6.097   2.541  12.168  0.6988 -0.0210  0.2957
 1953TIP3    H127274   6.009   2.538  12.205  0.5816  0.5709  0.0600
 1953TIP3    H227275   6.131   2.452  12.181  0.4832  0.0430  1.3970
 1954TIP3   OH227276   2.237   0.005   4.318  0.3825  0.2052  0.3047
 1954TIP3    H127277   2.147   0.037   4.326  1.0620  2.2023  0.4551
 1954TIP3    H227278   2.268  -0.002   4.408  0.1467 -1.3166  0.2995
 1955TIP3   OH227279   2.335   3.341   4.259  0.5432 -0.0178  0.1723
 1955TIP3    H127280   2.377   3.323   4.175  0.1523  1.3739 -0.3618
 1955TIP3    H227281   2.274   3.269   4.273  1.6057 -0.9785 -0.0499
 1956TIP3   OH227282   6.147   2.393   3.668  0.3467 -0.3985  0.4867
 1956TIP3    H127283   6.132   2.451   3.593 -0.1468 -1.1071  0.0171
 1956TIP3    H227284   6.202   2.444   3.728 -0.9375  0.9312  0.5786
 1957TIP3   OH227285   4.806   3.033  13.786  0.3421  0.1296  0.6165
 1957TIP3    H127286   4.799   2.939  13.803 -0.9738  0.5204  2.5291
 1957TIP3    H227287   4.776   3.043  13.695  1.0743 -1.3476  0.1882
 1958TIP3   OH227288   0.270   3.870  12.532 -0.0098  0.1930 -0.1574
 1958TIP3    H127289   0.245   3.852  12.441  0.2427  2.0849 -0.6580
 1958TIP3    H227290   0.347   3.927  12.524  0.2484  0.0690  1.2614
 1959TIP3   OH227291   1.601   5.164  15.450  0.1141  0.7774 -0.0043
 1959TIP3    H127292   1.545   5.234  15.416  1.6629  2.5571  0.9276
 1959TIP3    H227293   1.540   5.104  15.493 -1.2642  1.5745 -0.7758
 1960TIP3   OH227294   1.112   2.159   5.635  0.1396 -0.0541 -0.4270
 1960TIP3    H127295   1.059   2.226   5.679  0.6642  0.3738 -0.4424
 1960TIP3    H227296   1.057   2.128   5.563  0.2886  1.1022 -1.0658
 1961TIP3   OH227297   0.840   6.509   3.553 -0.5683 -0.6268 -0.0346
 1961TIP3    H127298   0.865   6.578   3.615  1.3118 -0.4957 -0.8838
 1961TIP3    H227299   0.814   6.436   3.609 -0.1157 -0.1036  0.8975
 1962TIP3   OH227300   1.609   2.483  10.669  0.3989  0.6340  0.4643
 1962TIP3    H127301   1.698   2.497  10.634  0.2802 -0.0856 -0.1455
 1962TIP3    H227302   1.552   2.534  10.611  0.3439  0.5911  0.4811
 1963TIP3   OH227303   1.137   1.259   1.068 -0.7158 -0.4153 -0.3940
 1963TIP3    H127304   1.106   1.310   1.143 -1.4527  2.1157 -2.3034
 1963TIP3    H227305   1.223   1.294   1.049  0.4168 -2.5171  0.4635
 1964TIP3   OH227306   3.571   3.581  15.763 -1.2602  0.0199  0.0230
 1964TIP3    H127307   3.656   3.626  15.757 -0.3412 -1.5028  0.8313
 1964TIP3    H227308   3.527   3.623  15.836 -0.8827  0.3417  0.0704
 1965TIP3   OH227309   2.702   6.754   0.328 -0.6059  0.2071  0.2072
 1965TIP3    H127310   2.766   6.825   0.323  0.5519 -0.6081  2.2200
 1965TIP3    H227311   2.664   6.749   0.240  1.6806  1.1182 -0.8980
 1966TIP3   OH227312   4.252   2.967   1.288 -0.1626 -0.7266 -0.1254
 1966TIP3    H127313   4.306   2.899   1.329 -0.9353 -0.5484  1.2565
 1966TIP3    H227314   4.315   3.024   1.244  0.7178 -0.9506  0.8050
 1967TIP3   OH227315   4.485   5.908   1.372  0.1603 -0.2566  0.4640
 1967TIP3    H127316   4.560   5.856   1.344 -0.2493  0.0851 -1.4106
 1967TIP3    H227317   4.523   5.979   1.423  0.8156 -1.7097  2.1081
 1968TIP3   OH227318   0.288   3.221  12.660 -0.0048 -0.2598  0.0616
 1968TIP3    H127319   0.376   3.188  12.678  1.4308  2.8597 -0.5707
 1968TIP3    H227320   0.249   3.235  12.746 -0.2995 -2.4536  0.3447
 1969TIP3   OH227321   6.047   4.637  13.551 -0.9493  0.5214  0.0284
 1969TIP3    H127322   6.101   4.716  13.549  1.7413 -1.0234  2.5908
 1969TIP3    H227323   5.982   4.654  13.619 -0.2203  0.4826  0.7487
 1970TIP3   OH227324   4.182   4.140  11.221 -0.2499 -0.0532 -0.0227
 1970TIP3    H127325   4.147   4.055  11.197  1.0109  0.0356 -2.5638
 1970TIP3    H227326   4.233   4.124  11.300 -1.0768 -1.3631  0.2683
 1971TIP3   OH227327   6.558   3.200  13.358  0.1471  0.0622 -0.2043
 1971TIP3    H127328   6.540   3.106  13.367 -2.5664  0.4120 -1.1558
 1971TIP3    H227329   6.557   3.233  13.448 -1.0787 -0.5052  0.0082
 1972TIP3   OH227330   3.810   6.459  16.922  0.0411 -0.8312 -0.7833
 1972TIP3    H127331   3.875   6.395  16.893  0.2560 -0.6927 -0.6038
 1972TIP3    H227332   3.772   6.420  17.001  0.7510 -0.3601 -0.2016
 1973TIP3   OH227333   2.568   2.997   3.141  0.1442  0.3793  0.4643
 1973TIP3    H127334   2.600   2.987   3.231 -0.8724  1.1971  0.9404
 1973TIP3    H227335   2.495   3.058   3.149  1.1226  1.8550 -1.1528
 1974TIP3   OH227336   5.474   3.463  11.579  0.0568 -0.0980 -0.3989
 1974TIP3    H127337   5.563   3.468  11.544  0.8131 -0.6278  1.3504
 1974TIP3    H227338   5.420   3.434  11.505  1.2901  0.3980 -1.5268
 1975TIP3   OH227339   0.208   2.289  11.895 -0.1557 -0.5212  0.3095
 1975TIP3    H127340   0.119   2.315  11.919  0.5181  1.5034  0.7848
 1975TIP3    H227341   0.206   2.193  11.897 -1.8187 -0.5194  2.2408
 1976TIP3   OH227342   4.399   6.494  12.278  0.4248  0.0335 -0.2243
 1976TIP3    H127343   4.329   6.551  12.310  0.6337  0.1883 -0.0376
 1976TIP3    H227344   4.471   6.554  12.258 -0.2362  0.1360 -2.5661
 1977TIP3   OH227345   4.032   2.432   5.913 -0.0960 -0.1246  0.4471
 1977TIP3    H127346   4.058   2.524   5.912 -0.2377 -0.0634 -1.3821
 1977TIP3    H227347   3.940   2.433   5.887 -0.2895 -0.7406  1.0808
 1978TIP3   OH227348   4.224   1.691  11.612 -0.5314  0.4614  0.0244
 1978TIP3    H127349   4.193   1.776  11.579 -0.4143 -0.0654 -1.5187
 1978TIP3    H227350   4.156   1.629  11.585  0.8265 -0.3917 -1.6301
 1979TIP3   OH227351   5.870   5.504  13.648 -0.0791 -0.2676  0.3844
 1979TIP3    H127352   5.958   5.503  13.611  0.0370  0.7336  0.6127
 1979TIP3    H227353   5.814   5.474  13.577  0.3709 -0.2700  0.0240
 1980TIP3   OH227354   5.170   4.037   5.905 -0.2168 -0.0851  0.5282
 1980TIP3    H127355   5.215   3.959   5.873  0.1768 -0.3283  1.6447
 1980TIP3    H227356   5.206   4.109   5.853  0.2822 -0.4947  0.3010
 1981TIP3   OH227357   5.075   1.218   0.248 -0.1339  0.2716  0.2064
 1981TIP3    H127358   5.093   1.286   0.183  0.2724 -0.3304 -0.3195
 1981TIP3    H227359   5.031   1.265   0.320 -2.3585  0.6723 -1.2930
 1982TIP3   OH227360   3.594   3.662  14.470 -0.0923 -0.7733  0.7563
 1982TIP3    H127361   3.611   3.745  14.514  0.9286  0.0310 -1.0608
 1982TIP3    H227362   3.646   3.598  14.518 -0.2885 -0.2309  1.7083
 1983TIP3   OH227363   1.004   3.190  14.676 -0.1336  0.0908 -0.2727
 1983TIP3    H127364   0.972   3.196  14.766 -1.0717  1.1544 -0.6473
 1983TIP3    H227365   0.925   3.178  14.624  0.4922 -1.6317 -0.8849
 1984TIP3   OH227366   5.930   1.755   1.407 -0.3119  0.3035 -0.0223
 1984TIP3    H127367   5.939   1.660   1.397  1.6025  0.5739 -1.4520
 1984TIP3    H227368   5.895   1.766   1.495 -1.6113 -1.7473 -0.2099
 1985TIP3   OH227369   0.960   0.156   3.718 -0.6891  0.8075  0.7043
 1985TIP3    H127370   1.008   0.238   3.716 -0.9504  0.9797  1.1636
 1985TIP3    H227371   0.868   0.182   3.720 -0.7660  0.5277  1.3562
 1986TIP3   OH227372   2.083   3.203   1.400  0.1873 -0.1596  0.7245
 1986TIP3    H127373   2.135   3.168   1.327  1.5458  0.5565  1.3087
 1986TIP3    H227374   2.094   3.139   1.470 -0.0809 -0.2194  0.7131
 1987TIP3   OH227375   4.361   2.991   2.905 -0.1689  0.0594  0.0798
 1987TIP3    H127376   4.401   2.911   2.939  0.8991 -0.1556 -1.5805
 1987TIP3    H227377   4.434   3.053   2.897 -0.3757  0.1184 -1.6714
 1988TIP3   OH227378   3.772   4.422  12.109 -0.3214 -0.5609 -0.3462
 1988TIP3    H127379   3.760   4.516  12.098 -0.8511 -0.5031  0.6515
 1988TIP3    H227380   3.786   4.390  12.020 -1.8981  0.2125 -0.9139
 1989TIP3   OH227381   3.632   5.687   3.847 -0.5603 -0.6938 -0.3852
 1989TIP3    H127382   3.604   5.745   3.776  1.1226 -0.6424 -1.0402
 1989TIP3    H227383   3.676   5.745   3.910  0.0272 -1.0733 -0.4416
 1990TIP3   OH227384   1.646   5.615   5.899  0.2263 -0.3881 -0.7149
 1990TIP3    H127385   1.685   5.577   5.820 -0.3254 -0.0441 -1.1599
 1990TIP3    H227386   1.700   5.581   5.971 -1.2061 -3.3724 -0.8981
 1991TIP3   OH227387   6.472   1.647   3.840 -0.3179 -0.4132  0.1270
 1991TIP3    H127388   6.487   1.646   3.745  0.1454 -0.8778  0.2011
 1991TIP3    H227389   6.429   1.731   3.856  1.3929  0.5798 -0.2205
 1992TIP3   OH227390   2.925   4.115  14.737 -0.3394  0.2602  0.3133
 1992TIP3    H127391   2.930   4.025  14.770  1.0716  0.2462  0.1192
 1992TIP3    H227392   2.952   4.109  14.645  0.4246  0.9642  0.4782
 1993TIP3   OH227393   6.141   5.567  13.833 -0.1137  0.7387  0.0885
 1993TIP3    H127394   6.179   5.556  13.920 -0.9221  1.3208  0.5237
 1993TIP3    H227395   6.193   5.637  13.793 -0.5494  1.3592  0.5871
 1994TIP3   OH227396   5.445   4.275  15.702  0.4498  0.0826  0.2612
 1994TIP3    H127397   5.378   4.324  15.749  0.6016 -0.1546  0.7263
 1994TIP3    H227398   5.404   4.251  15.619 -0.6900 -1.6154  1.2559
 1995TIP3   OH227399   5.895   2.562  11.329 -0.5883 -0.0136  0.7442
 1995TIP3    H127400   5.874   2.473  11.358 -2.0293 -0.3869 -1.2652
 1995TIP3    H227401   5.991   2.565  11.329 -0.5239 -1.0347  2.2890
 1996TIP3   OH227402   2.434   1.533  13.625 -0.1772  0.5371 -0.1035
 1996TIP3    H127403   2.426   1.485  13.542  0.1288  0.2028  0.0568
 1996TIP3    H227404   2.346   1.566  13.642 -0.9105 -1.7078  0.8162
 1997TIP3   OH227405   4.109   5.546   3.523 -0.1221  0.0747  0.2728
 1997TIP3    H127406   4.105   5.502   3.438 -1.4988 -0.9784  0.8438
 1997TIP3    H227407   4.067   5.485   3.583  4.0789 -0.9098  2.5129
 1998TIP3   OH227408   4.627   1.082   1.401 -0.3393  0.2470 -0.4956
 1998TIP3    H127409   4.578   1.163   1.415  0.9468  1.0148 -0.2124
 1998TIP3    H227410   4.693   1.082   1.471 -0.9078 -1.5355  0.0959
 1999TIP3   OH227411   5.612   4.880  15.981  0.1748 -0.9594 -0.1788
 1999TIP3    H127412   5.631   4.973  15.969  1.2626 -0.9269  1.5089
 1999TIP3    H227413   5.678   4.834  15.929 -0.5915 -0.8200 -1.3131
 2000TIP3   OH227414   3.856   4.191  14.961 -0.6071 -0.1189  0.5316
 2000TIP3    H127415   3.903   4.202  14.879 -2.6997  1.9591 -0.5252
 2000TIP3    H227416   3.880   4.104  14.992  3.3649  0.5409 -0.1635
 2001TIP3   OH227417   4.553   3.170   2.866  0.0840 -0.6323 -0.2538
 2001TIP3    H127418   4.588   3.178   2.777  1.0001 -1.9896 -0.0364
 2001TIP3    H227419   4.630   3.163   2.922 -0.5009 -2.0789  0.4084
 2002TIP3   OH227420   3.684   2.892   4.940  0.2762  0.4663 -0.2849
 2002TIP3    H127421   3.688   2.892   5.036  0.0110  0.9351 -0.2709
 2002TIP3    H227422   3.775   2.879   4.912  0.5038  1.3425  0.0314
 2003TIP3   OH227423   0.873   1.032   4.181  0.4676  0.5295  0.1722
 2003TIP3    H127424   0.858   1.077   4.264  0.1153 -1.0790  1.0287
 2003TIP3    H227425   0.940   1.084   4.137 -0.4266  2.2746  0.7673
 2004TIP3   OH227426   3.605   2.818  14.568 -0.0654 -0.3244 -0.9854
 2004TIP3    H127427   3.613   2.725  14.547  0.3000 -0.2528 -1.1801
 2004TIP3    H227428   3.572   2.857  14.487 -1.5038 -0.4683 -0.4996
 2005TIP3   OH227429   5.314   6.691   2.693 -0.0491  0.1430  0.6588
 2005TIP3    H127430   5.282   6.751   2.760 -1.5021  0.0749  0.0500
 2005TIP3    H227431   5.390   6.648   2.734  2.8480  4.2486  0.1825
 2006TIP3   OH227432   0.557   3.860   1.234  0.0984  0.0943  0.2128
 2006TIP3    H127433   0.567   3.930   1.299 -0.2366  1.2050 -0.8839
 2006TIP3    H227434   0.543   3.781   1.286 -1.1181  1.1012  1.5011
 2007TIP3   OH227435   2.824   4.691  13.881  0.2483  0.5444  0.3514
 2007TIP3    H127436   2.730   4.681  13.869  0.2911  0.6197 -0.0615
 2007TIP3    H227437   2.855   4.604  13.906  0.2708  0.1803 -0.8823
 2008TIP3   OH227438   3.273   1.967  11.146 -0.3480 -0.1505  0.3929
 2008TIP3    H127439   3.304   1.971  11.056 -0.7920 -0.1874  0.2364
 2008TIP3    H227440   3.304   2.049  11.186 -0.3502 -0.0279  0.1432
 2009TIP3   OH227441   5.190   1.571   4.567 -0.5650  0.4864 -0.2780
 2009TIP3    H127442   5.277   1.540   4.591 -0.5106  0.9121  0.0772
 2009TIP3    H227443   5.132   1.496   4.583 -0.2031  0.0503 -0.9558
 2010TIP3   OH227444   5.991   6.535  13.164  0.1712 -0.9125  0.0702
 2010TIP3    H127445   6.046   6.490  13.228  0.7267 -0.7914 -0.3130
 2010TIP3    H227446   6.025   6.506  13.079 -0.9754 -1.5914 -0.1896
 2011TIP3   OH227447   3.141   3.126  15.376  0.1710 -0.3289 -0.0580
 2011TIP3    H127448   3.183   3.126  15.290  2.2288  0.1730  0.9003
 2011TIP3    H227449   3.188   3.060  15.426  1.4931  1.8298  1.7699
 2012TIP3   OH227450   1.981   4.341  12.506  0.4123  0.4831  0.2555
 2012TIP3    H127451   1.999   4.327  12.413  1.0617  1.6055  0.1966
 2012TIP3    H227452   1.929   4.265  12.532 -2.4651  1.6006 -1.7609
 2013TIP3   OH227453   2.706   1.412  16.391  0.0691  0.0632 -0.1412
 2013TIP3    H127454   2.644   1.477  16.422  1.6283  1.5879 -0.0463
 2013TIP3    H227455   2.789   1.459  16.387  0.6623 -1.0744 -3.1082
 2014TIP3   OH227456   1.356   1.416  16.443  0.4956 -0.9324 -0.1939
 2014TIP3    H127457   1.313   1.335  16.416  1.0386 -1.9300  1.7578
 2014TIP3    H227458   1.361   1.469  16.363 -1.6228 -2.0003 -1.0858
 2015TIP3   OH227459   5.867   4.282   2.983  0.4402 -0.5150 -0.2886
 2015TIP3    H127460   5.961   4.264   2.979  0.5362  0.1877 -1.5919
 2015TIP3    H227461   5.827   4.195   2.993  1.1440 -1.0194 -1.6289
 2016TIP3   OH227462   4.907   6.565   6.074 -0.0399  0.4878  0.2773
 2016TIP3    H127463   4.856   6.635   6.034  2.3023  2.0228 -0.1792
 2016TIP3    H227464   4.995   6.600   6.082  1.0234 -2.0813  0.9450
 2017TIP3   OH227465   5.869   2.933  11.548 -0.6396  0.1827 -0.1138
 2017TIP3    H127466   5.785   2.965  11.514 -0.6433  3.8023  2.7008
 2017TIP3    H227467   5.850   2.904  11.637  0.5961 -2.1791 -0.5423
 2018TIP3   OH227468   4.317   2.164  14.506  0.4450 -0.2442 -0.3966
 2018TIP3    H127469   4.320   2.072  14.529 -2.6466 -0.6390 -1.1316
 2018TIP3    H227470   4.232   2.194  14.537  1.5927  2.5599  0.3447
 2019TIP3   OH227471   3.917   5.450   1.120 -0.4069  0.1536  0.3424
 2019TIP3    H127472   3.908   5.542   1.097 -2.3183 -0.1373 -0.2313
 2019TIP3    H227473   3.941   5.407   1.037  0.6536  0.1346  0.6437
 2020TIP3   OH227474   3.281   0.112   1.238  0.1612  0.0705 -0.2295
 2020TIP3    H127475   3.330   0.142   1.314 -0.7571 -2.9170  1.7017
 2020TIP3    H227476   3.324   0.030   1.212  0.8984  1.3517 -3.4860
 2021TIP3   OH227477   4.419   0.388  12.894  0.2351  0.0900  0.1075
 2021TIP3    H127478   4.383   0.415  12.979 -0.1991 -0.5819  0.1424
 2021TIP3    H227479   4.436   0.295  12.904  0.5964  0.0961 -0.4086
 2022TIP3   OH227480   1.759   5.898   5.129 -0.2209  0.4883 -0.0456
 2022TIP3    H127481   1.836   5.945   5.162  0.1635 -0.3865  0.3362
 2022TIP3    H227482   1.744   5.935   5.042  0.3764  0.9677  0.0460
 2023TIP3   OH227483   0.268   3.733  11.724 -0.1674 -0.2533  0.2722
 2023TIP3    H127484   0.289   3.640  11.715 -0.7007 -0.1616 -4.0128
 2023TIP3    H227485   0.345   3.779  11.692 -0.9916  0.6462 -0.4909
 2024TIP3   OH227486   5.114   5.504   5.719  0.0782  0.5684  0.2805
 2024TIP3    H127487   5.111   5.425   5.773  0.0658 -0.5924 -1.3591
 2024TIP3    H227488   5.207   5.524   5.711  0.0905  0.6223  0.5323
 2025TIP3   OH227489   3.733   2.716   2.275  0.3104 -0.0270 -0.1352
 2025TIP3    H127490   3.761   2.654   2.342  0.0727  0.1727  0.1507
 2025TIP3    H227491   3.812   2.732   2.223  0.6145  0.1517  0.3626
 2026TIP3   OH227492   4.778   1.304  11.312  0.0386 -0.7737 -0.2533
 2026TIP3    H127493   4.702   1.264  11.354 -0.2709 -1.7022 -1.6112
 2026TIP3    H227494   4.793   1.385  11.361 -2.1477 -0.3000 -0.2496
 2027TIP3   OH227495   1.738   1.841   2.944 -0.1657  0.0312  0.7448
 2027TIP3    H127496   1.797   1.909   2.978 -0.7131  0.0499  1.6807
 2027TIP3    H227497   1.651   1.872   2.968 -0.4805 -0.5644  0.3740
 2028TIP3   OH227498   4.307   2.015   6.579  0.1792 -0.5248  0.2684
 2028TIP3    H127499   4.223   2.061   6.585  0.0404 -0.8072  0.5239
 2028TIP3    H227500   4.359   2.069   6.519 -0.1790 -0.3405  0.1151
 2029TIP3   OH227501   3.013   4.416  13.851  0.2226  0.4092 -0.2554
 2029TIP3    H127502   3.061   4.430  13.769  0.2166 -0.9578 -0.5142
 2029TIP3    H227503   3.081   4.400  13.917  0.2840  2.5121  0.2655
 2030TIP3   OH227504   2.103   3.624   5.509 -0.1410 -0.1638  0.1414
 2030TIP3    H127505   2.185   3.648   5.553  0.4847  0.5742 -1.3566
 2030TIP3    H227506   2.109   3.529   5.499 -0.5515 -0.4415  2.0608
 2031TIP3   OH227507   2.131   0.352   0.235  0.4505 -0.1520  0.5629
 2031TIP3    H127508   2.177   0.290   0.179  0.4511 -0.1293  0.5380
 2031TIP3    H227509   2.039   0.345   0.209  0.3001 -0.8887  1.2676
 2032TIP3   OH227510   0.295   1.974   4.927 -0.1170  0.2594 -0.4235
 2032TIP3    H127511   0.289   2.061   4.967 -4.9231  0.1986 -0.3879
 2032TIP3    H227512   0.233   1.978   4.854  0.4914 -2.7847 -1.2220
 2033TIP3   OH227513   2.141   4.044   1.426 -0.3684  0.0289  0.4784
 2033TIP3    H127514   2.047   4.042   1.406 -0.4456 -0.6508  0.8832
 2033TIP3    H227515   2.149   3.996   1.508  0.2989  0.3566  0.6135
 2034TIP3   OH227516   0.069   4.002   0.955  0.2000  0.0835  0.1193
 2034TIP3    H127517   0.050   4.066   1.024  1.0250 -0.3922  0.8095
 2034TIP3    H227518  -0.012   3.952   0.947 -0.0738  0.4724  0.3818
 2035TIP3   OH227519   1.693   0.417   3.381 -0.0496 -0.6332  0.2472
 2035TIP3    H127520   1.604   0.398   3.411  0.0678  0.0173  1.0265
 2035TIP3    H227521   1.683   0.434   3.287 -0.5565 -1.7694  0.0796
 2036TIP3   OH227522   0.200   0.119  15.656  0.7041 -0.1879  0.1507
 2036TIP3    H127523   0.243   0.166  15.584 -0.9957  1.2365  0.0013
 2036TIP3    H227524   0.190   0.184  15.725 -1.1001 -0.4576  0.1996
 2037TIP3   OH227525   2.566   4.658   2.606  0.1639  0.1976  0.1301
 2037TIP3    H127526   2.644   4.681   2.656 -0.4018 -0.2705  1.2432
 2037TIP3    H227527   2.547   4.568   2.629 -1.6676  0.7997  1.2062
 2038TIP3   OH227528   1.306   4.202  15.614 -0.4233 -0.4100  0.4175
 2038TIP3    H127529   1.369   4.136  15.586  1.2456  0.9676  0.7525
 2038TIP3    H227530   1.258   4.225  15.535 -0.3617 -1.3300  0.1052
 2039TIP3   OH227531   4.920   4.682  15.945  0.0528  0.0805  0.7044
 2039TIP3    H127532   4.897   4.704  15.854  0.0480 -2.1132  0.1076
 2039TIP3    H227533   4.836   4.665  15.988  0.1505 -1.3410  0.3859
 2040TIP3   OH227534   1.277   4.830  12.461 -0.6192  0.2217  0.1752
 2040TIP3    H127535   1.306   4.797  12.376  1.1106 -1.8665  1.4707
 2040TIP3    H227536   1.185   4.801  12.468 -0.0561 -1.7643 -0.0184
 2041TIP3   OH227537   1.304   2.603  14.200  0.1142 -0.3548 -0.4750
 2041TIP3    H127538   1.285   2.689  14.237 -1.4956 -0.7177 -0.3531
 2041TIP3    H227539   1.362   2.620  14.126 -0.1174  0.8244 -0.3992
 2042TIP3   OH227540   3.248   2.791   4.685 -0.2099  0.9035  0.0625
 2042TIP3    H127541   3.244   2.723   4.752  0.6179  1.0524  0.2800
 2042TIP3    H227542   3.335   2.780   4.645 -0.2266  1.5694 -0.1722
 2043TIP3   OH227543   3.977   1.989   4.117 -0.3287 -0.7645  0.3918
 2043TIP3    H127544   3.913   1.969   4.185  0.4389  1.9863  2.0699
 2043TIP3    H227545   4.057   1.944   4.145 -0.2201 -0.2500  0.9172
 2044TIP3   OH227546   4.406   3.604  10.862 -0.0537 -0.1949 -0.0123
 2044TIP3    H127547   4.362   3.687  10.846 -0.4483 -0.7032 -1.7186
 2044TIP3    H227548   4.362   3.542  10.804  2.7485 -0.7781 -1.6658
 2045TIP3   OH227549   6.089   6.343   3.629 -0.1260 -1.0637 -0.8730
 2045TIP3    H127550   6.057   6.425   3.667  0.0429 -1.1562 -0.5327
 2045TIP3    H227551   6.155   6.370   3.565 -0.3996 -0.9091 -1.0899
 2046TIP3   OH227552   3.915   6.378   1.831  0.2236  0.5847 -0.0694
 2046TIP3    H127553   3.870   6.344   1.754 -1.7502  3.5872 -0.4074
 2046TIP3    H227554   3.857   6.356   1.904  0.2712  0.8777  0.0580
 2047TIP3   OH227555   5.305   6.160  13.814  0.1348 -0.0168 -0.6615
 2047TIP3    H127556   5.317   6.066  13.829 -0.5502  0.0846  0.7381
 2047TIP3    H227557   5.340   6.201  13.893 -0.6614  0.8232 -0.7320
 2048TIP3   OH227558   5.071   1.937  13.942 -0.1101  0.5445 -0.0255
 2048TIP3    H127559   5.118   1.978  13.870  0.8253 -0.0075  0.2464
 2048TIP3    H227560   5.009   2.004  13.972  2.0378  2.1886  1.0572
 2049TIP3   OH227561   3.750   3.538  12.885 -0.2379  0.2340 -0.1780
 2049TIP3    H127562   3.742   3.510  12.794  0.8272  1.0123 -0.5417
 2049TIP3    H227563   3.709   3.624  12.888 -2.6598 -0.8785  0.7161
 2050TIP3   OH227564   4.919   3.431   5.482  0.2521 -0.1723 -0.5239
 2050TIP3    H127565   4.978   3.402   5.412  2.1455  2.4638 -0.1602
 2050TIP3    H227566   4.921   3.526   5.477 -2.3092  0.0406  0.9677
 2051TIP3   OH227567   5.527   1.551  12.747  0.2037 -0.5528 -0.3565
 2051TIP3    H127568   5.500   1.623  12.805 -0.4161 -0.3328 -0.8957
 2051TIP3    H227569   5.575   1.491  12.803  0.0067 -0.1216  0.2851
 2052TIP3   OH227570   6.799   1.252   2.756 -0.4234 -0.2663  0.0816
 2052TIP3    H127571   6.746   1.234   2.834 -0.6247  0.4478  0.1206
 2052TIP3    H227572   6.883   1.281   2.790  0.3180 -2.2132  0.0210
 2053TIP3   OH227573   1.465   2.098  12.437  0.5430  0.9367 -0.5146
 2053TIP3    H127574   1.552   2.098  12.476 -0.7314  2.6481  2.6897
 2053TIP3    H227575   1.436   2.189  12.443 -1.4209  0.4444 -1.6741
 2054TIP3   OH227576   1.530   5.123   3.755 -0.1813 -0.0644  0.1779
 2054TIP3    H127577   1.451   5.074   3.730  0.1915  0.0891 -1.4271
 2054TIP3    H227578   1.571   5.145   3.672  0.5401  1.5510  0.9311
 2055TIP3   OH227579   4.573   5.418   2.361 -0.6742  0.2129 -0.5365
 2055TIP3    H127580   4.575   5.380   2.449 -2.4803 -1.5450 -1.1658
 2055TIP3    H227581   4.575   5.512   2.375 -0.3434 -0.0338  1.3584
 2056TIP3   OH227582   6.784   3.153   2.534  1.0867 -0.3024 -0.4046
 2056TIP3    H127583   6.873   3.168   2.501  0.5187 -0.7660 -2.2302
 2056TIP3    H227584   6.730   3.146   2.456 -0.5410 -0.2662  0.6751
 2057TIP3   OH227585   6.308   5.342  11.599 -0.2350 -0.8040  0.4081
 2057TIP3    H127586   6.265   5.408  11.545 -1.6749 -1.1068  1.1309
 2057TIP3    H227587   6.257   5.262  11.584 -0.3285 -1.0237  1.7878
 2058TIP3   OH227588   1.563   4.326   4.711  0.7556  0.2865  0.0563
 2058TIP3    H127589   1.576   4.372   4.794  0.9352 -0.8807  0.7071
 2058TIP3    H227590   1.622   4.251   4.717 -0.3961 -0.6920 -0.4367
 2059TIP3   OH227591   4.935   6.657   1.784 -0.2778 -0.8045 -0.2023
 2059TIP3    H127592   4.975   6.571   1.800 -0.5024 -0.7308  0.8799
 2059TIP3    H227593   4.973   6.686   1.701  1.5091 -0.9883  0.4941
 2060TIP3   OH227594   2.537   1.562   3.506 -0.1977  0.2027  0.3773
 2060TIP3    H127595   2.579   1.621   3.568  0.2582 -0.8162  1.0573
 2060TIP3    H227596   2.444   1.584   3.512 -0.2685 -0.4044  2.0385
 2061TIP3   OH227597   3.666   5.038  10.896  0.2012  0.2289  0.3979
 2061TIP3    H127598   3.690   4.964  10.951 -0.6550 -0.7772 -0.5505
 2061TIP3    H227599   3.685   5.009  10.807 -1.9478  0.3790 -0.1588
 2062TIP3   OH227600   0.304   4.331   2.382 -0.3701 -0.3452 -0.4880
 2062TIP3    H127601   0.316   4.354   2.474 -4.3702 -0.1807  0.1514
 2062TIP3    H227602   0.357   4.252   2.370 -0.4993 -0.9346  2.2527
 2063TIP3   OH227603   5.801   4.004   4.594  0.4367  0.3425 -0.1042
 2063TIP3    H127604   5.894   4.019   4.580  0.3759  1.9472  1.0015
 2063TIP3    H227605   5.774   4.072   4.656 -1.0610 -1.2500  1.1040
 2064TIP3   OH227606   5.485   3.963   0.237  0.1010 -0.7443  0.1312
 2064TIP3    H127607   5.464   3.883   0.285 -0.0113 -0.1655  1.0827
 2064TIP3    H227608   5.402   4.011   0.233 -0.2455 -1.4452 -1.9828
 2065TIP3   OH227609   3.781   6.586  12.656  0.9418 -0.7933 -0.0259
 2065TIP3    H127610   3.694   6.560  12.625 -0.9611  4.9237 -0.5719
 2065TIP3    H227611   3.787   6.549  12.744 -0.2435 -4.3691 -1.2448
 2066TIP3   OH227612   1.031   4.946   4.017  0.1105 -0.0113  0.0599
 2066TIP3    H127613   1.105   4.990   3.976  1.0668  0.7082  2.4177
 2066TIP3    H227614   1.069   4.895   4.088 -1.5428 -0.5376  0.6217
 2067TIP3   OH227615   2.257   3.948   1.171 -0.5472  0.0222  0.3350
 2067TIP3    H127616   2.272   3.984   1.259  0.5236 -0.6749  0.4591
 2067TIP3    H227617   2.330   3.984   1.119 -1.1744  0.4291 -0.2735
 2068TIP3   OH227618   2.390   6.239  15.242  0.6303  0.3592  0.3238
 2068TIP3    H127619   2.379   6.242  15.147  2.7951 -1.5204 -0.0994
 2068TIP3    H227620   2.414   6.328  15.267 -0.7305  1.0615 -0.7274
 2069TIP3   OH227621   4.502   1.260   3.999 -0.2164  0.1882  0.0574
 2069TIP3    H127622   4.434   1.326   3.987  0.0415  0.5749  0.6484
 2069TIP3    H227623   4.573   1.307   4.043 -0.3828 -0.6646  1.3115
 2070TIP3   OH227624   4.101   3.235   4.560  0.1421  0.0386 -0.0225
 2070TIP3    H127625   4.053   3.205   4.483 -0.4733 -1.0192  0.7451
 2070TIP3    H227626   4.073   3.326   4.572  0.3292  0.2472 -1.1041
 2071TIP3   OH227627   1.232   6.398  13.112 -0.1839 -0.3110 -0.0270
 2071TIP3    H127628   1.201   6.447  13.188 -2.1802 -0.9659 -0.3748
 2071TIP3    H227629   1.189   6.439  13.037  1.8164  0.3777 -0.8659
 2072TIP3   OH227630   0.317   3.404   0.058 -0.4283  0.9957  0.0035
 2072TIP3    H127631   0.313   3.309   0.065 -1.2957  0.9567 -0.7936
 2072TIP3    H227632   0.406   3.427   0.085  0.1907 -0.1607 -0.9627
 2073TIP3   OH227633   0.605   2.587  12.487 -0.2931 -0.1769  0.0231
 2073TIP3    H127634   0.541   2.584  12.558 -1.0358  1.1192 -0.5411
 2073TIP3    H227635   0.554   2.570  12.408  0.3865 -0.8384 -0.2887
 2074TIP3   OH227636   0.054   0.560   3.910  0.1326  0.0226 -0.4490
 2074TIP3    H127637   0.010   0.512   3.840 -0.3638 -1.4924  0.8585
 2074TIP3    H227638   0.118   0.616   3.864 -0.3215 -0.7575 -2.1076
 2075TIP3   OH227639   0.622   0.166   3.120 -0.4029  0.4519  0.4584
 2075TIP3    H127640   0.576   0.223   3.183 -1.1720  0.2340  0.1135
 2075TIP3    H227641   0.675   0.108   3.174  1.0194  1.9864  0.7973
 2076TIP3   OH227642   6.438   1.783  11.026 -0.2569 -0.6965  0.5399
 2076TIP3    H127643   6.519   1.764  11.072  0.3320 -2.0413 -0.9720
 2076TIP3    H227644   6.461   1.852  10.964 -1.0306  1.0610  2.0971
 2077TIP3   OH227645   1.710   6.678  16.811  0.1687 -0.1519 -0.0656
 2077TIP3    H127646   1.776   6.684  16.741 -0.6410  0.9330 -0.7641
 2077TIP3    H227647   1.651   6.609  16.782  1.8701 -2.3975  1.3896
 2078TIP3   OH227648   4.195   1.918  13.221  0.1984 -0.2452 -0.2139
 2078TIP3    H127649   4.216   2.011  13.216  1.7549 -0.6194 -1.0945
 2078TIP3    H227650   4.177   1.893  13.131 -2.9592 -0.2560  0.3071
 2079TIP3   OH227651   2.184   4.634  10.427  0.3733 -0.6328  0.8461
 2079TIP3    H127652   2.260   4.680  10.392  0.2483 -1.7706 -1.0289
 2079TIP3    H227653   2.217   4.549  10.454 -0.2033 -1.1624 -0.0457
 2080TIP3   OH227654   1.473   5.012  13.096 -0.6779 -0.3040 -0.1901
 2080TIP3    H127655   1.567   5.006  13.079 -0.8041 -0.4039 -0.9067
 2080TIP3    H227656   1.444   4.921  13.102 -0.6697 -0.2690  0.3760
 2081TIP3   OH227657   3.908   3.206  13.010 -0.3859  0.6657  0.1006
 2081TIP3    H127658   3.971   3.275  13.029 -1.0945  1.6525 -0.9971
 2081TIP3    H227659   3.823   3.249  13.018 -0.8417 -0.1146 -0.4602
 2082TIP3   OH227660   1.545   3.971  12.396 -0.0159 -0.4238 -0.0102
 2082TIP3    H127661   1.455   3.957  12.427  0.1746 -0.2010  0.6432
 2082TIP3    H227662   1.560   3.899  12.335  0.5010 -2.4696  2.3599
 2083TIP3   OH227663   4.427   5.916  14.899  0.7969 -0.2444 -0.0225
 2083TIP3    H127664   4.426   5.989  14.838 -0.0244 -0.2627 -0.0487
 2083TIP3    H227665   4.337   5.882  14.897 -0.0494  1.3902  3.1424
 2084TIP3   OH227666   5.667   3.108  14.776 -0.6831  0.4124  0.0692
 2084TIP3    H127667   5.724   3.173  14.818 -0.5929  1.0221 -0.9486
 2084TIP3    H227668   5.647   3.045  14.845  1.9806 -0.3475  0.2819
 2085TIP3   OH227669   6.540   5.148   1.890  0.6166 -0.3873 -0.1467
 2085TIP3    H127670   6.532   5.071   1.946  0.8282 -2.2291 -2.4913
 2085TIP3    H227671   6.630   5.179   1.905  0.4620 -0.4261  0.9666
 2086TIP3   OH227672   1.429   1.747  14.417 -0.3609 -0.4669  0.3916
 2086TIP3    H127673   1.467   1.834  14.408 -0.2936 -0.3506  1.6712
 2086TIP3    H227674   1.482   1.692  14.359 -1.3366  0.5834 -1.6043
 2087TIP3   OH227675   6.772   2.250   2.296  0.1436 -0.1408  0.5390
 2087TIP3    H127676   6.821   2.234   2.216 -0.4065 -2.8953  0.6593
 2087TIP3    H227677   6.839   2.267   2.362  0.8385 -1.3377  0.1787
 2088TIP3   OH227678   2.979   0.259   3.139  0.8548 -0.3195  0.2247
 2088TIP3    H127679   3.008   0.348   3.159  1.4925 -0.8112  1.6862
 2088TIP3    H227680   2.916   0.239   3.208 -2.1024  0.2345 -2.1228
 2089TIP3   OH227681   5.083   3.134  16.190 -0.3139  0.1050  0.3616
 2089TIP3    H127682   5.068   3.039  16.183  0.0100  0.1173 -0.6131
 2089TIP3    H227683   5.144   3.143  16.263 -0.7427 -0.3946  0.7893
 2090TIP3   OH227684   6.782   5.500  14.691  0.2166  0.3085 -0.0748
 2090TIP3    H127685   6.810   5.409  14.701  1.1898  0.5980 -0.0272
 2090TIP3    H227686   6.760   5.508  14.598  1.3985  0.3539 -0.3702
 2091TIP3   OH227687   4.751   4.786   1.640 -0.2788 -0.4641  0.3777
 2091TIP3    H127688   4.840   4.761   1.663  0.5957  2.0842  0.0885
 2091TIP3    H227689   4.709   4.805   1.725 -0.6464 -1.8868  0.5284
 2092TIP3   OH227690   2.555   5.326   3.526 -0.4277  0.2030 -0.0238
 2092TIP3    H127691   2.627   5.275   3.562  1.0920  2.2514  0.0008
 2092TIP3    H227692   2.478   5.295   3.572  0.4777 -1.7737  0.2477
 2093TIP3   OH227693   0.907   5.494   5.344 -0.4725 -0.5289 -0.2037
 2093TIP3    H127694   0.978   5.521   5.403 -1.5947 -0.4438  1.1747
 2093TIP3    H227695   0.831   5.486   5.402 -1.8336  0.3598 -1.8008
 2094TIP3   OH227696   4.357   2.764   4.209 -0.2903  0.4433 -0.5369
 2094TIP3    H127697   4.432   2.814   4.242 -0.2910  0.6196 -0.8015
 2094TIP3    H227698   4.281   2.803   4.253 -0.2045  0.0962 -0.0712
 2095TIP3   OH227699   0.376   1.185   0.812  0.1132 -0.3513 -0.5469
 2095TIP3    H127700   0.357   1.204   0.904 -0.4267  0.6664 -0.8583
 2095TIP3    H227701   0.360   1.091   0.804 -1.9812 -0.0909 -0.0804
 2096TIP3   OH227702   0.253   4.980  16.000 -0.3874 -0.2038  0.1176
 2096TIP3    H127703   0.343   4.959  15.974 -0.6825  1.1528 -2.2658
 2096TIP3    H227704   0.208   4.895  16.001  0.2329 -0.5928 -1.6139
 2097TIP3   OH227705   2.667   1.357   5.178  0.7947  0.2111 -0.0560
 2097TIP3    H127706   2.666   1.326   5.087  3.4730 -0.7329  0.1465
 2097TIP3    H227707   2.656   1.277   5.231 -0.6835  0.7451  0.5189
 2098TIP3   OH227708   5.021   0.609   1.528  0.2792  0.2118  0.0420
 2098TIP3    H127709   4.982   0.626   1.442 -0.2321  0.0645  0.2410
 2098TIP3    H227710   5.097   0.666   1.531  0.9398 -0.5811 -0.9590
 2099TIP3   OH227711   4.771   1.943   3.248 -0.5011 -0.2407  0.5129
 2099TIP3    H127712   4.834   2.001   3.205 -0.2458  0.1564  1.3798
 2099TIP3    H227713   4.765   1.978   3.338 -1.0560 -0.9969  0.7789
 2100TIP3   OH227714   6.497   2.590  14.789 -0.1681 -0.9206 -0.7755
 2100TIP3    H127715   6.492   2.661  14.726  1.0022 -1.2079 -1.2328
 2100TIP3    H227716   6.407   2.558  14.798 -0.9319  1.3029  0.2989
 2101TIP3   OH227717   3.861   0.781   1.738 -0.1930 -0.0725  0.0697
 2101TIP3    H127718   3.862   0.752   1.829 -0.6206  0.2934  0.1967
 2101TIP3    H227719   3.951   0.805   1.719  0.2141 -1.5912 -0.0853
 2102TIP3   OH227720   3.782   5.434   4.958 -0.3936  0.1401  0.4855
 2102TIP3    H127721   3.795   5.386   4.876  0.9644  0.5653  0.4277
 2102TIP3    H227722   3.735   5.373   5.015 -0.1160 -0.6661 -0.1403
 2103TIP3   OH227723   6.139   4.246  15.241  0.0589 -0.4332 -0.8052
 2103TIP3    H127724   6.217   4.192  15.250 -0.1877 -0.6104  0.5587
 2103TIP3    H227725   6.117   4.242  15.148  1.8686 -0.0661 -1.2782
 2104TIP3   OH227726   4.453   5.033  15.112 -0.2760  0.1993 -0.1361
 2104TIP3    H127727   4.455   5.127  15.133  0.4883  0.1894 -0.1391
 2104TIP3    H227728   4.432   4.990  15.195 -1.1762  0.3945 -0.2456
 2105TIP3   OH227729   5.056   3.975   4.918  0.4105  0.5828  0.3526
 2105TIP3    H127730   5.068   4.067   4.894 -0.9184  1.3731  2.4778
 2105TIP3    H227731   5.133   3.954   4.971 -0.2792  1.1420  1.6141
 2106TIP3   OH227732   1.524   3.933   1.431 -0.4569  0.2073 -0.0152
 2106TIP3    H127733   1.458   3.998   1.453  0.9546  1.8780 -0.4473
 2106TIP3    H227734   1.607   3.981   1.436  0.5544 -1.3016 -1.3905
 2107TIP3   OH227735   5.577   5.853   2.826 -0.1576 -0.0013  0.1586
 2107TIP3    H127736   5.567   5.929   2.770  0.1235 -0.3336 -0.3479
 2107TIP3    H227737   5.494   5.847   2.874  0.6101  1.9348  1.8823
 2108TIP3   OH227738   1.669   0.295   1.516 -0.7192  0.3392 -0.3089
 2108TIP3    H127739   1.709   0.380   1.538  1.8528 -0.6604 -0.8328
 2108TIP3    H227740   1.589   0.318   1.469  0.0138  2.4711 -0.6221
 2109TIP3   OH227741   3.884   3.368  13.348 -0.3859  0.3145  0.3542
 2109TIP3    H127742   3.842   3.454  13.344  2.0845  1.5763 -0.4781
 2109TIP3    H227743   3.923   3.364  13.435 -1.4918 -0.5135  0.8338
 2110TIP3   OH227744   2.646   2.902  15.240 -0.1108 -0.2941  0.2778
 2110TIP3    H127745   2.612   2.947  15.318 -0.0141 -0.4125  0.3884
 2110TIP3    H227746   2.643   2.969  15.172 -0.2584 -0.2078  0.3655
 2111TIP3   OH227747   5.599   2.490  10.543  0.4670  0.2239 -0.0365
 2111TIP3    H127748   5.665   2.528  10.601 -0.2029  0.1863  0.7668
 2111TIP3    H227749   5.566   2.564  10.492 -1.8997  1.1203  2.5497
 2112TIP3   OH227750   0.714   1.711   0.801  0.2736 -0.0111  0.4964
 2112TIP3    H127751   0.721   1.795   0.756 -0.4644 -0.7979 -1.1995
 2112TIP3    H227752   0.797   1.667   0.781  1.4004  0.9274  2.8270
 2113TIP3   OH227753   2.139   4.409   3.370 -0.1297  0.0218  0.0847
 2113TIP3    H127754   2.169   4.494   3.402 -0.0691 -0.7598  2.3103
 2113TIP3    H227755   2.043   4.417   3.367 -0.0748  0.4784 -0.7422
 2114TIP3   OH227756   4.051   6.541  12.191  0.5257 -0.0758 -0.6735
 2114TIP3    H127757   4.032   6.451  12.162  1.7606 -1.0310  1.2456
 2114TIP3    H227758   4.025   6.542  12.283  0.7626  1.4758 -0.6016
 2115TIP3   OH227759   5.411   0.882  12.504  0.0144 -0.2548  0.5516
 2115TIP3    H127760   5.407   0.786  12.504 -2.2237 -0.2428  1.7254
 2115TIP3    H227761   5.408   0.907  12.412  0.2146 -1.3153  0.2504
 2116TIP3   OH227762   3.414   2.957   0.919  0.2078  0.1341 -0.1759
 2116TIP3    H127763   3.369   3.038   0.944 -1.4606 -0.7642 -0.1583
 2116TIP3    H227764   3.383   2.940   0.830 -0.8206 -1.3821  0.4409
 2117TIP3   OH227765   3.800   3.121   1.329 -0.4443 -0.4489 -0.2701
 2117TIP3    H127766   3.814   3.064   1.253 -1.5712 -4.2498  2.1246
 2117TIP3    H227767   3.887   3.132   1.367 -0.2779 -0.9007 -0.5193
 2118TIP3   OH227768   2.568   0.813  14.945  0.3913  0.2237  0.3108
 2118TIP3    H127769   2.589   0.846  15.032  1.5968 -0.5051  0.3295
 2118TIP3    H227770   2.477   0.785  14.950  0.0958  1.2711  0.9836
 2119TIP3   OH227771   0.731   0.756   4.314  0.0093  0.1992 -0.8013
 2119TIP3    H127772   0.704   0.848   4.310  1.0525  0.4609 -2.3844
 2119TIP3    H227773   0.705   0.728   4.402  0.0200  2.1133 -0.1419
 2120TIP3   OH227774   4.417   0.412   5.332 -0.1612  0.0123 -0.0163
 2120TIP3    H127775   4.349   0.402   5.399  0.2744 -0.2654  0.3934
 2120TIP3    H227776   4.489   0.455   5.377  0.4719 -0.9649 -0.0594
 2121TIP3   OH227777   0.945   4.920  15.946  0.4365  0.5587 -0.2667
 2121TIP3    H127778   0.891   4.842  15.956  0.9902  0.1631 -0.3621
 2121TIP3    H227779   0.952   4.933  15.851  0.9216  0.3237 -0.2629
 2122TIP3   OH227780   4.516   4.975   2.490 -0.2549  0.5321  0.6491
 2122TIP3    H127781   4.525   5.025   2.571  0.7016  1.5302 -0.0263
 2122TIP3    H227782   4.428   4.940   2.492 -0.7045  1.6545  1.5174
 2123TIP3   OH227783   0.503   4.922  15.367  0.1311  0.0882  0.1879
 2123TIP3    H127784   0.474   4.976  15.441 -0.1045 -1.4056  1.2339
 2123TIP3    H227785   0.427   4.867  15.347  1.4053 -2.3240  1.5040
 2124TIP3   OH227786   2.901   5.590  12.068  0.3828  0.3223  0.0278
 2124TIP3    H127787   2.914   5.497  12.087  1.2088  0.4321  0.0260
 2124TIP3    H227788   2.891   5.594  11.973  2.6097  0.4666 -0.2432
 2125TIP3   OH227789   1.078   3.483  13.246 -0.0869 -0.0608  0.3589
 2125TIP3    H127790   1.015   3.471  13.174  1.1482  0.0562 -0.7693
 2125TIP3    H227791   1.109   3.573  13.235  1.1804 -0.5158  0.1590
 2126TIP3   OH227792   4.873   2.297   6.619  0.1770  0.3314 -0.0050
 2126TIP3    H127793   4.788   2.337   6.637  0.3254  0.2690  0.9120
 2126TIP3    H227794   4.910   2.349   6.548  0.1575  1.5242  0.8379
 2127TIP3   OH227795   3.465   3.773   3.226  0.5127  0.3844  0.3889
 2127TIP3    H127796   3.526   3.819   3.284  0.7464 -1.3487  1.6007
 2127TIP3    H227797   3.520   3.731   3.161  0.3696  1.0228 -0.1581
 2128TIP3   OH227798   0.414   5.486  16.385  0.0644 -0.5089 -0.3819
 2128TIP3    H127799   0.350   5.555  16.404  1.1197  0.7598 -1.2831
 2128TIP3    H227800   0.380   5.443  16.307  0.3760  0.2757 -0.9593
 2129TIP3   OH227801   4.054   4.994   0.214  0.2084 -0.9509 -0.3512
 2129TIP3    H127802   4.082   4.951   0.295 -0.1631  1.2244  1.0033
 2129TIP3    H227803   4.112   5.070   0.205  0.1131 -1.0253 -2.0491
 2130TIP3   OH227804   6.049   5.405   2.134  0.0793  0.5333 -0.0012
 2130TIP3    H127805   6.126   5.426   2.186 -0.6704  0.3698  1.2194
 2130TIP3    H227806   5.991   5.358   2.195 -1.5220  1.7689 -0.5126
 2131TIP3   OH227807   6.775   4.102   5.260 -0.0327 -0.6892  0.1691
 2131TIP3    H127808   6.709   4.034   5.270 -1.0948  0.2746  0.0172
 2131TIP3    H227809   6.837   4.087   5.331  0.0370 -2.0962 -0.1660
 2132TIP3   OH227810   0.222   1.810  12.491  0.2090  0.4281 -0.1179
 2132TIP3    H127811   0.297   1.868  12.503 -0.4730  0.9452  2.0647
 2132TIP3    H227812   0.187   1.834  12.405  0.7203  2.3786  0.1756
 2133TIP3   OH227813   2.289   4.804  12.934 -0.5126  0.3906 -0.6897
 2133TIP3    H127814   2.364   4.832  12.881  1.3011 -2.9132 -0.0874
 2133TIP3    H227815   2.220   4.787  12.870  0.8915 -1.2992 -1.8351
 2134TIP3   OH227816   5.225   4.072   3.663 -0.0424 -0.3488  0.0064
 2134TIP3    H127817   5.221   4.132   3.589 -0.0897 -1.1672 -0.6660
 2134TIP3    H227818   5.136   4.074   3.700 -1.2760 -2.9634 -2.4449
 2135TIP3   OH227819   1.158   3.856  12.744  0.1821 -0.3823 -0.1588
 2135TIP3    H127820   1.069   3.890  12.753  0.9669  3.0471 -3.1085
 2135TIP3    H227821   1.205   3.893  12.819  0.3457  3.1399 -1.7996
 2136TIP3   OH227822   3.659   0.666  14.114 -0.1112 -0.3187 -0.4597
 2136TIP3    H127823   3.599   0.623  14.054 -0.2080 -1.2434  0.2798
 2136TIP3    H227824   3.672   0.754  14.077 -1.2413 -0.4026 -1.0785
 2137TIP3   OH227825   4.959   5.779  13.910 -0.6136  0.1007 -0.0767
 2137TIP3    H127826   4.868   5.806  13.899 -0.6523  0.0533  0.1309
 2137TIP3    H227827   4.985   5.813  13.995 -0.8216 -0.9407  0.4249
 2138TIP3   OH227828   4.392   4.064   1.922 -0.0303 -0.6108 -0.0454
 2138TIP3    H127829   4.346   4.118   1.857  1.2395  0.5242 -0.0417
 2138TIP3    H227830   4.345   4.080   2.004 -0.3404 -0.3898 -0.2620
 2139TIP3   OH227831   3.920   4.087  12.431 -0.7700  0.0945 -0.0689
 2139TIP3    H127832   3.930   4.142  12.509  0.2440 -1.1355  0.7102
 2139TIP3    H227833   3.848   4.127  12.383  0.2158  2.3955  0.2146
 2140TIP3   OH227834   6.134   4.497  13.338  0.1838  0.8522 -0.0777
 2140TIP3    H127835   6.121   4.548  13.418 -0.3621 -0.3705  0.6440
 2140TIP3    H227836   6.193   4.426  13.364 -1.4940 -0.6646 -0.2342
 2141TIP3   OH227837   4.317   2.869   5.695  0.1144 -0.2295  0.5948
 2141TIP3    H127838   4.249   2.813   5.731  0.6219  0.1202  2.1732
 2141TIP3    H227839   4.332   2.835   5.607 -3.5750  0.9802 -0.7037
 2142TIP3   OH227840   6.431   3.820  12.055 -0.6498 -0.2177 -0.0989
 2142TIP3    H127841   6.364   3.861  12.110 -0.2911  0.0994  0.1059
 2142TIP3    H227842   6.506   3.807  12.113 -0.0211  0.7395 -0.6641
 2143TIP3   OH227843   5.231   1.222   1.685 -0.0981  0.1203 -0.3807
 2143TIP3    H127844   5.191   1.308   1.700 -0.1954  0.2551 -1.3562
 2143TIP3    H227845   5.254   1.191   1.772  3.3339  2.7534 -0.1302
 2144TIP3   OH227846   5.553   6.408  15.043  0.0431 -0.3128  0.2223
 2144TIP3    H127847   5.479   6.349  15.056  0.7382 -0.8844  1.9470
 2144TIP3    H227848   5.515   6.495  15.049 -0.5258 -0.5957  0.9638
 2145TIP3   OH227849   0.729   0.860  12.718  0.0405  0.4552  0.3909
 2145TIP3    H127850   0.744   0.765  12.723  0.1943  0.4998  0.8980
 2145TIP3    H227851   0.779   0.889  12.643  1.8655  0.4752  1.5571
 2146TIP3   OH227852   0.979   0.710  13.466 -0.8936 -0.2930  0.2074
 2146TIP3    H127853   0.992   0.783  13.405  2.3030 -0.5678  0.3711
 2146TIP3    H227854   0.998   0.632  13.414 -1.9179 -0.8519  0.6431
 2147TIP3   OH227855   5.094   1.496   4.302 -0.3406  0.0738  0.4349
 2147TIP3    H127856   5.108   1.448   4.220  0.0573  0.1531  0.4533
 2147TIP3    H227857   5.182   1.509   4.337 -0.5779 -1.3883  1.7142
 2148TIP3   OH227858   5.811   3.714  13.077  0.7157  0.0593  0.1754
 2148TIP3    H127859   5.798   3.663  12.998  1.6580 -1.7275  1.1186
 2148TIP3    H227860   5.906   3.717  13.089  0.6666  1.7053  0.3807
 2149TIP3   OH227861   4.768   2.726   2.454 -0.3685 -0.1456 -0.6637
 2149TIP3    H127862   4.808   2.804   2.416 -2.3916  0.3914 -1.8499
 2149TIP3    H227863   4.674   2.738   2.440 -0.7877 -2.4993 -0.2890
 2150TIP3   OH227864   5.740   5.593   6.425 -0.0590  0.4633 -0.1058
 2150TIP3    H127865   5.746   5.679   6.467 -0.6480  0.7432 -0.5942
 2150TIP3    H227866   5.820   5.548   6.453  0.9821  1.6861 -1.0036
 2151TIP3   OH227867   4.887   4.770  14.603  0.1100 -0.0377  0.1940
 2151TIP3    H127868   4.877   4.863  14.582  2.5143 -0.0592 -1.3867
 2151TIP3    H227869   4.970   4.765  14.650 -0.3043 -1.3319  0.8306
 2152TIP3   OH227870   0.672   4.787  13.445 -0.1135 -0.1925  0.6952
 2152TIP3    H127871   0.726   4.842  13.502  1.1897 -1.0540  0.3328
 2152TIP3    H227872   0.638   4.848  13.379  1.5187  0.1911  0.1483
 2153TIP3   OH227873   0.227   0.680  16.633 -0.0272 -0.0428  0.2976
 2153TIP3    H127874   0.209   0.606  16.691  0.1782  0.0540  0.4889
 2153TIP3    H227875   0.321   0.676  16.617 -0.1199 -0.2097 -0.2279
 2154TIP3   OH227876   0.257   1.640   0.982  0.0015  0.3194  0.0887
 2154TIP3    H127877   0.305   1.709   0.936  0.9104  0.9830  1.9572
 2154TIP3    H227878   0.315   1.613   1.053  0.0777 -3.0506 -1.0836
 2155TIP3   OH227879   3.239   4.352   0.156 -0.3979  1.0684  0.1398
 2155TIP3    H127880   3.261   4.275   0.103 -0.8899  1.1578 -0.2002
 2155TIP3    H227881   3.161   4.388   0.114  0.5595  2.5143 -0.4877
 2156TIP3   OH227882   6.368   3.390   3.499 -0.0262 -0.1287  0.3363
 2156TIP3    H127883   6.428   3.330   3.456  0.1702  0.3129 -0.0064
 2156TIP3    H227884   6.416   3.473   3.504 -0.0155 -0.1819  1.4615
 2157TIP3   OH227885   2.797   0.004  16.668  0.2360  0.0962  0.1842
 2157TIP3    H127886   2.728   0.011  16.602 -0.1726  1.5331  0.7319
 2157TIP3    H227887   2.873  -0.028  16.619  0.7097  3.5356 -1.6417
 2158TIP3   OH227888   5.894   5.868   4.524  0.1767 -0.3194 -0.0336
 2158TIP3    H127889   5.919   5.854   4.433  0.9997  0.7198  0.0189
 2158TIP3    H227890   5.850   5.787   4.549 -0.8062 -0.3060 -1.5893
 2159TIP3   OH227891   6.059   3.220  15.977 -0.2066  0.4614 -0.0672
 2159TIP3    H127892   6.073   3.195  15.886 -0.3870 -1.5559  0.4173
 2159TIP3    H227893   5.972   3.185  15.998  0.2705 -0.0261  1.1734
 2160TIP3   OH227894   5.859   0.439   5.622  0.6072  0.1589  0.0423
 2160TIP3    H127895   5.951   0.448   5.597  0.5646 -1.1067 -0.6916
 2160TIP3    H227896   5.856   0.357   5.672 -0.1815 -0.0272 -0.2955
 2161TIP3   OH227897   1.577   0.792  12.062 -0.2170 -0.3812 -0.0456
 2161TIP3    H127898   1.644   0.739  12.019  1.6838  0.2511  1.9440
 2161TIP3    H227899   1.496   0.743  12.050  1.2900 -3.3632  1.0203
 2162TIP3   OH227900   2.532   5.700   5.495  0.5093  0.2613  0.0132
 2162TIP3    H127901   2.528   5.615   5.452 -1.9244  0.3134  0.0028
 2162TIP3    H227902   2.562   5.680   5.584  0.6444 -0.5103 -0.1981
 2163TIP3   OH227903   0.912   5.749   2.766 -0.0694 -0.2117  0.0463
 2163TIP3    H127904   0.897   5.741   2.672  1.1908 -1.9023 -0.0549
 2163TIP3    H227905   0.849   5.689   2.805 -1.3659  1.3197  0.3968
 2164TIP3   OH227906   3.725   3.062  13.232  0.0795  0.0146  0.1258
 2164TIP3    H127907   3.712   3.157  13.226  2.0755  0.3131  0.0941
 2164TIP3    H227908   3.818   3.049  13.217  0.3460 -1.7391  2.6494
 2165TIP3   OH227909   2.337   3.636   1.175 -0.4635 -0.3530 -0.0755
 2165TIP3    H127910   2.310   3.582   1.101 -0.7035 -0.2914 -0.0347
 2165TIP3    H227911   2.296   3.721   1.159 -0.6740 -0.3979  0.2259
 2166TIP3   OH227912   2.617   1.717  15.208  0.2521  0.1263 -0.1293
 2166TIP3    H127913   2.610   1.751  15.119  1.7074  0.9341  0.0173
 2166TIP3    H227914   2.536   1.744  15.251 -0.7755 -0.8762 -1.3821
 2167TIP3   OH227915   4.314   3.884  16.499  0.5735 -0.0832  0.2040
 2167TIP3    H127916   4.226   3.884  16.537  0.9444 -0.8557  1.0974
 2167TIP3    H227917   4.370   3.920  16.568  0.8897  0.9923 -0.5838
 2168TIP3   OH227918   1.170   3.448  16.252 -0.2389 -0.4910  0.2261
 2168TIP3    H127919   1.160   3.542  16.235  0.2954 -0.2618  1.1413
 2168TIP3    H227920   1.081   3.417  16.265 -0.5247 -0.3389 -1.1549
 2169TIP3   OH227921   4.175   3.157  15.392  0.0364 -0.1524  0.1743
 2169TIP3    H127922   4.092   3.176  15.348 -0.2049  0.7772  0.9980
 2169TIP3    H227923   4.233   3.228  15.366  1.1652 -1.7126 -1.7991
 2170TIP3   OH227924   0.336   1.174  10.950 -0.5879 -0.1905 -0.1103
 2170TIP3    H127925   0.294   1.096  10.986  0.5530 -2.7714 -3.7637
 2170TIP3    H227926   0.429   1.154  10.950 -0.1831  1.4707 -0.5710
 2171TIP3   OH227927   1.751   2.904   2.249 -0.1944 -0.2785 -0.0036
 2171TIP3    H127928   1.721   2.848   2.320  0.5764 -0.3981  0.2364
 2171TIP3    H227929   1.706   2.871   2.171 -1.1451 -0.0661  0.4413
 2172TIP3   OH227930   1.080   0.438   4.948  0.2830  0.0596 -0.1122
 2172TIP3    H127931   1.040   0.475   4.869  0.7949 -0.3771 -0.5859
 2172TIP3    H227932   1.006   0.418   5.005 -0.1922 -0.8948 -1.0453
 2173TIP3   OH227933   4.242   3.409   5.209  0.1207 -0.5986  0.8643
 2173TIP3    H127934   4.319   3.394   5.264  0.2100 -2.3921  0.2912
 2173TIP3    H227935   4.251   3.347   5.137 -1.6838 -0.5895  0.5814
 2174TIP3   OH227936   5.030   1.345   2.581  0.1907  0.5327  0.2466
 2174TIP3    H127937   5.043   1.363   2.674  0.0677  0.8388  0.2051
 2174TIP3    H227938   4.937   1.362   2.566  0.1467  0.2068  0.1280
 2175TIP3   OH227939   1.009   5.131  14.818  0.3882  0.1041 -0.6813
 2175TIP3    H127940   0.954   5.066  14.862  1.9380 -0.8023  0.0256
 2175TIP3    H227941   0.947   5.196  14.785 -0.9847  0.2734  1.9091
 2176TIP3   OH227942   0.881   3.256   1.331  0.3966 -0.0286  0.2771
 2176TIP3    H127943   0.813   3.264   1.398  0.4927 -0.2005  0.3959
 2176TIP3    H227944   0.858   3.321   1.265 -0.8126 -1.2024 -0.5091
 2177TIP3   OH227945   0.178   2.439  15.808 -0.3828  0.2209 -1.0513
 2177TIP3    H127946   0.105   2.393  15.850 -1.6543  1.4959 -1.7559
 2177TIP3    H227947   0.210   2.378  15.742  0.1473 -0.9071  0.1948
 2178TIP3   OH227948   0.397   4.690   4.559 -0.5669  0.0709  0.5308
 2178TIP3    H127949   0.358   4.740   4.630 -1.5233  0.8685 -0.5060
 2178TIP3    H227950   0.374   4.599   4.578 -0.3850  0.2146  1.4828
 2179TIP3   OH227951   5.667   2.563   1.113 -0.0819  0.3093 -0.6106
 2179TIP3    H127952   5.594   2.555   1.052 -1.8425  2.8385  0.9648
 2179TIP3    H227953   5.643   2.507   1.187 -1.0239  1.9209  0.3579
 2180TIP3   OH227954   4.752   2.708   0.446 -0.3283  0.1366 -0.4828
 2180TIP3    H127955   4.711   2.623   0.428 -1.2349  0.5249 -0.3028
 2180TIP3    H227956   4.683   2.772   0.428  0.3450  0.8423 -0.6070
 2181TIP3   OH227957   6.077   0.251   1.440  0.2072 -0.0549  0.6884
 2181TIP3    H127958   5.995   0.202   1.435 -1.1729  2.2654 -2.1146
 2181TIP3    H227959   6.055   0.339   1.409  3.4382  1.1389  1.3664
 2182TIP3   OH227960   4.389   2.543  13.091  0.8791 -0.1755  0.0987
 2182TIP3    H127961   4.431   2.628  13.080  1.9707 -0.5482  1.1447
 2182TIP3    H227962   4.362   2.541  13.183  0.9847 -1.0020  0.1249
 2183TIP3   OH227963   5.055   1.647   2.330  0.5510 -0.3713  0.3678
 2183TIP3    H127964   5.130   1.654   2.388 -0.3253 -0.9666  1.6117
 2183TIP3    H227965   5.039   1.553   2.322  0.9851 -0.3314 -1.3022
 2184TIP3   OH227966   3.605   0.396   3.874 -0.0824 -0.4764 -0.2449
 2184TIP3    H127967   3.525   0.345   3.886 -0.4898  0.1950 -0.0460
 2184TIP3    H227968   3.636   0.414   3.963 -1.6020  2.1657 -0.1533
 2185TIP3   OH227969   0.737   6.504   0.856  0.0076  0.3876  0.0106
 2185TIP3    H127970   0.779   6.418   0.868 -1.4661 -0.2751  0.7287
 2185TIP3    H227971   0.809   6.566   0.857  1.0253 -0.7505  0.6487
 2186TIP3   OH227972   2.536   3.025  10.779 -0.4576 -0.0771  0.3314
 2186TIP3    H127973   2.612   3.056  10.729 -1.1389  0.5919 -0.3064
 2186TIP3    H227974   2.574   2.983  10.857  0.7760 -3.0534 -1.6839
 2187TIP3   OH227975   0.507   2.730   1.513  0.3555 -0.0950  0.1530
 2187TIP3    H127976   0.433   2.714   1.571  1.0486 -0.1380  1.0413
 2187TIP3    H227977   0.486   2.813   1.470  0.7106  0.9729  1.9201
 2188TIP3   OH227978   0.696   4.226  14.611 -0.1041 -0.8186 -0.1138
 2188TIP3    H127979   0.627   4.257  14.553  0.3178 -0.8365 -0.6252
 2188TIP3    H227980   0.767   4.200  14.553  0.4379 -0.5585  0.4166
 2189TIP3   OH227981   6.232   3.077  12.914  0.2856  0.3529 -0.4440
 2189TIP3    H127982   6.264   3.027  12.989 -0.8726  0.3472  0.0612
 2189TIP3    H227983   6.146   3.039  12.894 -0.3033  1.6624 -0.4891
 2190TIP3   OH227984   6.467   2.321  15.482  0.0271  0.2338 -0.3185
 2190TIP3    H127985   6.523   2.255  15.522 -0.2161 -0.4069 -1.0058
 2190TIP3    H227986   6.505   2.404  15.508  0.3512 -0.1694  0.5489
 2191TIP3   OH227987   2.579   0.432  14.392 -0.2460  0.1706  0.0164
 2191TIP3    H127988   2.543   0.432  14.303  1.7174  2.3715 -0.8808
 2191TIP3    H227989   2.577   0.523  14.419 -0.9312 -0.4793  2.3492
 2192TIP3   OH227990   6.623   5.184  13.058 -0.1023 -0.8054 -0.0840
 2192TIP3    H127991   6.531   5.184  13.030 -0.1277 -0.8827 -0.0010
 2192TIP3    H227992   6.673   5.196  12.977 -0.2073 -0.2022 -0.0609
 2193TIP3   OH227993   0.911   2.454  14.192 -0.4798  0.0900 -0.5726
 2193TIP3    H127994   0.884   2.372  14.233  0.6848 -0.2526 -0.4664
 2193TIP3    H227995   0.954   2.428  14.111  3.4871  0.2179  1.2703
 2194TIP3   OH227996   0.983   1.807   5.266  0.8053  0.5895  0.7665
 2194TIP3    H127997   0.969   1.848   5.351  1.8588 -1.2149  1.8895
 2194TIP3    H227998   0.895   1.798   5.228  0.3471  1.6086  1.5568
 2195TIP3   OH227999   1.867   3.676   4.257  0.0760 -0.7387  0.0539
 2195TIP3    H128000   1.806   3.613   4.218 -0.1306 -1.0050  0.7987
 2195TIP3    H228001   1.932   3.622   4.303  0.9789 -0.4633 -0.8653
 2196TIP3   OH228002   2.231   4.211  16.940  0.0752  0.1444  0.0816
 2196TIP3    H128003   2.198   4.133  16.896 -0.7329  0.7407 -0.3764
 2196TIP3    H228004   2.326   4.199  16.941  0.0109 -0.4837 -0.6719
 2197TIP3   OH228005   3.017   0.888   1.753 -0.0897 -0.0276  0.0835
 2197TIP3    H128006   3.001   0.976   1.787 -0.3723 -0.4945  1.2030
 2197TIP3    H228007   3.112   0.880   1.752 -0.0719 -0.1041  1.0795
 2198TIP3   OH228008   5.712   5.365   2.115  0.1880 -0.4508  0.1311
 2198TIP3    H128009   5.628   5.384   2.156  0.7555 -0.8414  1.5101
 2198TIP3    H228010   5.738   5.280   2.151  0.2274 -1.3435 -1.8389
 2199TIP3   OH228011   1.312   3.053   5.302  0.0588  0.5240  0.7149
 2199TIP3    H128012   1.255   2.995   5.251 -0.8435  2.7282 -0.9678
 2199TIP3    H228013   1.268   3.063   5.386  0.0312 -0.8864  0.8830
 2200TIP3   OH228014   4.692   2.006   1.520  0.0210  0.0631 -0.3214
 2200TIP3    H128015   4.741   1.939   1.472  0.9967  1.1435 -0.8988
 2200TIP3    H228016   4.664   2.067   1.452  0.9526  1.3301  0.4031
 2201TIP3   OH228017   2.578   5.206   0.065  0.7589 -0.2786 -0.1402
 2201TIP3    H128018   2.512   5.145   0.033  0.7600 -0.4416  0.1630
 2201TIP3    H228019   2.655   5.189   0.011  0.5338 -0.0401 -0.5404
 2202TIP3   OH228020   3.538   3.743  12.128  0.3008 -0.1380  0.1594
 2202TIP3    H128021   3.582   3.803  12.069 -0.2580  1.0874  0.9369
 2202TIP3    H228022   3.446   3.747  12.102  0.2865 -0.8420  0.0760
 2203TIP3   OH228023   3.251   5.253   1.598 -0.0882  0.1043  1.3425
 2203TIP3    H128024   3.263   5.249   1.503 -1.2444  1.8528  1.0768
 2203TIP3    H228025   3.332   5.291   1.632 -0.7374  2.1138  0.7255
 2204TIP3   OH228026   4.730   4.718  14.987 -0.3966 -0.9736  0.2078
 2204TIP3    H128027   4.748   4.794  15.043 -0.6171 -0.8771  0.1474
 2204TIP3    H228028   4.649   4.740  14.942 -1.3499 -1.9338  1.4016
 2205TIP3   OH228029   6.676   1.197   0.409 -0.2594  0.0991 -0.3375
 2205TIP3    H128030   6.659   1.291   0.418  1.9095  0.3613  1.9367
 2205TIP3    H228031   6.746   1.192   0.344  0.7092  0.2003  0.6890
 2206TIP3   OH228032   6.365   0.394  11.105 -0.6587 -0.3913 -0.7380
 2206TIP3    H128033   6.453   0.370  11.133 -0.7576 -0.2244 -0.2650
 2206TIP3    H228034   6.313   0.391  11.185 -0.5810  1.8506 -0.5268
 2207TIP3   OH228035   3.395   5.274  12.944 -1.1962 -0.3683 -0.0178
 2207TIP3    H128036   3.454   5.200  12.931  0.1538  1.0881 -3.4238
 2207TIP3    H228037   3.316   5.251  12.895 -0.1045  0.9689 -2.6184
 2208TIP3   OH228038   2.676   5.850  14.780  0.9559 -0.0881  0.2761
 2208TIP3    H128039   2.616   5.856  14.854 -0.0741 -2.2714 -0.2870
 2208TIP3    H228040   2.743   5.787  14.808  0.8545 -0.5346 -0.4455
 2209TIP3   OH228041   1.989   3.044  11.194 -0.0446 -0.2538 -0.1925
 2209TIP3    H128042   2.065   3.102  11.198 -0.8249  0.7418  0.6219
 2209TIP3    H228043   2.008   2.985  11.122  1.3025  0.2662 -0.2900
 2210TIP3   OH228044   1.918   5.583  11.759  0.9958  0.0508  0.0859
 2210TIP3    H128045   1.940   5.500  11.802  0.6112 -1.5353 -2.5101
 2210TIP3    H228046   1.966   5.580  11.676 -0.1634  1.7528 -0.7054
 2211TIP3   OH228047   5.282   5.751   4.634  0.2722  0.1756 -0.0378
 2211TIP3    H128048   5.363   5.725   4.678  0.3520  1.0765  0.3615
 2211TIP3    H228049   5.218   5.685   4.661  0.5150  0.2779  0.8292
 2212TIP3   OH228050   6.456   3.533   2.352  0.3432 -0.3136  0.2981
 2212TIP3    H128051   6.491   3.480   2.423 -1.1348 -0.6943  0.7652
 2212TIP3    H228052   6.369   3.559   2.381 -0.4121 -0.6869 -1.4716
 2213TIP3   OH228053   5.543   3.734   6.241  0.2824  0.2293  0.2972
 2213TIP3    H128054   5.560   3.645   6.209 -0.8065  0.4035 -0.8646
 2213TIP3    H228055   5.557   3.729   6.335  0.6772 -1.0664  0.1924
 2214TIP3   OH228056   5.507   4.316   4.127  0.2302  0.0803 -0.2408
 2214TIP3    H128057   5.505   4.403   4.167  3.2735  0.2311 -0.2206
 2214TIP3    H228058   5.493   4.256   4.201  1.3690  0.4837  0.3194
 2215TIP3   OH228059   2.945   6.547   3.855 -0.2170  0.2994 -0.4161
 2215TIP3    H128060   2.889   6.614   3.816 -1.0720 -0.3663 -0.3494
 2215TIP3    H228061   2.885   6.489   3.902  0.6965  0.5113  1.0488
 2216TIP3   OH228062   2.864   4.933  12.843  0.0128  0.3163  0.5440
 2216TIP3    H128063   2.791   4.902  12.897  0.1948  1.7716  1.7044
 2216TIP3    H228064   2.823   4.967  12.764 -0.3812 -0.7076  0.2983
 2217TIP3   OH228065   4.959   3.673  14.892 -0.0526 -0.1830 -0.0970
 2217TIP3    H128066   5.037   3.679  14.947 -0.4017  0.3184  0.3479
 2217TIP3    H228067   4.890   3.714  14.943 -0.5424 -0.3478 -0.6167
 2218TIP3   OH228068   5.312   2.765  11.551  0.0481  0.0123 -0.3609
 2218TIP3    H128069   5.318   2.860  11.545 -0.6743  0.0053 -1.7238
 2218TIP3    H228070   5.403   2.735  11.550  0.3890  0.7490  2.4714
 2219TIP3   OH228071   5.720   2.023  14.537  0.0507 -0.1879  0.2584
 2219TIP3    H128072   5.629   2.017  14.567  0.4854 -1.0792  1.5041
 2219TIP3    H228073   5.722   1.972  14.457 -0.6096  0.0820  0.0640
 2220TIP3   OH228074   0.301   6.156   2.851 -0.7367  0.3392 -0.2248
 2220TIP3    H128075   0.290   6.196   2.937  0.3702 -0.9794  0.5601
 2220TIP3    H228076   0.324   6.229   2.794 -0.6224  1.1017  0.7606
 2221TIP3   OH228077   2.849   1.073  16.180 -0.0959 -0.8050  0.3230
 2221TIP3    H128078   2.905   1.143  16.211  0.5093 -0.1811 -1.9905
 2221TIP3    H228079   2.854   1.006  16.248  0.0682  0.9630  2.1292
 2222TIP3   OH228080   2.883   6.440  11.549  0.1870 -0.5743 -1.0006
 2222TIP3    H128081   2.816   6.446  11.617  0.7279  0.3845 -0.5363
 2222TIP3    H228082   2.834   6.440  11.467 -0.3440  2.0114 -0.7553
 2223TIP3   OH228083   0.514   5.239   0.688 -0.0593 -0.0234  0.1635
 2223TIP3    H128084   0.564   5.158   0.698  1.5644  0.9839  0.6535
 2223TIP3    H228085   0.579   5.309   0.700 -1.3463  1.3586 -0.5473
 2224TIP3   OH228086   5.999   5.834  11.258 -0.4987 -0.0807 -0.2489
 2224TIP3    H128087   5.927   5.876  11.304  0.2644  0.9635  0.0279
 2224TIP3    H228088   5.967   5.822  11.169 -1.9521 -2.0232  0.4768
 2225TIP3   OH228089   5.176   0.006   1.298 -1.0828 -0.2475  0.0309
 2225TIP3    H128090   5.097  -0.012   1.249 -1.5627 -0.0687  0.7190
 2225TIP3    H228091   5.243  -0.049   1.258 -1.2417  0.5588 -1.3836
 2226TIP3   OH228092   1.095   6.049  16.327 -0.4423  0.0770 -0.4316
 2226TIP3    H128093   1.004   6.077  16.321 -1.1282 -1.8224  0.4323
 2226TIP3    H228094   1.139   6.119  16.374 -1.2825  1.3292 -1.4440
 2227TIP3   OH228095   6.718   0.474   3.733 -0.0894  0.5034  0.4949
 2227TIP3    H128096   6.778   0.440   3.667  1.1545  0.2314  1.7207
 2227TIP3    H228097   6.672   0.546   3.689  1.2330  0.8069 -0.4489
 2228TIP3   OH228098   0.066   4.291  14.767 -0.1734  0.4226  0.3337
 2228TIP3    H128099   0.109   4.306  14.683 -0.6729 -0.0941 -0.0231
 2228TIP3    H228100  -0.028   4.298  14.748 -0.2785  1.1414  1.0211
 2229TIP3   OH228101   1.351   5.482   4.770  0.3838 -0.1282  0.0856
 2229TIP3    H128102   1.266   5.493   4.812 -0.3954 -1.4017 -1.1160
 2229TIP3    H228103   1.400   5.561   4.795 -1.1574  0.6684  0.7026
 2230TIP3   OH228104   6.035   1.422   5.580  0.0706 -0.3383 -0.3923
 2230TIP3    H128105   6.125   1.389   5.579 -0.1527 -0.9546 -0.8136
 2230TIP3    H228106   6.044   1.516   5.592  0.6891 -0.6301  1.7883
 2231TIP3   OH228107   1.426   2.258  14.084 -0.5444  0.6143  0.1979
 2231TIP3    H128108   1.481   2.336  14.076  0.0322  0.4844  2.3440
 2231TIP3    H228109   1.459   2.199  14.016  1.7542  0.7094  1.1343
 2232TIP3   OH228110   2.359   3.858   4.619 -0.1268 -0.1231  0.0265
 2232TIP3    H128111   2.429   3.900   4.670  0.3142  0.6163 -1.1313
 2232TIP3    H228112   2.393   3.857   4.530 -0.2473 -2.7303 -0.0580
 2233TIP3   OH228113   2.464   0.419   5.105  0.2221 -0.0197 -0.1273
 2233TIP3    H128114   2.550   0.390   5.076  0.5797  0.7578  0.1049
 2233TIP3    H228115   2.446   0.498   5.052 -0.8879 -0.8347 -1.0294
 2234TIP3   OH228116   5.689   6.818   5.031 -0.2501 -0.7114 -0.3426
 2234TIP3    H128117   5.611   6.872   5.044 -0.0189 -0.0932 -1.4377
 2234TIP3    H228118   5.731   6.816   5.117 -0.8277 -0.0370 -0.0345
 2235TIP3   OH228119   5.324   0.335  15.863  0.0167  0.6181 -0.1429
 2235TIP3    H128120   5.372   0.279  15.924  0.0038  1.4960  0.6866
 2235TIP3    H228121   5.242   0.289  15.848 -0.6414  1.0979  1.7165
 2236TIP3   OH228122   5.894   5.037  11.396 -0.2914 -0.3013 -0.4697
 2236TIP3    H128123   5.859   4.950  11.417 -0.3247 -0.1039  0.3112
 2236TIP3    H228124   5.818   5.087  11.366 -0.3949 -0.3382 -0.2678
 2237TIP3   OH228125   0.477   3.334  15.540 -0.6511  0.3604  0.5350
 2237TIP3    H128126   0.425   3.411  15.517  0.5280  0.8621 -0.6149
 2237TIP3    H228127   0.426   3.260  15.507 -1.7320  0.6396  1.5274
 2238TIP3   OH228128   0.474   3.236   4.027 -0.6316 -0.1892  0.2919
 2238TIP3    H128129   0.468   3.329   4.004 -0.0050  0.2310  1.7102
 2238TIP3    H228130   0.564   3.212   4.006 -0.2371  0.0368  1.6380
 2239TIP3   OH228131   5.516   5.647   4.759  0.1993  0.3669 -0.5078
 2239TIP3    H128132   5.602   5.677   4.788 -0.5596  2.4623 -0.2325
 2239TIP3    H228133   5.473   5.619   4.839  0.1647  0.5870 -0.4481
 2240TIP3   OH228134   1.149   6.335  14.834  0.6287 -0.5908 -0.3507
 2240TIP3    H128135   1.210   6.297  14.772  0.1512 -0.9433 -0.6127
 2240TIP3    H228136   1.125   6.419  14.796  1.1326 -0.3432 -0.1266
 2241TIP3   OH228137   5.504   2.966  15.457  0.0377  0.1196  0.4562
 2241TIP3    H128138   5.455   2.907  15.515  0.0791 -0.5807 -0.2110
 2241TIP3    H228139   5.567   3.009  15.515 -0.3154 -0.1310  1.0405
 2242TIP3   OH228140   2.947   5.353   3.613 -0.2789 -0.1731  0.1953
 2242TIP3    H128141   3.028   5.311   3.586  0.0914  0.2697  0.5913
 2242TIP3    H228142   2.952   5.355   3.709 -0.5613  0.2387  0.2028
 2243TIP3   OH228143   1.016   5.206  10.857  0.2021 -0.1760  0.2580
 2243TIP3    H128144   1.002   5.189  10.764 -2.5561  3.8408 -0.2994
 2243TIP3    H228145   1.048   5.296  10.861  1.4504 -0.6442  3.2099
 2244TIP3   OH228146   6.079   0.084   3.611  0.5897  0.0747  0.5356
 2244TIP3    H128147   6.121   0.085   3.525 -0.7418  0.1355 -0.1389
 2244TIP3    H228148   6.071   0.177   3.634 -0.4121  0.1322  0.0157
 2245TIP3   OH228149   0.057   1.546  13.695  0.4444 -0.1464 -0.4910
 2245TIP3    H128150   0.132   1.563  13.751  0.2467 -0.6199 -0.0616
 2245TIP3    H228151   0.025   1.460  13.724 -1.3567  0.8386  0.5881
 2246TIP3   OH228152   0.659   4.741   5.915  0.1339  0.5084 -0.5804
 2246TIP3    H128153   0.639   4.804   5.984  2.1548 -0.5520  1.0959
 2246TIP3    H228154   0.596   4.671   5.928  2.0214 -0.8925  1.9894
 2247TIP3   OH228155   3.341   4.093   5.467 -0.1490 -0.0710  0.2491
 2247TIP3    H128156   3.288   4.015   5.485 -0.0856 -0.7537 -2.1071
 2247TIP3    H228157   3.414   4.060   5.415  0.2305  1.4682 -0.2480
 2248TIP3   OH228158   6.034   5.924   1.002 -0.0309 -0.1658 -0.3924
 2248TIP3    H128159   5.977   5.993   0.968 -1.7568 -1.1406  0.4177
 2248TIP3    H228160   5.976   5.849   1.015  1.8535 -1.9391 -1.6295
 2249TIP3   OH228161   3.236   3.866   4.688 -0.0041 -0.2999  0.0315
 2249TIP3    H128162   3.185   3.930   4.639 -3.8203 -2.0142  1.4491
 2249TIP3    H228163   3.281   3.814   4.620 -1.7026  0.0807 -1.4610
 2250TIP3   OH228164   3.267   5.289  13.632 -0.5968  0.1486  0.5090
 2250TIP3    H128165   3.259   5.205  13.588  1.0662  1.1821 -2.0368
 2250TIP3    H228166   3.184   5.334  13.615 -1.0195 -0.5063  0.8304
 2251TIP3   OH228167   4.540   3.365   3.390  0.1810  0.2902 -0.7418
 2251TIP3    H128168   4.530   3.449   3.343  0.3692  1.0782  0.5825
 2251TIP3    H228169   4.629   3.336   3.367 -0.2675 -0.1223 -2.0695
 2252TIP3   OH228170   5.205   2.493   0.872  0.2675 -0.1656 -0.4932
 2252TIP3    H128171   5.204   2.401   0.843 -3.4832  0.0613 -1.6667
 2252TIP3    H228172   5.163   2.541   0.800 -1.5719  1.7976  1.7059
 2253TIP3   OH228173   5.175   3.648  15.096 -0.0042 -0.3299  0.3044
 2253TIP3    H128174   5.261   3.690  15.093  0.2045 -0.7097  0.8828
 2253TIP3    H228175   5.128   3.697  15.164 -1.1869  1.6182 -1.7728
 2254TIP3   OH228176   3.060   4.517  14.397 -0.3451 -0.0405 -0.4463
 2254TIP3    H128177   3.065   4.600  14.351  2.0105  0.3150  0.3126
 2254TIP3    H228178   3.040   4.453  14.330 -2.9920  1.1428 -0.9411
 2255TIP3   OH228179   2.387   1.075   4.899 -0.3819  0.4030 -0.1710
 2255TIP3    H128180   2.309   1.040   4.857 -0.8167 -0.0602  0.9719
 2255TIP3    H228181   2.358   1.156   4.942 -0.2345  0.2582  0.2148
 2256TIP3   OH228182   4.132   2.616   1.417  0.1310 -0.2768 -0.2459
 2256TIP3    H128183   4.126   2.523   1.397  1.0338 -0.2935 -0.4864
 2256TIP3    H228184   4.194   2.651   1.353  1.4895  0.0629  1.1774
 2257TIP3   OH228185   1.038   2.341  11.240 -0.3563  0.3017 -0.1690
 2257TIP3    H128186   1.118   2.289  11.234 -0.2997  0.5334 -1.8457
 2257TIP3    H228187   0.984   2.310  11.167 -0.3966  2.4389 -1.1019
 2258TIP3   OH228188   2.319   4.682  13.854 -0.0261  0.1574  0.1471
 2258TIP3    H128189   2.338   4.775  13.869  0.5449 -0.3146  2.8473
 2258TIP3    H228190   2.388   4.635  13.901  0.1047 -1.6776 -1.7612
 2259TIP3   OH228191   6.042   0.504  11.488 -0.5121 -0.5481  0.2011
 2259TIP3    H128192   5.996   0.579  11.526  1.0733 -0.8273  2.9457
 2259TIP3    H228193   5.983   0.430  11.503 -0.2651 -0.5112  1.4250
 2260TIP3   OH228194   4.885   5.193  14.024 -0.1872 -0.2883 -0.5308
 2260TIP3    H128195   4.945   5.247  14.075  0.1493 -1.4116  0.2867
 2260TIP3    H228196   4.798   5.217  14.056 -0.1850  1.0547 -1.4399
 2261TIP3   OH228197   5.016   0.926   6.100  0.4138 -0.3325 -0.2274
 2261TIP3    H128198   5.111   0.911   6.098  0.2710 -1.2233 -1.1534
 2261TIP3    H228199   4.992   0.942   6.009 -0.5260 -1.5940 -0.2395
 2262TIP3   OH228200   4.866   6.346  10.851 -0.2832  0.4787 -0.2962
 2262TIP3    H128201   4.861   6.441  10.838  0.3844  0.3161 -1.9977
 2262TIP3    H228202   4.907   6.336  10.936 -0.8593  1.7084  0.1558
 2263TIP3   OH228203   5.748   3.388   1.644 -0.2690 -0.6201  0.2721
 2263TIP3    H128204   5.764   3.447   1.718 -0.1568 -0.1029 -0.1605
 2263TIP3    H228205   5.666   3.344   1.665 -0.6008  0.0435  0.3702
 2264TIP3   OH228206   2.590   4.995   4.333 -0.0782  0.6720  0.7283
 2264TIP3    H128207   2.666   5.035   4.292 -0.6219  1.7744  0.7251
 2264TIP3    H228208   2.515   5.041   4.294 -0.8048 -0.9769  0.0914
 2265TIP3   OH228209   2.455   3.078  14.420  0.5769  0.8154 -0.6300
 2265TIP3    H128210   2.474   3.095  14.328  1.4933 -2.0073 -1.0727
 2265TIP3    H228211   2.539   3.091  14.464  0.0640  2.4940 -0.0836
 2266TIP3   OH228212   6.142   1.112   4.784 -0.4200 -0.0051  0.3076
 2266TIP3    H128213   6.070   1.173   4.800  1.6486  2.1719  2.0732
 2266TIP3    H228214   6.166   1.080   4.870  1.2302 -0.0191 -0.1266
 2267TIP3   OH228215   5.342   4.577  11.815 -0.1284 -0.4178  0.8246
 2267TIP3    H128216   5.264   4.625  11.843 -0.7125 -1.5205  1.1244
 2267TIP3    H228217   5.396   4.571  11.894 -0.4094 -0.9270  0.9778
 2268TIP3   OH228218   4.150   0.028   4.193 -0.7157 -0.2599  0.0138
 2268TIP3    H128219   4.087   0.076   4.140  0.4659 -1.8128 -2.9886
 2268TIP3    H228220   4.149  -0.061   4.159  0.5130 -1.2425  2.2948
 2269TIP3   OH228221   3.189   2.140  10.366 -0.3375  0.1128 -1.0280
 2269TIP3    H128222   3.175   2.212  10.428  1.2744  0.3949 -0.9300
 2269TIP3    H228223   3.107   2.133  10.317 -0.2643  2.6554 -1.6588
 2270TIP3   OH228224   0.134   4.851   0.315  0.2485 -0.7676  0.3378
 2270TIP3    H128225   0.163   4.773   0.268 -1.0307  0.4727 -2.8272
 2270TIP3    H228226   0.214   4.900   0.332  0.7135 -0.7885 -1.5950
 2271TIP3   OH228227   3.931   6.340  11.133 -0.1119  0.0363  0.2746
 2271TIP3    H128228   3.890   6.411  11.083  0.1278  1.3430  1.8611
 2271TIP3    H228229   3.941   6.269  11.069  0.4203  1.6966 -1.6122
 2272TIP3   OH228230   2.469   3.282   2.338 -0.5459 -0.8092  0.7042
 2272TIP3    H128231   2.527   3.217   2.377  0.3484  0.3889  1.4506
 2272TIP3    H228232   2.446   3.246   2.253  1.5865 -1.1720  0.2283
 2273TIP3   OH228233   2.011   0.671   5.526  0.7783 -0.1648  0.2606
 2273TIP3    H128234   1.935   0.676   5.583  1.2448  1.0665  0.7986
 2273TIP3    H228235   2.040   0.580   5.533  0.6466 -0.1164  1.7540
 2274TIP3   OH228236   4.480   2.924  11.984  0.0129 -0.2591  0.4779
 2274TIP3    H128237   4.428   2.885  11.914 -1.7563  2.7734 -0.1094
 2274TIP3    H228238   4.429   2.909  12.063 -0.9958  1.2595  0.1568
 2275TIP3   OH228239   2.439   6.612  14.622  0.4403  0.6669  0.1795
 2275TIP3    H128240   2.446   6.615  14.718  3.6361 -1.3503  0.1518
 2275TIP3    H228241   2.398   6.528  14.604 -0.2623  1.0960 -0.2695
 2276TIP3   OH228242   4.666   5.894   6.045  0.4469  0.5543 -0.0457
 2276TIP3    H128243   4.657   5.847   5.963  0.7247  0.7626 -0.1999
 2276TIP3    H228244   4.755   5.931   6.042  0.0971  1.4235 -0.1130
 2277TIP3   OH228245   6.034   5.422  15.425  0.2319  0.1952 -0.2127
 2277TIP3    H128246   6.112   5.370  15.408  0.2247  0.4820 -1.2365
 2277TIP3    H228247   6.041   5.447  15.517  1.2837  0.1099 -0.2533
 2278TIP3   OH228248   5.903   0.734  16.822 -0.1947 -0.0217 -0.0845
 2278TIP3    H128249   5.902   0.691  16.908 -1.0993 -2.7578 -1.3581
 2278TIP3    H228250   5.930   0.665  16.761  0.5528  1.8718 -2.0326
 2279TIP3   OH228251   4.460   5.068  15.440  0.1667  0.0281  0.4684
 2279TIP3    H128252   4.424   5.155  15.458  0.1891 -0.1039  1.2031
 2279TIP3    H228253   4.385   5.015  15.413  0.0258  0.0828  0.7525
 2280TIP3   OH228254   6.000   3.586  15.388 -0.1411 -0.1489 -0.1988
 2280TIP3    H128255   5.925   3.543  15.428 -0.5585  0.6833 -0.0468
 2280TIP3    H228256   6.050   3.516  15.346  0.4346 -1.1036  1.9472
 2281TIP3   OH228257   4.522   0.523  15.253  0.3245 -0.1281 -0.3845
 2281TIP3    H128258   4.591   0.475  15.208 -0.3276 -0.6589 -0.8360
 2281TIP3    H228259   4.510   0.476  15.336  0.8833  0.3029 -0.0454
 2282TIP3   OH228260   3.666   0.315  11.218  0.6912  0.4990  0.2027
 2282TIP3    H128261   3.665   0.383  11.285  1.4695 -0.0939  0.8335
 2282TIP3    H228262   3.619   0.353  11.144  0.2135  1.3330  0.9184
 2283TIP3   OH228263   4.426   0.937  10.937  0.4843  0.1525 -0.1488
 2283TIP3    H128264   4.366   0.969  10.870  0.4390  0.6213  0.1122
 2283TIP3    H228265   4.386   0.855  10.967 -0.0851  0.5056  0.0873
 2284TIP3   OH228266   0.298   1.385  12.548 -0.1934  0.0859  0.4478
 2284TIP3    H128267   0.371   1.359  12.491 -0.1369  0.9801  0.0946
 2284TIP3    H228268   0.320   1.347  12.633 -1.9955 -4.3731 -0.7902
 2285TIP3   OH228269   1.959   5.868   3.680 -0.6403 -0.1911 -0.0790
 2285TIP3    H128270   1.868   5.894   3.693 -0.2382  1.8440 -1.0555
 2285TIP3    H228271   1.998   5.873   3.768 -0.5315  2.9496 -0.2003
 2286TIP3   OH228272   3.639   2.686  10.993  0.0366  0.0891 -0.6250
 2286TIP3    H128273   3.593   2.711  10.913  1.2750 -0.8539 -1.6799
 2286TIP3    H228274   3.709   2.627  10.963  0.0503 -0.9214  1.2408
 2287TIP3   OH228275   5.560   6.113  11.667 -1.0116  0.0861 -0.8160
 2287TIP3    H128276   5.627   6.049  11.690 -0.8466  0.2568 -0.8137
 2287TIP3    H228277   5.516   6.077  11.590 -2.0060 -0.8095  0.1416
 2288TIP3   OH228278   2.296   3.321   0.325  0.2025  0.4816  0.4357
 2288TIP3    H128279   2.238   3.270   0.269  2.3465 -0.1949 -1.3396
 2288TIP3    H228280   2.274   3.293   0.414  0.4879 -2.8049 -0.3725
 2289TIP3   OH228281   1.772   3.020  15.860  0.0730  0.6546 -0.5217
 2289TIP3    H128282   1.729   3.099  15.894  0.7439  0.1059  1.7446
 2289TIP3    H228283   1.864   3.045  15.850  0.5205 -0.1206  1.3283
 2290TIP3   OH228284   1.120   0.390   3.720 -0.4276  0.1256  0.4527
 2290TIP3    H128285   1.215   0.390   3.714 -0.4932  0.6641 -1.0211
 2290TIP3    H228286   1.096   0.483   3.713 -1.0050  0.1358  2.2500
 2291TIP3   OH228287   5.869   0.906   6.005  0.0387 -0.6172 -0.0184
 2291TIP3    H128288   5.898   0.996   6.017 -0.1214 -0.7105  1.1686
 2291TIP3    H228289   5.868   0.869   6.093 -2.0417 -1.1241 -0.2136
 2292TIP3   OH228290   0.950   4.235   2.177 -0.6118  0.2636 -0.4847
 2292TIP3    H128291   0.911   4.300   2.119  0.1528  0.7935 -0.4190
 2292TIP3    H228292   1.014   4.284   2.228  0.0211 -0.5452 -0.4770
 2293TIP3   OH228293   3.259   3.330  15.119  0.2270  0.4213  0.0915
 2293TIP3    H128294   3.286   3.240  15.138 -0.6915  0.5746  2.3688
 2293TIP3    H228295   3.304   3.383  15.185 -2.4698  1.1083  1.5170
 2294TIP3   OH228296   0.681   6.309  11.101  0.6892 -0.0942  0.6293
 2294TIP3    H128297   0.770   6.328  11.073  1.7705 -1.8893  2.5829
 2294TIP3    H228298   0.689   6.287  11.193 -1.9530  0.6629  1.1274
 2295TIP3   OH228299   2.454   6.046   2.044 -0.6560 -0.4803 -0.2313
 2295TIP3    H128300   2.394   5.973   2.057 -1.5702  0.3373  0.2378
 2295TIP3    H228301   2.413   6.100   1.977 -0.5885  0.2288  0.2858
 2296TIP3   OH228302   3.166   0.996   5.349  0.5955 -0.1280 -0.3815
 2296TIP3    H128303   3.214   1.046   5.283  0.7710 -0.8149 -0.7881
 2296TIP3    H228304   3.075   1.019   5.335  0.4383 -1.5362 -2.0207
 2297TIP3   OH228305   5.655   2.163   1.646  0.2931 -0.5214  0.1573
 2297TIP3    H128306   5.691   2.252   1.646 -0.1583 -0.3342  0.8248
 2297TIP3    H228307   5.564   2.174   1.621 -0.4617 -0.4733  2.6922
 2298TIP3   OH228308   0.750   6.461  16.629 -0.1289  0.1671 -0.2093
 2298TIP3    H128309   0.655   6.456  16.628 -0.1837  0.2801 -2.7634
 2298TIP3    H228310   0.778   6.412  16.551  1.7400  2.1903 -0.9305
 2299TIP3   OH228311   6.710   4.366   5.362 -0.4776  0.7631  0.0739
 2299TIP3    H128312   6.668   4.359   5.448  0.1037  0.9665  0.3754
 2299TIP3    H228313   6.754   4.282   5.350 -0.9590  0.5493 -0.2435
 2300TIP3   OH228314   1.253   5.292  16.346 -0.0840  0.1803  0.4963
 2300TIP3    H128315   1.268   5.280  16.439 -1.9019  0.6453  0.8918
 2300TIP3    H228316   1.282   5.210  16.306 -1.6126 -1.0705  1.7938
 2301TIP3   OH228317   6.814   4.428  16.275  0.1209  0.0174 -0.0485
 2301TIP3    H128318   6.737   4.382  16.240  1.0599 -1.5169 -0.1675
 2301TIP3    H228319   6.788   4.452  16.364 -0.2937 -1.0307  0.1288
 2302TIP3   OH228320   5.181   3.481   5.010  0.5334  0.0544 -0.0744
 2302TIP3    H128321   5.141   3.446   4.930  1.2387 -0.2531 -0.2961
 2302TIP3    H228322   5.257   3.426   5.025  2.8197  2.5699 -1.5022
 2303TIP3   OH228323   2.111   1.519  14.836 -0.0591  0.0357  0.4063
 2303TIP3    H128324   2.116   1.462  14.760  0.7648  0.3154  0.2376
 2303TIP3    H228325   2.088   1.461  14.908 -0.0711 -0.3662  0.0805
 2304TIP3   OH228326   4.894   0.727   3.779  0.4944 -0.0385  0.0649
 2304TIP3    H128327   4.967   0.781   3.747 -0.3995  0.9776 -0.3530
 2304TIP3    H228328   4.857   0.778   3.850 -2.0160  1.3036 -2.0282
 2305TIP3   OH228329   4.576   0.197  14.169 -0.3144 -0.7616 -0.0799
 2305TIP3    H128330   4.495   0.165  14.207 -0.9420  0.1105 -0.6584
 2305TIP3    H228331   4.594   0.137  14.097  0.4491 -1.9328  1.0447
 2306TIP3   OH228332   0.469   2.304  15.718 -0.0721  0.1017  0.2849
 2306TIP3    H128333   0.425   2.292  15.634 -0.5156 -1.3917  0.6893
 2306TIP3    H228334   0.495   2.215  15.744 -1.4753  0.2371  2.4971
 2307TIP3   OH228335   5.068   1.149  14.540  0.0397 -0.2163 -0.1868
 2307TIP3    H128336   5.105   1.089  14.475  1.4071 -0.4365  0.7563
 2307TIP3    H228337   5.103   1.119  14.624 -0.4982  0.9654  0.4879
 2308TIP3   OH228338   5.730   2.749  15.569  0.1358 -0.0090 -0.4762
 2308TIP3    H128339   5.814   2.774  15.607  0.9157  0.7292 -2.5197
 2308TIP3    H228340   5.665   2.782  15.630  1.3098 -0.4000  1.0530
 2309TIP3   OH228341   1.132   0.242  12.721  0.6831  0.3111 -0.5740
 2309TIP3    H128342   1.125   0.327  12.678 -4.3186  0.7251  0.5305
 2309TIP3    H228343   1.121   0.260  12.814  3.9236 -1.3109  0.2980
 2310TIP3   OH228344   5.871   0.897   2.976 -0.0921 -0.1368  0.7540
 2310TIP3    H128345   5.904   0.983   2.948 -1.2523 -0.1008 -0.6160
 2310TIP3    H228346   5.923   0.834   2.926 -0.6751 -0.1435  0.1386
 2311TIP3   OH228347   3.381   2.149  11.876  0.6143  0.1088 -0.7716
 2311TIP3    H128348   3.287   2.146  11.858  0.5385  1.8748 -0.8778
 2311TIP3    H228349   3.417   2.201  11.804  1.8373 -1.3974 -1.2836
 2312TIP3   OH228350   5.121   4.302  16.191  0.1413 -0.4785  0.2662
 2312TIP3    H128351   5.207   4.261  16.193  0.5425  0.3749  1.1908
 2312TIP3    H228352   5.136   4.388  16.152  0.2990  0.9022  3.1305
 2313TIP3   OH228353   5.402   0.428   5.633  0.2741  0.8457 -0.2725
 2313TIP3    H128354   5.478   0.485   5.635 -0.5463  2.0180  2.3532
 2313TIP3    H228355   5.420   0.361   5.699 -0.3512  0.2695 -0.6718
 2314TIP3   OH228356   3.201   1.841   4.364 -0.5437  0.4269 -0.4369
 2314TIP3    H128357   3.163   1.928   4.362 -2.9196 -0.5674 -1.7847
 2314TIP3    H228358   3.146   1.788   4.306  0.4183 -2.1353  0.8004
 2315TIP3   OH228359   5.858   1.610  13.220  0.4371  0.4661  0.7423
 2315TIP3    H128360   5.834   1.613  13.128  0.3127  2.1567  0.7933
 2315TIP3    H228361   5.807   1.538  13.256  0.8662 -0.5446 -0.5909
 2316TIP3   OH228362   3.414   3.365  16.532  0.5025 -0.1973 -0.0756
 2316TIP3    H128363   3.330   3.403  16.507  0.4287 -1.0932 -1.3163
 2316TIP3    H228364   3.414   3.367  16.627 -0.9318 -0.1777 -0.0495
 2317TIP3   OH228365   6.661   3.317   0.558 -0.1830 -0.3618 -0.0474
 2317TIP3    H128366   6.732   3.340   0.618 -0.4384  0.4070 -0.0238
 2317TIP3    H228367   6.581   3.324   0.611 -0.3783 -0.0348 -0.3732
 2318TIP3   OH228368   1.502   0.520   5.790  0.3188  0.4666  0.4348
 2318TIP3    H128369   1.414   0.487   5.807  0.1949  0.0518 -0.8927
 2318TIP3    H228370   1.515   0.590   5.854 -1.8896  2.1861 -0.8667
 2319TIP3   OH228371   4.811   1.758  14.188  0.3503  0.2417  0.8651
 2319TIP3    H128372   4.851   1.730  14.105  0.0525 -0.5405  0.9810
 2319TIP3    H228373   4.882   1.752  14.252  0.4053  0.2064  0.8006
 2320TIP3   OH228374   3.735   1.088  14.881 -0.5356  0.0688 -0.4453
 2320TIP3    H128375   3.791   1.031  14.828 -0.7505 -0.4927 -0.0806
 2320TIP3    H228376   3.769   1.078  14.970 -1.7235 -0.9392 -0.0737
 2321TIP3   OH228377   2.109   1.417   1.658  0.2345  0.2382 -0.2757
 2321TIP3    H128378   2.017   1.400   1.675  0.5643 -0.7081  0.6800
 2321TIP3    H228379   2.119   1.402   1.564 -0.8537  1.7794 -0.6816
 2322TIP3   OH228380   3.143   1.816  11.664 -0.6407  0.0434 -0.1720
 2322TIP3    H128381   3.201   1.888  11.641 -0.5512 -0.3874 -1.3483
 2322TIP3    H228382   3.201   1.741  11.679 -0.8566 -0.4046 -1.4075
 2323TIP3   OH228383   3.878   0.319   1.419 -0.3467  0.2757  0.2100
 2323TIP3    H128384   3.853   0.305   1.327  0.1497  0.4747  0.0383
 2323TIP3    H228385   3.955   0.376   1.414 -0.8254  0.9985  0.7836
 2324TIP3   OH228386   2.136   4.280  12.797  0.3126  0.0532 -0.1461
 2324TIP3    H128387   2.093   4.312  12.717  1.5004 -0.7973 -1.1778
 2324TIP3    H228388   2.070   4.226  12.840 -0.8834  1.8129  0.3306
 2325TIP3   OH228389   6.316   3.316  13.560  0.3579 -0.4389  0.5448
 2325TIP3    H128390   6.398   3.287  13.600 -0.0568 -0.0882  1.6932
 2325TIP3    H228391   6.319   3.412  13.568 -0.1286 -0.4220  0.5439
 2326TIP3   OH228392   6.266   6.062  14.720 -0.9016  0.1963  0.3055
 2326TIP3    H128393   6.262   6.068  14.816 -2.3778 -0.5131  0.3240
 2326TIP3    H228394   6.242   5.971  14.701  1.9702 -0.4666 -0.6677
 2327TIP3   OH228395   1.722   4.807   4.185  0.0410 -0.3284  0.2169
 2327TIP3    H128396   1.775   4.788   4.108  0.6439 -1.9160  0.9879
 2327TIP3    H228397   1.782   4.795   4.259 -0.6710  0.6216  0.9804
 2328TIP3   OH228398   0.483   1.324  13.019 -0.1115 -0.0420  0.5265
 2328TIP3    H128399   0.415   1.380  13.057  1.6811  0.8998  2.5264
 2328TIP3    H228400   0.435   1.268  12.957 -2.5526  1.1412  1.2030
 2329TIP3   OH228401   1.872   5.127  15.431 -0.2288  0.2568 -0.2658
 2329TIP3    H128402   1.780   5.153  15.442 -0.3472 -0.3872  0.3014
 2329TIP3    H228403   1.913   5.202  15.388 -1.0906  0.4273 -0.8019
 2330TIP3   OH228404   6.625   6.801  11.674 -0.4380 -0.6810 -0.1204
 2330TIP3    H128405   6.702   6.813  11.729 -0.4599 -0.7131 -0.0831
 2330TIP3    H228406   6.645   6.723  11.622 -1.3454 -1.9828  1.4226
 2331TIP3   OH228407   1.850   1.557  10.919  0.4374  0.3649  0.2348
 2331TIP3    H128408   1.851   1.561  10.823 -0.5453 -0.3743  0.1750
 2331TIP3    H228409   1.823   1.644  10.947 -1.1356  0.0846 -0.2608
 2332TIP3   OH228410   3.914   4.767  12.968 -0.3492 -0.5457  0.0689
 2332TIP3    H128411   3.938   4.676  12.954  1.0721 -0.2521  0.4472
 2332TIP3    H228412   3.868   4.767  13.052  1.8122 -0.5984  1.3084
 2333TIP3   OH228413   1.580   6.752  11.452 -0.6619 -0.1710 -0.0024
 2333TIP3    H128414   1.493   6.768  11.489 -0.1001  0.1953  1.2086
 2333TIP3    H228415   1.604   6.665  11.483 -0.8137 -0.5131 -0.8057
 2334TIP3   OH228416   3.064   6.651  12.435  0.3929 -0.0855  0.8689
 2334TIP3    H128417   3.023   6.733  12.463 -2.0341  0.0997 -2.6235
 2334TIP3    H228418   3.001   6.583  12.461 -0.3247 -0.1979 -0.9699
 2335TIP3   OH228419   1.024   2.713   3.628  0.7083 -0.4600  0.5259
 2335TIP3    H128420   0.943   2.663   3.630  1.3225 -1.4820  2.2551
 2335TIP3    H228421   1.007   2.788   3.686  1.4009 -1.4099  2.0077
 2336TIP3   OH228422   3.855   1.282  16.711  0.3145 -1.0041  0.5725
 2336TIP3    H128423   3.776   1.229  16.701 -0.3970 -0.2889  2.2009
 2336TIP3    H228424   3.826   1.372  16.697  1.0307 -0.8129  0.2596
 2337TIP3   OH228425   0.365   1.677  12.735 -0.6185 -0.1859 -0.2009
 2337TIP3    H128426   0.411   1.745  12.686 -0.5155  0.9290  1.3610
 2337TIP3    H228427   0.314   1.631  12.669 -0.4746  1.2311 -1.3628
 2338TIP3   OH228428   4.818   2.993  15.034 -0.0846 -0.2712  0.6381
 2338TIP3    H128429   4.786   2.961  15.118  0.4415 -0.1464  0.8911
 2338TIP3    H228430   4.867   2.920  14.997 -0.3852 -0.3535  0.4028
 2339TIP3   OH228431   0.295   5.828   3.104  0.1153  0.2208  0.4844
 2339TIP3    H128432   0.220   5.850   3.048 -0.3126  0.3348  1.0853
 2339TIP3    H228433   0.327   5.912   3.137 -1.8576  0.0630  3.2113
 2340TIP3   OH228434   1.177   2.703   4.850 -0.0430  0.0680 -0.0477
 2340TIP3    H128435   1.242   2.640   4.821 -0.0848 -0.6607  1.3540
 2340TIP3    H228436   1.116   2.652   4.903 -0.9835  0.9972 -0.1924
 2341TIP3   OH228437   3.459   3.212   0.192  0.2900  0.0751 -0.0046
 2341TIP3    H128438   3.459   3.230   0.098 -0.1522  1.5882  0.2517
 2341TIP3    H228439   3.367   3.208   0.216  0.4009 -0.6396  0.3105
 2342TIP3   OH228440   3.321   6.611  14.494  0.3795  0.6388  0.1902
 2342TIP3    H128441   3.254   6.607  14.426  2.1553 -2.3987 -1.6475
 2342TIP3    H228442   3.403   6.597  14.447  1.6298 -2.6364  2.9250
 2343TIP3   OH228443   0.723   5.848  14.797 -0.2915 -0.0035 -0.1345
 2343TIP3    H128444   0.741   5.841  14.891  2.0708  0.2573 -0.5180
 2343TIP3    H228445   0.696   5.760  14.771 -0.9296 -0.0831  0.7737
 2344TIP3   OH228446   5.731   2.850  16.937  0.1974 -0.2269  0.1245
 2344TIP3    H128447   5.729   2.943  16.915 -0.6351 -0.7775 -2.4294
 2344TIP3    H228448   5.674   2.843  17.014 -1.4671  1.1322 -0.9011
 2345TIP3   OH228449   5.370   3.491  13.927 -0.0338 -0.3941  0.6916
 2345TIP3    H128450   5.280   3.491  13.893  0.4384 -0.0758 -0.6121
 2345TIP3    H228451   5.360   3.478  14.021 -1.5007  0.5454  0.7027
 2346TIP3   OH228452   1.784   4.549  11.723  1.0110 -0.0215  0.8580
 2346TIP3    H128453   1.701   4.503  11.734 -0.5022  1.3637 -2.8986
 2346TIP3    H228454   1.772   4.633  11.767 -0.2274  0.7209 -0.7880
 2347TIP3   OH228455   5.486   6.540  13.472 -0.5090  0.3372  0.2010
 2347TIP3    H128456   5.446   6.481  13.535 -2.4229  0.4011 -0.8786
 2347TIP3    H228457   5.413   6.589  13.435  0.7531  1.5430 -0.7989
 2348TIP3   OH228458   1.782   6.035   4.607  0.0093 -0.6082 -0.0070
 2348TIP3    H128459   1.791   6.125   4.577  0.6778 -1.3182 -2.1709
 2348TIP3    H228460   1.715   5.998   4.549 -0.9845 -1.2589  1.5102
 2349TIP3   OH228461   4.891   0.492  16.522  0.0451 -0.4884 -0.1827
 2349TIP3    H128462   4.852   0.536  16.598 -0.0749  2.0078 -1.6040
 2349TIP3    H228463   4.821   0.436  16.488 -1.0558  0.9830 -0.4179
 2350TIP3   OH228464   6.417   5.687   5.942 -0.0371  0.1815 -0.3851
 2350TIP3    H128465   6.417   5.783   5.935 -0.8234  0.2451  0.3575
 2350TIP3    H228466   6.472   5.669   6.018 -0.3493  0.0713 -0.1869
 2351TIP3   OH228467   3.120   0.119  14.996  0.3909  0.0329  0.1816
 2351TIP3    H128468   3.055   0.108  15.065  1.7635 -1.6317  1.3059
 2351TIP3    H228469   3.186   0.177  15.033 -1.2423  3.3158 -1.6451
 2352TIP3   OH228470   6.530   1.965   0.321 -0.0912  0.3006 -0.0304
 2352TIP3    H128471   6.579   2.046   0.338 -1.6797  1.5736 -1.2018
 2352TIP3    H228472   6.464   1.990   0.257  0.0917 -2.2342 -1.3253
 2353TIP3   OH228473   5.271   2.524  14.755  0.0429 -0.1597  0.9177
 2353TIP3    H128474   5.198   2.574  14.718 -1.0751  0.2281  3.4356
 2353TIP3    H228475   5.344   2.543  14.697 -1.6324  0.0515 -1.2758
 2354TIP3   OH228476   4.246   5.658   2.393  0.2009  0.0631  0.5469
 2354TIP3    H128477   4.317   5.716   2.366  0.4778 -0.4258  0.1977
 2354TIP3    H228478   4.203   5.704   2.464 -0.5537  1.3885 -0.7254
 2355TIP3   OH228479   3.070   5.307  16.226 -0.2758 -0.0869  0.0613
 2355TIP3    H128480   3.020   5.231  16.257  0.2835 -0.9083 -0.9487
 2355TIP3    H228481   3.004   5.366  16.190 -0.8135  0.3579  1.6957
 2356TIP3   OH228482   3.632   0.234  15.913 -0.1898  0.5563  0.3825
 2356TIP3    H128483   3.693   0.281  15.969 -0.2837  0.6084  0.4411
 2356TIP3    H228484   3.550   0.284  15.919  0.1281  1.2556 -0.7437
 2357TIP3   OH228485   5.022   4.510  12.128  0.0057 -0.0021  0.2924
 2357TIP3    H128486   4.946   4.566  12.137  1.7900  2.8376 -0.9276
 2357TIP3    H228487   4.992   4.436  12.074 -2.0914  0.4687  0.7668
 2358TIP3   OH228488   2.595   2.064   1.316 -0.0802 -0.0662 -0.0023
 2358TIP3    H128489   2.516   2.112   1.291 -1.4704 -1.1531  2.0393
 2358TIP3    H228490   2.617   2.097   1.403  0.1289 -1.6295  0.5701
 2359TIP3   OH228491   1.668   1.450   5.759 -0.0426  0.7524 -0.3102
 2359TIP3    H128492   1.587   1.418   5.798 -0.2313  0.8318 -0.6328
 2359TIP3    H228493   1.718   1.487   5.832  0.3253 -0.5649  0.1274
 2360TIP3   OH228494   0.633   0.415   0.699  0.2842 -0.8123  0.7202
 2360TIP3    H128495   0.561   0.356   0.676  0.0173 -0.3899  0.4539
 2360TIP3    H228496   0.590   0.500   0.712  0.9718 -0.0418 -1.5710
 2361TIP3   OH228497   5.113   0.507  13.339 -0.2906 -0.2601 -0.1690
 2361TIP3    H128498   5.029   0.468  13.315 -1.1344  0.9065  0.7247
 2361TIP3    H228499   5.164   0.506  13.258 -0.9974 -1.3926 -0.6223
 2362TIP3   OH228500   3.409   1.418  15.511 -0.4207 -0.7253 -0.3117
 2362TIP3    H128501   3.456   1.501  15.518  0.6193 -1.4553  2.9262
 2362TIP3    H228502   3.441   1.379  15.430  2.7744 -0.0843  0.5043
 2363TIP3   OH228503   3.049   0.004   1.962 -0.3860  0.5102 -0.2594
 2363TIP3    H128504   3.091  -0.052   2.028 -0.7015 -0.4661 -0.8618
 2363TIP3    H228505   3.119   0.025   1.900 -0.5910 -0.5027 -0.8595
 2364TIP3   OH228506   4.710   2.801   3.119  0.0760  0.0574  0.1091
 2364TIP3    H128507   4.704   2.886   3.163 -0.4856  0.4032 -0.6125
 2364TIP3    H228508   4.627   2.793   3.072  0.2817 -0.7260 -0.1303
 2365TIP3   OH228509   0.423   6.362  14.105 -0.1478 -0.3557 -0.1212
 2365TIP3    H128510   0.400   6.297  14.039 -0.6738  0.4214 -0.7228
 2365TIP3    H228511   0.450   6.438  14.055  0.2555 -0.0338  0.5719
 2366TIP3   OH228512   5.983   3.193  11.301  0.0435 -0.3302 -0.2373
 2366TIP3    H128513   6.074   3.165  11.312  0.3069  0.4560 -0.3714
 2366TIP3    H228514   5.983   3.242  11.218 -0.5375 -0.4610 -0.3220
 2367TIP3   OH228515   3.172   2.036  13.315 -0.1955 -1.0838 -0.0386
 2367TIP3    H128516   3.252   2.088  13.313  0.5766 -2.1963 -2.1681
 2367TIP3    H228517   3.110   2.088  13.365  1.3023  0.6707  0.0919
 2368TIP3   OH228518   3.290   1.593   0.781  0.0623  0.4061 -0.9297
 2368TIP3    H128519   3.219   1.538   0.746  1.1717 -0.6594 -1.5832
 2368TIP3    H228520   3.287   1.673   0.729 -1.4905  0.9470 -0.0653
 2369TIP3   OH228521   1.859   4.365   4.113  0.5442 -0.0941 -0.0529
 2369TIP3    H128522   1.809   4.313   4.051 -0.5246  0.0437  0.6685
 2369TIP3    H228523   1.805   4.367   4.192  2.2948 -1.1053  1.2637
 2370TIP3   OH228524   3.013   1.263   4.727  0.3821  0.5382 -0.6411
 2370TIP3    H128525   2.967   1.206   4.667  2.5447 -0.6154 -1.3125
 2370TIP3    H228526   3.042   1.206   4.798  0.9024  1.1710 -0.3250
 2371TIP3   OH228527   5.218   6.575  11.641 -0.1400 -0.2621  0.0331
 2371TIP3    H128528   5.201   6.663  11.607  0.1494  0.1352  0.8815
 2371TIP3    H228529   5.185   6.578  11.731 -3.4389 -2.0995 -0.9360
 2372TIP3   OH228530   4.108   1.036   4.263  0.4083  0.1891  0.1298
 2372TIP3    H128531   4.064   0.994   4.337 -1.4500  0.0258 -1.0084
 2372TIP3    H228532   4.093   1.130   4.278  1.7141  0.2926  0.9405
 2373TIP3   OH228533   1.861   2.249   5.196 -0.3871 -0.2851 -0.3034
 2373TIP3    H128534   1.810   2.228   5.119  1.1696 -1.1559 -1.1470
 2373TIP3    H228535   1.835   2.339   5.219 -2.9675 -1.0295 -0.0632
 2374TIP3   OH228536   6.264   6.484  14.973 -0.0435  0.3802  0.0940
 2374TIP3    H128537   6.351   6.489  14.934 -0.3678  0.1913 -0.6708
 2374TIP3    H228538   6.232   6.574  14.971  0.9919  0.8987  2.4669
 2375TIP3   OH228539   6.642   0.413   2.030 -0.0990 -0.3441 -0.4807
 2375TIP3    H128540   6.650   0.334   2.084  1.3940 -1.4489 -2.2043
 2375TIP3    H228541   6.556   0.406   1.989  0.3897 -1.5717 -1.3242
 2376TIP3   OH228542   1.459   1.679  14.929 -0.2350  0.0966  0.8506
 2376TIP3    H128543   1.531   1.728  14.889 -0.6699 -1.2537 -1.8629
 2376TIP3    H228544   1.387   1.685  14.866 -1.3110 -1.4473  1.8425
 2377TIP3   OH228545   4.616   5.667   0.919 -0.5568  0.1702  0.0672
 2377TIP3    H128546   4.608   5.624   0.834 -1.5167 -1.2225  0.8173
 2377TIP3    H228547   4.700   5.713   0.915  0.1683 -1.1835 -1.0627
 2378TIP3   OH228548   3.270   1.861   2.946  0.4323  0.1067  0.1063
 2378TIP3    H128549   3.181   1.841   2.975 -0.4164  2.4396 -0.6747
 2378TIP3    H228550   3.263   1.872   2.852  1.8702 -1.0161 -0.1758
 2379TIP3   OH228551   4.530   6.599  16.317  0.3043 -0.3531  0.5222
 2379TIP3    H128552   4.557   6.526  16.372  0.7410  0.4129  1.3649
 2379TIP3    H228553   4.604   6.659  16.318 -1.0539  1.4749  2.3120
 2380TIP3   OH228554   3.496   4.526  14.747  0.6214  0.0214 -0.5258
 2380TIP3    H128555   3.433   4.583  14.792  0.4052 -0.1955 -0.5492
 2380TIP3    H228556   3.543   4.482  14.818  0.8688  0.3164 -0.5072
 2381TIP3   OH228557   3.591   1.533  16.865  0.2686 -0.0264 -0.0919
 2381TIP3    H128558   3.648   1.531  16.789  0.0083  1.7796 -0.3776
 2381TIP3    H228559   3.523   1.597  16.843 -2.8036 -3.0806 -0.3614
 2382TIP3   OH228560   1.157   0.159   1.073  0.6402 -0.2303 -0.4845
 2382TIP3    H128561   1.169   0.064   1.072 -0.3932 -0.5287  2.6889
 2382TIP3    H228562   1.225   0.192   1.015  2.7708 -2.7872  0.3406
 2383TIP3   OH228563   2.643   0.989  12.617 -0.1926  0.1996 -0.1195
 2383TIP3    H128564   2.724   0.941  12.600  0.0864  0.6149  0.0197
 2383TIP3    H228565   2.644   1.007  12.711 -0.0680  0.8766 -0.2456
 2384TIP3   OH228566   2.652   3.534  16.456  0.0003 -0.4747  0.0100
 2384TIP3    H128567   2.558   3.519  16.466  0.1198 -2.4534 -1.1205
 2384TIP3    H228568   2.659   3.610  16.399 -0.8813  0.2567  0.8587
 2385TIP3   OH228569   3.425   6.174  15.960  0.0896  0.2324  0.5049
 2385TIP3    H128570   3.490   6.165  16.030  0.5289 -1.0079 -0.0482
 2385TIP3    H228571   3.387   6.261  15.975  0.3375  0.1024  2.1356
 2386TIP3   OH228572   5.382   0.239   2.274  0.7249  0.0739 -0.2505
 2386TIP3    H128573   5.379   0.157   2.325  1.1449  0.6514  0.7265
 2386TIP3    H228574   5.470   0.273   2.288  0.4754  0.8237 -0.4560
 2387TIP3   OH228575   1.931   5.503   2.071  0.2257 -0.0069  0.2664
 2387TIP3    H128576   1.854   5.540   2.115 -0.3073 -1.5055  0.6726
 2387TIP3    H228577   2.003   5.560   2.096  0.0463 -1.0225  3.5821
 2388TIP3   OH228578   2.699   1.656  16.988  0.0167  0.6013  1.0694
 2388TIP3    H128579   2.768   1.660  16.922 -0.1125 -0.2541  0.8661
 2388TIP3    H228580   2.745   1.645  17.071  0.1580  0.9597  1.0374
 2389TIP3   OH228581   5.041   4.631  11.022 -0.2096  0.4811 -0.2624
 2389TIP3    H128582   5.119   4.674  11.055 -0.4932  1.0992 -0.3819
 2389TIP3    H228583   5.049   4.637  10.927 -0.0699 -0.0613 -0.2863
 2390TIP3   OH228584   4.943   5.307   2.505  0.1326 -0.0364 -0.4769
 2390TIP3    H128585   4.937   5.244   2.434 -0.3650 -1.4505  0.7645
 2390TIP3    H228586   4.901   5.386   2.471 -3.2205 -1.7260 -0.6796
 2391TIP3   OH228587   3.817   0.434   4.536 -0.4027  0.2941  0.2206
 2391TIP3    H128588   3.860   0.389   4.462 -1.7268 -1.1438  0.2644
 2391TIP3    H228589   3.890   0.467   4.589  0.5953  1.4565 -1.7445
 2392TIP3   OH228590   5.183   1.387   3.769 -0.7738  0.0996  0.4383
 2392TIP3    H128591   5.210   1.449   3.837  0.8450  0.0409 -0.1122
 2392TIP3    H228592   5.174   1.440   3.690 -2.7640  0.1860  0.6907
 2393TIP3   OH228593   3.800   0.934   0.833  0.4497 -0.1939  0.4334
 2393TIP3    H128594   3.741   0.904   0.764  2.0621 -3.1722  0.1950
 2393TIP3    H228595   3.886   0.899   0.809  1.3455 -0.1970  3.2567
 2394TIP3   OH228596   1.530   4.410  15.038 -0.0529 -0.3221  0.1430
 2394TIP3    H128597   1.608   4.462  15.022  0.3440 -0.6766  0.8670
 2394TIP3    H228598   1.547   4.326  14.996 -1.2839  0.5599 -2.2803
 2395TIP3   OH228599   6.160   0.878   3.539 -0.5457 -0.0236 -0.5219
 2395TIP3    H128600   6.165   0.814   3.467 -0.9408 -0.2110 -0.3899
 2395TIP3    H228601   6.251   0.900   3.558 -0.4330  0.0131 -1.0667
 2396TIP3   OH228602   6.163   6.801   1.401  0.1904  0.0252 -0.3226
 2396TIP3    H128603   6.068   6.791   1.407  0.3341 -0.7461  0.8018
 2396TIP3    H228604   6.179   6.892   1.425 -0.0844 -0.4669  1.8994
 2397TIP3   OH228605   4.067   3.181  11.643 -0.6591 -0.6336 -0.5241
 2397TIP3    H128606   4.111   3.126  11.579  0.9585  0.7236 -0.6418
 2397TIP3    H228607   4.097   3.147  11.728  1.1107  0.5794 -0.6067
 2398TIP3   OH228608   5.515   1.550  15.164 -0.0869 -0.6812 -0.0898
 2398TIP3    H128609   5.532   1.632  15.119  0.4820 -1.1947 -0.8400
 2398TIP3    H228610   5.456   1.573  15.236  0.6225  0.4947  0.1353
 2399TIP3   OH228611   0.578   3.655  12.862  0.0968  0.1483 -0.1471
 2399TIP3    H128612   0.596   3.697  12.946  1.3472  0.0522 -0.3342
 2399TIP3    H228613   0.551   3.726  12.804 -0.2570  0.2941  0.1947
 2400TIP3   OH228614   1.815   2.732  12.698  0.4211 -0.6060 -0.4845
 2400TIP3    H128615   1.770   2.649  12.683  1.9925 -1.0929 -3.1137
 2400TIP3    H228616   1.906   2.707  12.716  0.9365  0.5081 -1.4068
 2401TIP3   OH228617   4.100   5.813  14.040 -0.6401 -0.1102 -0.3824
 2401TIP3    H128618   4.050   5.866  13.977  0.0856 -0.6527 -1.4530
 2401TIP3    H228619   4.124   5.874  14.109 -0.2614  0.8700 -1.3422
 2402TIP3   OH228620   2.408   4.989   3.613  0.6136  0.1821 -0.8760
 2402TIP3    H128621   2.407   5.025   3.702 -0.5229  1.1686 -1.2646
 2402TIP3    H228622   2.498   4.957   3.602  1.2310  1.4520  0.0932
 2403TIP3   OH228623   4.213   6.613  14.307  0.5393 -0.0085 -0.6610
 2403TIP3    H128624   4.269   6.690  14.303 -0.0778  0.4383 -0.9383
 2403TIP3    H228625   4.272   6.539  14.292  1.4780  0.2260  1.4666
 2404TIP3   OH228626   5.579   0.653  16.879  0.3434  0.1570  0.5586
 2404TIP3    H128627   5.608   0.670  16.790 -0.9114 -0.7644 -0.0538
 2404TIP3    H228628   5.603   0.732  16.927 -1.0071  1.6424 -1.0976
 2405TIP3   OH228629   1.226   6.336  14.250 -0.8099 -0.0676  0.0479
 2405TIP3    H128630   1.243   6.311  14.159  0.9062 -1.8631  0.7730
 2405TIP3    H228631   1.136   6.308  14.267 -0.7611 -0.7519 -0.7847
 2406TIP3   OH228632   0.757   4.667  14.883  0.3549  0.5421 -0.2091
 2406TIP3    H128633   0.667   4.636  14.875  0.9218 -0.7737 -2.1308
 2406TIP3    H228634   0.799   4.603  14.941  0.2728  0.7008  0.0304
 2407TIP3   OH228635   3.632   4.596   4.344  0.0558  0.4006  0.2775
 2407TIP3    H128636   3.699   4.570   4.407  0.4544 -2.8220 -1.2564
 2407TIP3    H228637   3.560   4.628   4.398  1.1957 -0.1381  2.2184
 2408TIP3   OH228638   6.580   4.315  13.885  0.1861  0.0664  0.2638
 2408TIP3    H128639   6.639   4.255  13.930 -0.1769  0.1377  0.8456
 2408TIP3    H228640   6.511   4.333  13.949  0.6840  1.6939  0.3821
 2409TIP3   OH228641   1.487   0.400   5.158  0.3574 -0.2168  0.1258
 2409TIP3    H128642   1.414   0.360   5.205 -0.7924  0.9796 -0.5942
 2409TIP3    H228643   1.525   0.328   5.108 -0.6433 -0.7518  0.1131
 2410TIP3   OH228644   2.431   4.400   3.488 -0.1948 -0.3315 -0.4327
 2410TIP3    H128645   2.463   4.476   3.536 -0.1630  0.3754 -1.5575
 2410TIP3    H228646   2.393   4.344   3.556  0.6895  0.2021  0.5349
 2411TIP3   OH228647   1.808   2.754   5.059 -0.4004 -0.2835 -0.3244
 2411TIP3    H128648   1.776   2.829   5.009  0.5548  0.2108 -0.2095
 2411TIP3    H228649   1.840   2.791   5.141 -0.6065 -0.9127  0.0507
 2412TIP3   OH228650   1.940   0.140   0.702 -0.2249  0.1385 -0.0226
 2412TIP3    H128651   1.857   0.092   0.701  0.1225 -0.4685 -0.7621
 2412TIP3    H228652   1.950   0.172   0.612 -1.6565  3.7786  0.9354
 2413TIP3   OH228653   1.455   2.571   0.505 -0.6067 -0.2054 -0.1794
 2413TIP3    H128654   1.396   2.549   0.577 -0.1592  0.5156  0.4187
 2413TIP3    H228655   1.542   2.544   0.536 -0.3161  0.7166 -0.1651
 2414TIP3   OH228656   5.228   4.457   4.031 -0.0800 -0.3408 -0.1145
 2414TIP3    H128657   5.269   4.486   4.113  1.3812  1.3053 -1.3545
 2414TIP3    H228658   5.226   4.536   3.977 -1.1190 -1.3707 -1.6259
 2415TIP3   OH228659   5.027   2.700  12.243 -0.1215 -0.1620 -0.0423
 2415TIP3    H128660   5.026   2.790  12.277 -2.2427 -0.9428  2.2650
 2415TIP3    H228661   4.989   2.707  12.156 -0.5650  1.1365  0.2352
 2416TIP3   OH228662   4.543   1.792  15.488 -0.1390  0.0893  0.4422
 2416TIP3    H128663   4.628   1.774  15.450 -1.0971  0.9112 -2.3020
 2416TIP3    H228664   4.487   1.721  15.457 -1.1776  1.2959 -0.5244
 2417TIP3   OH228665   0.036   5.035  14.001 -0.5464  0.0383  0.7099
 2417TIP3    H128666   0.132   5.029  14.004 -0.4261  1.1719 -0.2861
 2417TIP3    H228667   0.018   5.123  13.968 -1.9419 -0.1805  0.8194
 2418TIP3   OH228668   4.928   1.732  13.031 -0.5432 -0.2115 -0.1445
 2418TIP3    H128669   4.851   1.677  13.015 -1.4845  1.0963 -0.2471
 2418TIP3    H228670   4.983   1.720  12.954 -1.0097 -0.5725 -0.4270
 2419TIP3   OH228671   4.350   0.660   0.616 -0.3096 -0.3529  0.2365
 2419TIP3    H128672   4.382   0.614   0.538  1.6002  1.2793 -0.0430
 2419TIP3    H228673   4.321   0.745   0.582  1.1968  0.6512  1.3372
 2420TIP3   OH228674   1.463   5.193   2.200  0.4024 -0.5239  0.4772
 2420TIP3    H128675   1.559   5.192   2.198  0.4817  1.4527  0.9840
 2420TIP3    H228676   1.436   5.157   2.116  1.6170 -0.5102  0.0696
 2421TIP3   OH228677   5.261   3.386  15.143  0.6317  0.7123 -0.1014
 2421TIP3    H128678   5.213   3.358  15.221  1.7430  0.6364  0.5641
 2421TIP3    H228679   5.223   3.471  15.121  0.7461  1.0330  0.9036
 2422TIP3   OH228680   2.858   3.581  13.490  0.0315 -0.2439 -0.0990
 2422TIP3    H128681   2.913   3.567  13.413 -1.9581 -0.1144 -1.6226
 2422TIP3    H228682   2.861   3.676  13.504  1.1228 -0.3662  0.5766
 2423TIP3   OH228683   4.859   5.775   0.889  0.3677  0.3302  0.5244
 2423TIP3    H128684   4.883   5.867   0.882 -1.2433  0.7357 -0.1332
 2423TIP3    H228685   4.934   5.734   0.931  0.6653  2.1429  1.9051
 2424TIP3   OH228686   1.793   0.449  13.750 -0.3715 -0.3052  0.4585
 2424TIP3    H128687   1.727   0.485  13.809  0.3567  3.1142 -0.5987
 2424TIP3    H228688   1.773   0.489  13.665  1.9383 -0.6314 -0.2993
 2425TIP3   OH228689   0.977   2.252  16.854 -0.4244 -0.1707 -0.1527
 2425TIP3    H128690   0.936   2.293  16.929  0.2797  0.0259  0.1291
 2425TIP3    H228691   0.939   2.296  16.778  0.5485  1.2556  0.1416
 2426TIP3   OH228692   0.577   1.586   3.830 -0.5985  0.2739  0.0751
 2426TIP3    H128693   0.609   1.501   3.801  1.6234  1.2360 -0.4864
 2426TIP3    H228694   0.500   1.602   3.775 -1.2251 -1.4470  0.3821
 2427TIP3   OH228695   0.938   1.301  13.151 -0.0252  0.3178 -0.2713
 2427TIP3    H128696   0.935   1.251  13.233 -0.0911 -0.4535 -0.7373
 2427TIP3    H228697   0.850   1.339  13.143  0.5271  1.9826  0.9670
 2428TIP3   OH228698   1.969   5.286   0.625 -0.7938  0.8264 -0.1000
 2428TIP3    H128699   2.031   5.216   0.648 -2.1369 -0.4140 -0.0607
 2428TIP3    H228700   2.004   5.364   0.667  0.8035  0.1976 -0.1917
 2429TIP3   OH228701   3.615   5.692  16.644  0.0746  0.2830 -0.0692
 2429TIP3    H128702   3.624   5.742  16.725  2.7281  0.9405 -0.6492
 2429TIP3    H228703   3.671   5.615  16.657 -0.2866 -0.1317 -0.8899
 2430TIP3   OH228704   4.851   4.171  12.523 -0.4963 -0.0103 -0.1143
 2430TIP3    H128705   4.845   4.252  12.574 -0.8881 -0.3617  0.4127
 2430TIP3    H228706   4.883   4.106  12.586 -1.6756 -0.6134 -0.1110
 2431TIP3   OH228707   2.818   1.227  16.926 -0.0617 -0.3039  0.5429
 2431TIP3    H128708   2.863   1.164  16.869  0.9815  0.1820  0.7897
 2431TIP3    H228709   2.759   1.274  16.868  1.7385  0.9060 -0.4245
 2432TIP3   OH228710   5.615   0.484   4.889  0.0703  0.1715 -0.4365
 2432TIP3    H128711   5.681   0.461   4.823 -0.0903  1.0955 -0.9485
 2432TIP3    H228712   5.539   0.431   4.867 -0.5212  1.5749 -1.9927
 2433TIP3   OH228713   6.540   4.758  13.167  0.4332 -0.1266 -0.4858
 2433TIP3    H128714   6.483   4.681  13.174 -0.3466  0.5975  2.2070
 2433TIP3    H228715   6.551   4.771  13.073 -2.3835 -1.3658 -1.0771
 2434TIP3   OH228716   3.751   5.866   5.158  0.1488 -0.1620  0.3007
 2434TIP3    H128717   3.811   5.933   5.189 -0.9425 -0.0757  2.3804
 2434TIP3    H228718   3.802   5.784   5.162  0.6930  0.1640  0.1871
 2435TIP3   OH228719   2.518   1.663  11.438 -0.2545  0.1228  0.2957
 2435TIP3    H128720   2.434   1.618  11.427  0.3354 -0.8145 -0.5629
 2435TIP3    H228721   2.583   1.593  11.433  0.5683  0.7966  1.2611
 2436TIP3   OH228722   4.048   6.512  16.616 -0.9475  0.1776  0.2007
 2436TIP3    H128723   4.027   6.475  16.702 -2.0587 -0.5754 -0.3771
 2436TIP3    H228724   3.963   6.528  16.575 -0.4319 -0.0186 -0.9907
 2437TIP3   OH228725   6.751   6.292   2.444  0.0122  0.5098  0.7024
 2437TIP3    H128726   6.746   6.216   2.503 -0.5695 -0.0005  0.0205
 2437TIP3    H228727   6.688   6.272   2.374  0.8133  1.0099 -0.1871
 2438TIP3   OH228728   0.115   0.117  16.654 -0.2705 -0.4957 -0.2363
 2438TIP3    H128729   0.164   0.170  16.717  0.5537 -0.7676 -0.6355
 2438TIP3    H228730   0.060   0.060  16.708  1.2435 -1.5066  0.2822
 2439TIP3   OH228731   6.662   4.642   2.212 -0.1226 -0.6118  0.0225
 2439TIP3    H128732   6.739   4.596   2.245  0.1435 -1.0491 -1.1395
 2439TIP3    H228733   6.667   4.631   2.117 -1.9760 -1.2399 -0.0414
 2440TIP3   OH228734   5.087   3.412  14.876 -0.0637 -0.1158  0.2599
 2440TIP3    H128735   5.005   3.460  14.868  0.3363  0.7066  0.9764
 2440TIP3    H228736   5.068   3.341  14.937 -1.0506 -1.8132 -1.8676
 2441TIP3   OH228737   0.400   0.149   1.604  0.4063 -0.1747 -0.2846
 2441TIP3    H128738   0.376   0.196   1.683  0.6334 -1.0800  0.3448
 2441TIP3    H228739   0.485   0.185   1.578 -1.2687  2.7899 -2.3147
 2442TIP3   OH228740   1.747   1.301   3.845  0.1143 -0.0534  0.8275
 2442TIP3    H128741   1.700   1.375   3.883 -0.7343 -0.3921  0.4704
 2442TIP3    H228742   1.830   1.338   3.813 -1.3179  1.3207 -1.6390
 2443TIP3   OH228743   6.313   6.470   5.032 -0.6772 -0.9493 -0.3764
 2443TIP3    H128744   6.242   6.406   5.024 -2.5919  1.1317 -1.3455
 2443TIP3    H228745   6.333   6.494   4.941 -1.7843  1.5717 -0.0267
 2444TIP3   OH228746   6.118   1.488   4.509  0.0264 -0.0428  0.0169
 2444TIP3    H128747   6.184   1.431   4.549  1.2894  1.8662  0.7881
 2444TIP3    H228748   6.059   1.509   4.581  0.0418  0.2717 -0.0615
 2445TIP3   OH228749   1.640   2.378  12.962 -0.6874  0.2538  0.2488
 2445TIP3    H128750   1.570   2.321  12.930  0.3291 -1.9428  1.7307
 2445TIP3    H228751   1.636   2.370  13.057 -0.1662  2.3140  0.4960
 2446TIP3   OH228752   2.281   3.309   1.680 -0.1761  0.9169  0.4418
 2446TIP3    H128753   2.373   3.320   1.658 -0.8248  1.2581 -2.4854
 2446TIP3    H228754   2.267   3.367   1.755  2.1373  0.1069  1.5989
 2447TIP3   OH228755   5.043   4.075  14.291  0.4514 -0.2460  0.0231
 2447TIP3    H128756   4.964   4.065  14.239  1.0407 -0.8267 -0.7736
 2447TIP3    H228757   5.106   4.117  14.232  0.9478 -0.3887  0.4450
 2448TIP3   OH228758   2.861   0.655   2.889 -0.0485  0.0525 -0.2545
 2448TIP3    H128759   2.934   0.700   2.929  0.4208  0.1109 -1.1574
 2448TIP3    H228760   2.899   0.609   2.814 -0.4829 -1.9091  0.6519
 2449TIP3   OH228761   0.073   5.928   0.797  0.0653 -0.2274 -0.0871
 2449TIP3    H128762   0.114   5.843   0.812  1.7769  0.6682  0.5637
 2449TIP3    H228763   0.018   5.942   0.873 -0.1432 -0.6898 -0.1466
 2450TIP3   OH228764   2.689   0.153   0.824  0.1891 -0.1945 -0.2854
 2450TIP3    H128765   2.783   0.138   0.815  0.3069  0.9021 -1.0371
 2450TIP3    H228766   2.681   0.244   0.852 -0.6377 -0.4921  0.5127
 2451TIP3   OH228767   0.375   0.047   2.325 -0.5122 -0.0858  0.4597
 2451TIP3    H128768   0.465   0.025   2.303 -0.4770 -0.3265  0.8253
 2451TIP3    H228769   0.335   0.076   2.243  0.3141  1.4471  0.5632
 2452TIP3   OH228770   0.935   5.792  15.435 -0.6587  0.0317 -0.2707
 2452TIP3    H128771   0.935   5.872  15.381  1.0462  0.8057  0.8034
 2452TIP3    H228772   1.014   5.746  15.408 -0.7637 -0.4827  0.3002
 2453TIP3   OH228773   0.375   5.371   5.266  0.0961  0.5943  0.1831
 2453TIP3    H128774   0.362   5.404   5.355  1.3763  0.7550  0.3272
 2453TIP3    H228775   0.469   5.352   5.261 -0.4881 -2.9673  0.0860
 2454TIP3   OH228776   4.842   2.302   4.966 -0.0152 -0.1074 -0.3324
 2454TIP3    H128777   4.883   2.257   5.041  1.2978  1.1362 -0.2600
 2454TIP3    H228778   4.912   2.307   4.901 -0.4890  0.7620 -0.7891
 2455TIP3   OH228779   0.757   1.811  13.847 -0.1182  0.6614 -0.9165
 2455TIP3    H128780   0.693   1.879  13.826 -0.7362 -0.2481 -2.0700
 2455TIP3    H228781   0.791   1.783  13.763  1.1563  0.4901 -0.3680
 2456TIP3   OH228782   1.682   2.366   4.259 -0.1691  0.3851  0.6000
 2456TIP3    H128783   1.739   2.375   4.336 -0.0737 -1.6128  0.8214
 2456TIP3    H228784   1.610   2.310   4.289 -0.3499 -0.0851 -0.6494
 2457TIP3   OH228785   4.054   1.597  16.619  0.4187 -0.4983 -0.6182
 2457TIP3    H128786   3.960   1.580  16.614 -0.2212  1.1022  2.9543
 2457TIP3    H228787   4.094   1.510  16.614 -1.4747 -1.4762  0.2535
 2458TIP3   OH228788   2.859   4.090  15.738 -0.2202 -0.2247  0.2963
 2458TIP3    H128789   2.797   4.057  15.803  0.0842 -0.8984  0.2540
 2458TIP3    H228790   2.812   4.084  15.654 -0.2266 -0.3820  0.3113
 2459TIP3   OH228791   3.616   2.950  11.610  0.5386  0.1920  0.3974
 2459TIP3    H128792   3.694   2.950  11.665  0.9224 -0.4384 -0.1282
 2459TIP3    H228793   3.631   3.021  11.547  0.7628 -0.0221  0.2056
 2460TIP3   OH228794   4.407   3.101   3.223  0.4384  0.2755 -0.1907
 2460TIP3    H128795   4.385   3.182   3.178 -0.7424  1.2062  1.9197
 2460TIP3    H228796   4.324   3.053   3.228  0.8265 -0.4091 -0.1399
 2461TIP3   OH228797   3.447   2.073   2.922  0.3352 -0.4617 -0.4472
 2461TIP3    H128798   3.404   2.068   2.837 -0.8031  0.6397  0.0335
 2461TIP3    H228799   3.385   2.031   2.982  1.6412 -2.3025 -0.3101
 2462TIP3   OH228800   5.117   3.411  16.820 -0.2653 -0.0363  0.3564
 2462TIP3    H128801   5.165   3.475  16.766  0.8273 -1.1387 -0.0413
 2462TIP3    H228802   5.158   3.418  16.907 -0.3794  0.0549  0.4016
 2463TIP3   OH228803   0.805   5.885  10.125 -0.1992 -0.0187  0.0374
 2463TIP3    H128804   0.727   5.937  10.103  0.9077  2.3101  1.2450
 2463TIP3    H228805   0.788   5.855  10.214 -0.0084 -0.1128  0.0408
 2464TIP3   OH228806   0.481   0.936   1.601 -0.6872  0.1148  0.8847
 2464TIP3    H128807   0.422   0.863   1.580 -1.7021  1.5362 -1.6309
 2464TIP3    H228808   0.569   0.897   1.597 -1.2570 -1.2558  1.0310
 2465TIP3   OH228809   3.087   3.243   4.537  0.3099 -0.3484 -0.6057
 2465TIP3    H128810   3.009   3.237   4.592  0.6258  0.4744 -0.0442
 2465TIP3    H228811   3.142   3.170   4.565  0.6211  0.2624  0.4427
 2466TIP3   OH228812   1.192   1.757   3.891 -0.0507 -0.2988 -0.2815
 2466TIP3    H128813   1.225   1.690   3.951  1.9853 -0.3881 -1.4008
 2466TIP3    H228814   1.188   1.714   3.806 -0.7502  0.4292 -0.6296
 2467TIP3   OH228815   5.742   4.774   3.438 -0.4055  0.6555 -0.0528
 2467TIP3    H128816   5.813   4.730   3.484  1.0768 -0.5485 -3.2004
 2467TIP3    H228817   5.744   4.864   3.471  3.0658  0.8377 -0.4106
 2468TIP3   OH228818   1.066   4.173   4.928  0.1246 -0.7046 -1.4495
 2468TIP3    H128819   0.979   4.184   4.889 -0.9240 -0.3221  0.8375
 2468TIP3    H228820   1.051   4.121   5.007  1.8841 -0.1778 -0.7162
 2469TIP3   OH228821   3.991   4.032  15.852 -0.3360  0.1980 -0.0140
 2469TIP3    H128822   4.030   3.987  15.776  0.7725  1.1434 -0.0346
 2469TIP3    H228823   4.059   4.093  15.881 -2.1679  2.7538 -0.7271
 2470TIP3   OH228824   1.742   4.100  13.643 -0.7976  0.5681 -0.1320
 2470TIP3    H128825   1.777   4.154  13.572  0.5934  0.2565  0.2847
 2470TIP3    H228826   1.808   4.033  13.658 -1.4888  0.0656  0.8409
 2471TIP3   OH228827   3.568   6.312   2.506  0.3735 -0.6243 -0.0872
 2471TIP3    H128828   3.567   6.237   2.446  1.3341 -0.0191 -0.9073
 2471TIP3    H228829   3.650   6.302   2.555  1.9774  1.2973 -2.1539
 2472TIP3   OH228830   5.363   2.571   4.442 -0.1893 -0.2719 -0.2326
 2472TIP3    H128831   5.399   2.553   4.355  0.3199 -0.3698 -0.0079
 2472TIP3    H228832   5.309   2.649   4.430  1.0694  0.6204 -0.3588
 2473TIP3   OH228833   1.273   5.963   4.651 -0.1924 -0.1007  0.6380
 2473TIP3    H128834   1.316   5.878   4.659 -2.6758 -1.4748  0.3837
 2473TIP3    H228835   1.180   5.942   4.642 -0.8902  2.6616  0.5390
 2474TIP3   OH228836   0.274   1.257  13.707  0.3851  0.5672  0.2970
 2474TIP3    H128837   0.236   1.204  13.778  1.0741  0.9605  0.9757
 2474TIP3    H228838   0.213   1.247  13.634 -0.5073  0.4017  1.0469
 2475TIP3   OH228839   6.167   4.024  13.855 -0.0107  0.0770  0.1321
 2475TIP3    H128840   6.182   4.037  13.761 -1.7587  0.9816 -0.0672
 2475TIP3    H228841   6.197   3.935  13.872  3.4728  0.9595 -0.5270
 2476TIP3   OH228842   5.265   5.916   1.755  0.0602  0.0829 -0.2741
 2476TIP3    H128843   5.245   5.983   1.821 -0.1724 -0.5358  0.2964
 2476TIP3    H228844   5.350   5.881   1.782  0.2191  0.1969 -0.6184
 2477TIP3   OH228845   2.177   3.810   0.687 -0.0513 -0.0003 -0.0436
 2477TIP3    H128846   2.200   3.903   0.688  0.1812 -0.0603  0.3795
 2477TIP3    H228847   2.125   3.797   0.767 -0.0856 -0.2349 -0.1025
 2478TIP3   OH228848   2.551   6.254  14.183 -0.3544  0.2785 -0.3291
 2478TIP3    H128849   2.529   6.237  14.275  1.3268  0.3171  0.1028
 2478TIP3    H228850   2.516   6.342  14.166 -1.9707 -0.3081 -0.1891
 2479TIP3   OH228851   2.575   1.020  13.730 -0.0871  0.0827 -0.2447
 2479TIP3    H128852   2.606   0.998  13.643  0.8546  2.3338 -0.5570
 2479TIP3    H228853   2.635   0.976  13.790  0.2838 -0.1174 -0.7643
 2480TIP3   OH228854   1.123   0.846   5.486 -0.2520  0.2154  0.5622
 2480TIP3    H128855   1.057   0.870   5.421  0.7860 -1.4049 -1.1919
 2480TIP3    H228856   1.181   0.785   5.440  0.6842 -0.8295  2.9594
 2481TIP3   OH228857   4.445   5.494   0.436 -0.5851  0.7358  0.0748
 2481TIP3    H128858   4.517   5.549   0.407  0.5868 -0.7686  0.0209
 2481TIP3    H228859   4.439   5.508   0.530  0.1971  0.3918  0.1774
 2482TIP3   OH228860   4.145   5.475  14.238 -0.2139 -0.0812 -0.3220
 2482TIP3    H128861   4.219   5.494  14.296 -2.0374  0.7963  1.8915
 2482TIP3    H228862   4.173   5.398  14.188  2.2923  0.4247  0.1581
 2483TIP3   OH228863   3.390   6.253  14.136  0.2318 -0.8562  0.2167
 2483TIP3    H128864   3.419   6.303  14.060 -1.7967 -1.5879 -1.1328
 2483TIP3    H228865   3.406   6.161  14.112  2.2608 -1.0385  1.9324
 2484TIP3   OH228866   5.499   6.596  10.783  0.5447 -0.3474 -0.1521
 2484TIP3    H128867   5.476   6.531  10.717  0.9761 -1.4616  0.7592
 2484TIP3    H228868   5.496   6.680  10.736  1.2936 -1.1365 -1.7082
 2485TIP3   OH228869   4.159   1.097  12.574  0.1394 -0.1408  0.5919
 2485TIP3    H128870   4.255   1.092  12.569  0.0472 -0.6179 -2.7907
 2485TIP3    H228871   4.132   1.009  12.600  0.6070 -1.1789 -2.0523
 2486TIP3   OH228872   4.289   2.651  13.639 -0.1233  0.3851 -0.4437
 2486TIP3    H128873   4.195   2.652  13.618  0.0771 -3.1729 -2.3087
 2486TIP3    H228874   4.300   2.577  13.699  1.5538  0.1263 -1.0017
 2487TIP3   OH228875   4.890   4.265  12.258  0.2531 -0.0705 -0.0917
 2487TIP3    H128876   4.943   4.186  12.245  1.6995  0.4041  2.2894
 2487TIP3    H228877   4.843   4.249  12.340 -0.5664  0.9838 -0.3297
 2488TIP3   OH228878   1.265   0.962   2.552  0.4205 -0.6065 -0.3486
 2488TIP3    H128879   1.214   0.932   2.628 -1.4965 -1.3558 -1.8426
 2488TIP3    H228880   1.356   0.961   2.583 -0.3705  0.4430  2.3409
 2489TIP3   OH228881   0.443   2.661  10.888  0.8142  0.2327  0.3402
 2489TIP3    H128882   0.401   2.682  10.805 -0.5487 -0.0746  0.9374
 2489TIP3    H228883   0.535   2.647  10.865  0.8394  2.0114 -0.8166
 2490TIP3   OH228884   6.434   2.924   4.948 -0.5658 -0.1098  0.1914
 2490TIP3    H128885   6.369   2.991   4.970  1.2948  1.8854 -0.0312
 2490TIP3    H228886   6.509   2.945   5.003  0.3313 -1.6301 -0.3939
 2491TIP3   OH228887   5.676   5.533  17.040  0.1020  0.3354  0.7289
 2491TIP3    H128888   5.726   5.454  17.019 -0.9905  0.0550 -1.0221
 2491TIP3    H228889   5.589   5.500  17.065 -0.3723  0.9567 -0.0553
 2492TIP3   OH228890   2.223   0.050   6.172  0.1971  0.5516  0.2019
 2492TIP3    H128891   2.152   0.095   6.218 -0.0019  2.6796 -2.0235
 2492TIP3    H228892   2.303   0.096   6.198  0.2668  0.7416 -0.3271
 2493TIP3   OH228893   5.344   4.695   3.551 -0.0276  0.4005 -0.2469
 2493TIP3    H128894   5.417   4.658   3.502  1.4226  0.7786  1.5451
 2493TIP3    H228895   5.266   4.663   3.504  1.2390  0.2555 -2.3881
 2494TIP3   OH228896   0.776   3.654   0.755 -0.0547  0.7914 -0.3892
 2494TIP3    H128897   0.754   3.630   0.665 -0.7747  2.0100 -0.5549
 2494TIP3    H228898   0.706   3.617   0.808 -1.1985  2.4977 -0.6511
 2495TIP3   OH228899   0.539   3.892   4.921 -0.0339  0.4431  0.2508
 2495TIP3    H128900   0.491   3.965   4.881  1.0044  1.4619  0.8059
 2495TIP3    H228901   0.605   3.869   4.856 -0.1812  0.1887  0.1923
 2496TIP3   OH228902   3.363   4.585  15.659  0.8178 -0.0513 -0.2739
 2496TIP3    H128903   3.272   4.607  15.638  0.5253  1.1733  1.9370
 2496TIP3    H228904   3.408   4.587  15.574 -1.1361 -0.4263 -1.3860
 2497TIP3   OH228905   6.313   4.277  16.570  0.0185 -0.1963  0.3223
 2497TIP3    H128906   6.247   4.211  16.547 -1.7837  0.3004  3.4300
 2497TIP3    H228907   6.395   4.228  16.575 -1.1559 -2.1915  1.9742
 2498TIP3   OH228908   5.525   0.271   3.520 -0.5803  0.0153  0.3456
 2498TIP3    H128909   5.438   0.304   3.497 -0.5303 -0.0593  0.0458
 2498TIP3    H228910   5.510   0.213   3.594 -0.8822 -0.5512 -0.1549
 2499TIP3   OH228911   4.826   5.394   0.274 -0.3164 -0.8784 -0.8184
 2499TIP3    H128912   4.767   5.462   0.305 -0.8625 -1.2490 -1.0332
 2499TIP3    H228913   4.868   5.432   0.197 -2.4902 -1.6474 -2.4898
 2500TIP3   OH228914   0.205   2.405   4.847 -0.2441  0.6399 -0.3529
 2500TIP3    H128915   0.146   2.468   4.889 -0.3168  0.3616 -0.0243
 2500TIP3    H228916   0.238   2.449   4.769 -0.0923  1.1809  0.0149
 2501TIP3   OH228917   5.124   4.369  11.282 -0.1793  0.0520 -0.0665
 2501TIP3    H128918   5.162   4.286  11.309 -3.2939 -1.0634  1.2356
 2501TIP3    H228919   5.130   4.368  11.186  0.3503 -1.3852 -0.0350
 2502TIP3   OH228920   6.351   6.504   4.765  0.1589 -0.2899  0.3418
 2502TIP3    H128921   6.439   6.537   4.750 -0.4326  1.4492  0.5549
 2502TIP3    H228922   6.326   6.464   4.682  1.7868 -2.4775  0.7984
 2503TIP3   OH228923   1.078   5.484   4.823 -0.3281 -0.1353 -0.2891
 2503TIP3    H128924   1.039   5.449   4.743 -0.3213  0.0007 -0.3521
 2503TIP3    H228925   1.067   5.414   4.888  0.2394 -0.5043 -0.5781
 2504TIP3   OH228926   5.521   3.453   3.423  0.7128  0.9700 -0.2073
 2504TIP3    H128927   5.490   3.528   3.372 -0.0429  1.3878  0.8131
 2504TIP3    H228928   5.443   3.422   3.470  0.6555 -1.4447 -1.7384
 2505TIP3   OH228929   0.330   2.997  11.267 -0.0429  0.0998 -0.0547
 2505TIP3    H128930   0.372   3.043  11.195 -2.1195  0.7274 -0.9168
 2505TIP3    H228931   0.303   3.065  11.328  1.2695 -0.3921  1.1468
 2506TIP3   OH228932   2.617   4.797   3.977 -0.1232 -0.0705 -0.2258
 2506TIP3    H128933   2.637   4.766   4.066  0.3970 -2.4436 -1.0920
 2506TIP3    H228934   2.530   4.837   3.985 -0.0576 -0.1811  1.3605
 2507TIP3   OH228935   5.196   1.947   5.077 -0.0449 -0.8007 -0.2385
 2507TIP3    H128936   5.227   2.017   5.019  0.0194  0.5934  1.3996
 2507TIP3    H228937   5.103   1.937   5.054 -0.5300  1.1300  0.7017
 2508TIP3   OH228938   3.413   3.640   0.287  0.1419  0.1320 -0.3509
 2508TIP3    H128939   3.317   3.641   0.284  0.1675  0.9449 -1.4376
 2508TIP3    H228940   3.441   3.655   0.197  1.2919  0.4540  0.0354
 2509TIP3   OH228941   1.848   0.844   2.495  0.0447  0.4535  0.5596
 2509TIP3    H128942   1.869   0.763   2.542  1.8114  0.8048  0.4170
 2509TIP3    H228943   1.818   0.904   2.563  0.9566  0.4138  1.0033
 2510TIP3   OH228944   0.664   3.556   3.086  0.3593 -0.0331  0.1028
 2510TIP3    H128945   0.597   3.496   3.052  2.3374 -1.8128 -0.8449
 2510TIP3    H228946   0.691   3.607   3.010  0.3935  0.3659  0.3830
 2511TIP3   OH228947   1.979   0.450  15.681 -0.1217 -0.3509  0.0115
 2511TIP3    H128948   2.004   0.374  15.734  0.7539  1.4180  2.2854
 2511TIP3    H228949   2.033   0.443  15.603  1.8696 -0.7633  1.3475
 2512TIP3   OH228950   4.790   5.184  15.078 -0.0578 -0.4534  0.4278
 2512TIP3    H128951   4.758   5.273  15.097  1.2410 -0.1149  1.1292
 2512TIP3    H228952   4.753   5.164  14.992 -1.9675 -0.0231  1.0891
 2513TIP3   OH228953   3.463   0.997   5.928 -0.3454  0.4579 -0.5136
 2513TIP3    H128954   3.417   0.915   5.946 -0.7417  0.4639 -1.4707
 2513TIP3    H228955   3.533   0.999   5.993 -0.1831 -0.7611 -0.6170
 2514TIP3   OH228956   6.679   2.523  10.183 -0.3075 -0.3758  0.1073
 2514TIP3    H128957   6.648   2.606  10.146  1.1775  0.2185  0.0998
 2514TIP3    H228958   6.698   2.468  10.107 -1.6753 -0.8918  0.1199
 2515TIP3   OH228959   6.366   5.904   4.969  0.4159 -0.0209  0.1315
 2515TIP3    H128960   6.386   5.997   4.963  0.3257  0.0428  0.7655
 2515TIP3    H228961   6.328   5.882   4.883  0.2480  0.5678  0.0497
 2516TIP3   OH228962   6.583   0.268  15.953  0.1792 -0.3794  0.6380
 2516TIP3    H128963   6.549   0.213  15.882 -1.2407  0.6093  0.5257
 2516TIP3    H228964   6.557   0.223  16.033  0.7795 -0.8974  0.5516
 2517TIP3   OH228965   6.437   4.435  11.628 -0.2218 -0.5551  0.5380
 2517TIP3    H128966   6.490   4.496  11.574  2.0917  1.0574  4.2225
 2517TIP3    H228967   6.446   4.351  11.584  0.5295  0.8111 -2.1725
 2518TIP3   OH228968   6.719   4.564  11.184  0.1020 -0.3088  0.2495
 2518TIP3    H128969   6.731   4.583  11.091  1.0272 -0.4444  0.3328
 2518TIP3    H228970   6.801   4.521  11.211 -0.6306 -1.3994  0.8316
 2519TIP3   OH228971   1.555   3.702   0.438 -0.4088  0.1233  0.1741
 2519TIP3    H128972   1.640   3.673   0.470 -0.3657  0.5185  0.4248
 2519TIP3    H228973   1.562   3.697   0.342  0.7177  2.3663  0.0675
 2520TIP3   OH228974   3.638   4.490   5.223 -0.4943 -0.0833  0.3220
 2520TIP3    H128975   3.706   4.508   5.158 -1.0952 -0.5463 -0.4468
 2520TIP3    H228976   3.686   4.457   5.300  0.2525  0.8060  0.2574
 2521TIP3   OH228977   4.420   1.511  15.546 -0.4747 -0.0698  0.4759
 2521TIP3    H128978   4.366   1.504  15.467 -0.5731  1.2500  0.4057
 2521TIP3    H228979   4.358   1.511  15.618 -0.4072 -0.9153  0.5402
 2522TIP3   OH228980   2.483   6.085  16.291 -0.0007  0.2397  0.5516
 2522TIP3    H128981   2.408   6.145  16.292  0.7655  1.2248  1.2828
 2522TIP3    H228982   2.505   6.074  16.383  1.8259  1.3884  0.2997
 2523TIP3   OH228983   5.916   0.596   0.970 -0.2638  0.6027  0.4071
 2523TIP3    H128984   5.829   0.559   0.956 -0.8576  1.7156  1.0646
 2523TIP3    H228985   5.903   0.690   0.975  0.8343  0.7355  1.4823
 2524TIP3   OH228986   2.837   2.418  11.815 -0.2151 -0.0669  0.1119
 2524TIP3    H128987   2.834   2.350  11.747  0.3502 -1.0196  1.0196
 2524TIP3    H228988   2.781   2.488  11.780  0.7089 -0.1656 -1.7133
 2525TIP3   OH228989   2.729   0.535  16.374 -0.3271 -0.0531 -0.0477
 2525TIP3    H128990   2.675   0.464  16.408  1.9703 -1.3000  1.2130
 2525TIP3    H228991   2.781   0.494  16.305  0.2205  0.6756 -0.0755
 2526TIP3   OH228992   6.793   2.182   4.018  0.6197 -0.4119  0.4179
 2526TIP3    H128993   6.705   2.173   3.982  0.2815  0.2652  1.0550
 2526TIP3    H228994   6.818   2.094   4.044  0.9382 -0.9646 -1.5879
 2527TIP3   OH228995   3.925   1.803   3.753  0.2040  0.1829  0.3626
 2527TIP3    H128996   3.947   1.837   3.666  0.2761  2.3310  1.1651
 2527TIP3    H228997   4.008   1.771   3.788  0.4535  0.6016  0.1658
 2528TIP3   OH228998   0.480   6.465   0.019 -0.0628 -0.1938 -0.4590
 2528TIP3    H128999   0.468   6.557  -0.006 -1.0861 -0.2280 -0.1500
 2528TIP3    H229000   0.561   6.439  -0.024  1.1672  1.3295  0.7809
 2529TIP3   OH229001   0.244   5.634  13.131  0.8670  0.7193 -0.5084
 2529TIP3    H129002   0.281   5.546  13.135  1.1349  0.8244 -0.6433
 2529TIP3    H229003   0.196   5.644  13.214 -0.1914  0.0092 -1.0217
 2530TIP3   OH229004   6.207   6.523   1.401 -0.4509  0.0376 -0.1469
 2530TIP3    H129005   6.202   6.616   1.422  2.1347 -0.0054  1.1063
 2530TIP3    H229006   6.287   6.515   1.348 -1.6305 -1.2626 -1.8423
 2531TIP3   OH229007   3.203   5.841   4.619 -0.0691 -0.1989 -0.6845
 2531TIP3    H129008   3.182   5.918   4.567 -1.0296 -0.0037 -0.0354
 2531TIP3    H229009   3.128   5.783   4.606 -0.1694 -0.2789  0.2162
 2532TIP3   OH229010   6.779   3.812   6.100 -0.3768 -0.2646 -0.7184
 2532TIP3    H129011   6.783   3.717   6.108 -1.1025 -0.1883  1.0677
 2532TIP3    H229012   6.723   3.828   6.024 -0.4095 -1.2600 -0.9073
 2533TIP3   OH229013   0.965   4.020   5.587 -0.2956  0.4282 -0.1407
 2533TIP3    H129014   1.056   3.992   5.576  0.3678  2.0708  0.8103
 2533TIP3    H229015   0.914   3.940   5.578  1.2336 -0.5128 -0.7925
 2534TIP3   OH229016   0.772   2.386   2.878  0.4155 -0.8741 -0.1849
 2534TIP3    H129017   0.817   2.439   2.944 -1.8386  0.9724 -0.0059
 2534TIP3    H229018   0.770   2.298   2.915  1.1523 -0.3492  1.1811
 2535TIP3   OH229019   2.648   2.932   1.660  0.4509  0.4946 -0.2612
 2535TIP3    H129020   2.589   3.006   1.673  0.8784  0.9941 -1.0904
 2535TIP3    H229021   2.709   2.961   1.593 -0.7838 -1.4106 -2.3414
 2536TIP3   OH229022   5.995   2.955   1.458  0.2336  0.5032  0.5226
 2536TIP3    H129023   6.007   2.892   1.529  1.1085  0.4153  0.3012
 2536TIP3    H229024   6.001   3.041   1.501  0.1511  0.4480  0.6461
 2537TIP3   OH229025   0.503   3.461   1.612  0.2094 -0.2728  0.1807
 2537TIP3    H129026   0.409   3.456   1.630  0.5239 -0.3618  1.9840
 2537TIP3    H229027   0.538   3.520   1.680  1.2891  0.7990 -1.2296
 2538TIP3   OH229028   0.884   4.953  10.912  0.8357 -0.3781  0.5471
 2538TIP3    H129029   0.927   5.033  10.881  1.4782 -0.3553  1.4475
 2538TIP3    H229030   0.932   4.930  10.992  0.3927 -1.4339  0.5215
 2539TIP3   OH229031   5.463   2.854  12.039  0.1328  0.3216 -0.4969
 2539TIP3    H129032   5.409   2.777  12.020  0.4432 -0.0366  0.0308
 2539TIP3    H229033   5.542   2.818  12.080 -0.7478  1.0558  2.0157
 2540TIP3   OH229034   2.840   1.149  13.617  0.4705 -0.7013  0.1504
 2540TIP3    H129035   2.901   1.114  13.683 -0.6608  0.2088  1.7481
 2540TIP3    H229036   2.813   1.072  13.567  0.9018 -1.5241  1.1434
 2541TIP3   OH229037   6.406   0.077  14.408 -0.4182 -0.0965 -0.1137
 2541TIP3    H129038   6.384  -0.016  14.408  0.0493 -0.2103  0.1944
 2541TIP3    H229039   6.444   0.093  14.494  0.3820  0.1615 -0.5046
 2542TIP3   OH229040   0.429   2.023  14.145  0.6325  0.2331  0.7148
 2542TIP3    H129041   0.474   2.099  14.107 -0.2936 -0.6649 -2.5865
 2542TIP3    H229042   0.338   2.032  14.116  0.6794 -2.5406 -0.6716
 2543TIP3   OH229043   5.364   5.176   1.197  0.0795  0.5230  0.2469
 2543TIP3    H129044   5.368   5.123   1.276 -1.2851  3.2342  2.3017
 2543TIP3    H229045   5.285   5.147   1.152  0.7754 -0.9279 -0.0935
 2544TIP3   OH229046   1.160   4.654  11.751 -0.0631 -0.0326 -0.1912
 2544TIP3    H129047   1.150   4.699  11.835  1.8572 -0.7659  0.4691
 2544TIP3    H229048   1.211   4.715  11.697  0.8924 -0.6063  0.0538
 2545TIP3   OH229049   2.374   1.080  16.183 -0.1287 -0.0216 -0.1525
 2545TIP3    H129050   2.424   1.154  16.150  0.4086 -0.1189  0.4421
 2545TIP3    H229051   2.288   1.088  16.141 -0.7283  1.9952  1.3156
 2546TIP3   OH229052   4.310   0.879   2.690  0.7636  0.1548  0.3148
 2546TIP3    H129053   4.291   0.889   2.784 -0.6631  0.1245  0.0475
 2546TIP3    H229054   4.257   0.947   2.648 -0.0464 -1.0125 -0.6114
 2547TIP3   OH229055   3.964   0.415   5.760 -0.5090 -0.2148 -0.2261
 2547TIP3    H129056   4.001   0.462   5.834  0.4540 -1.8039  0.3318
 2547TIP3    H229057   3.885   0.374   5.795 -0.9729  0.3769 -0.5415
 2548TIP3   OH229058   2.984   0.024  14.338  0.3741  0.3511 -0.3410
 2548TIP3    H129059   2.978   0.100  14.396 -1.0653  0.0192 -0.0077
 2548TIP3    H229060   2.900   0.022  14.292  0.4035 -0.9908 -0.3908
 2549TIP3   OH229061   3.946   1.204   5.623 -0.4065 -0.1879 -0.5788
 2549TIP3    H129062   4.017   1.153   5.583  1.2323  0.1721  1.7244
 2549TIP3    H229063   3.990   1.269   5.678 -2.5098  0.1149  0.8660
 2550TIP3   OH229064   0.196   6.665  13.907  0.0844  0.2016 -0.2029
 2550TIP3    H129065   0.167   6.577  13.883 -0.9362  0.6860 -0.8439
 2550TIP3    H229066   0.173   6.719  13.832  1.7809  0.8309 -0.3148
 2551TIP3   OH229067   6.724   4.126   3.032  0.2883 -0.4890  0.2457
 2551TIP3    H129068   6.785   4.177   2.980 -0.1664  1.0621  1.1676
 2551TIP3    H229069   6.675   4.074   2.968 -0.1054  1.1861 -0.8811
 2552TIP3   OH229070   0.107   4.422  13.511 -0.0479  0.0541 -0.1620
 2552TIP3    H129071   0.158   4.503  13.507  0.3282 -0.2021 -0.7233
 2552TIP3    H229072   0.028   4.442  13.461 -0.6131  0.5180  0.8846
 2553TIP3   OH229073   4.393   0.944   1.860  0.2635 -0.1136  0.4571
 2553TIP3    H129074   4.382   1.037   1.879  1.2073  0.1730 -0.3047
 2553TIP3    H229075   4.480   0.938   1.821  1.4471 -1.7176  3.0458
 2554TIP3   OH229076   6.063   3.188   5.537  0.3880 -0.2116 -0.2573
 2554TIP3    H129077   6.104   3.132   5.471  1.1315  0.1804 -0.1417
 2554TIP3    H229078   6.137   3.231   5.581 -0.1778  1.1480 -0.5825
 2555TIP3   OH229079   5.210   3.886  15.684  0.3345 -0.1297  0.3098
 2555TIP3    H129080   5.280   3.844  15.633 -0.2602  0.1251 -0.7519
 2555TIP3    H229081   5.254   3.955  15.733  0.9709 -0.5614  0.3628
 2556TIP3   OH229082   5.618   3.997  11.874 -0.2871 -0.0906 -0.3245
 2556TIP3    H129083   5.656   4.084  11.890 -1.8672  0.8303 -1.2980
 2556TIP3    H229084   5.535   3.998  11.922 -0.9197 -0.5617 -1.3744
 2557TIP3   OH229085   4.623   6.713   5.181  0.5983  0.7729 -0.2406
 2557TIP3    H129086   4.623   6.736   5.274  1.1912 -1.6907  0.4319
 2557TIP3    H229087   4.713   6.690   5.162  0.6498  2.0167 -1.6875
 2558TIP3   OH229088   1.226   0.011  15.386  0.3316  0.0237  0.1115
 2558TIP3    H129089   1.296   0.060  15.430  1.1647 -1.6034  0.7105
 2558TIP3    H229090   1.271  -0.062  15.344 -0.7467  0.2530 -1.5643
 2559TIP3   OH229091   1.906   3.259   2.778 -0.2547  0.5452 -0.3863
 2559TIP3    H129092   1.969   3.194   2.745  0.4437  0.6483  0.6953
 2559TIP3    H229093   1.883   3.311   2.701 -2.7772 -2.4495 -1.9357
 2560TIP3   OH229094   3.979   3.768   0.816 -0.3506  0.2180  0.5323
 2560TIP3    H129095   4.051   3.709   0.838 -0.0711  0.5770  0.5884
 2560TIP3    H229096   3.926   3.718   0.754 -0.2389 -0.1744  0.7445
 2561TIP3   OH229097   4.355   3.284   4.204  0.2058  0.4032  0.7404
 2561TIP3    H129098   4.385   3.375   4.201 -0.6163  0.6825  0.8130
 2561TIP3    H229099   4.308   3.277   4.288  0.0735 -0.0249  0.6329
 2562TIP3   OH229100   6.616   4.430  16.949  0.0708 -0.1233 -0.4126
 2562TIP3    H129101   6.584   4.492  16.884  1.5475  0.3423 -0.7407
 2562TIP3    H229102   6.670   4.368  16.898 -0.3572 -0.9263  0.0927
 2563TIP3   OH229103   5.613   5.947   4.351 -0.1501 -0.1338 -0.0726
 2563TIP3    H129104   5.652   5.897   4.423 -0.6102 -0.1196  0.1932
 2563TIP3    H229105   5.687   5.973   4.297  0.1874 -0.2848  0.3101
 2564TIP3   OH229106   6.612   6.492  12.560 -0.1404 -0.2980  0.1681
 2564TIP3    H129107   6.664   6.567  12.590 -1.4964  0.2149  1.2978
 2564TIP3    H229108   6.542   6.484  12.624 -1.0662 -1.4188 -0.9488
 2565TIP3   OH229109   3.820   0.801   3.075 -0.4254  0.2793  0.4329
 2565TIP3    H129110   3.883   0.729   3.072 -1.7188 -0.8786 -2.2206
 2565TIP3    H229111   3.754   0.773   3.138 -0.1428 -0.1816  0.5284
 2566TIP3   OH229112   3.826   5.516  10.805 -0.1242 -0.3852 -0.2071
 2566TIP3    H129113   3.791   5.487  10.721 -1.9838  1.8322 -0.3025
 2566TIP3    H229114   3.889   5.584  10.783  0.5780 -0.8893  0.1769
 2567TIP3   OH229115   0.934   3.366  12.347 -0.6290  0.1981 -0.0077
 2567TIP3    H129116   0.982   3.291  12.313 -1.7812  0.4795 -2.4558
 2567TIP3    H229117   0.952   3.365  12.441  0.7358 -2.1293 -0.2152
 2568TIP3   OH229118   2.048   0.651  13.338  0.3943  1.0119 -0.3391
 2568TIP3    H129119   1.960   0.687  13.329  0.3290  1.1048  0.6291
 2568TIP3    H229120   2.084   0.654  13.249 -1.0195 -0.2011 -0.9918
 2569TIP3   OH229121   5.235   2.286  16.976 -0.0311 -0.8448 -0.2243
 2569TIP3    H129122   5.302   2.251  17.034 -1.1890 -1.3587  0.8494
 2569TIP3    H229123   5.180   2.340  17.034  0.7176  1.4317 -1.4959
 2570TIP3   OH229124   1.804   3.790   5.346  0.3861  0.0005 -0.3097
 2570TIP3    H129125   1.783   3.713   5.398 -0.4063 -0.0339 -0.6617
 2570TIP3    H229126   1.725   3.806   5.294  0.3351  1.3561  0.1426
 2571TIP3   OH229127   2.466   5.647   2.909  0.1949  0.2950  0.6193
 2571TIP3    H129128   2.427   5.568   2.872  1.0819  1.1247 -2.2989
 2571TIP3    H229129   2.472   5.709   2.837  2.5673  1.8663  1.9833
 2572TIP3   OH229130   2.800   2.468  13.388 -0.2703 -0.2710 -0.5057
 2572TIP3    H129131   2.772   2.555  13.418  1.1925  0.6830 -1.7555
 2572TIP3    H229132   2.867   2.442  13.451  0.4037  0.2288 -0.9998
 2573TIP3   OH229133   6.262   5.690   1.510 -0.4433  0.4948 -0.5594
 2573TIP3    H129134   6.345   5.648   1.534  0.9235  2.5498 -1.3954
 2573TIP3    H229135   6.207   5.678   1.587  1.4006  0.9643  0.9162
 2574TIP3   OH229136   3.425   6.741  15.160  0.7274  0.3585  0.6563
 2574TIP3    H129137   3.511   6.743  15.119  0.7438  0.5756  0.7019
 2574TIP3    H229138   3.431   6.802  15.232  0.3334  0.8848  0.2508
 2575TIP3   OH229139   4.552   1.458   3.050  0.2717  0.2520  0.3462
 2575TIP3    H129140   4.456   1.461   3.041  0.4879  0.9094 -2.8400
 2575TIP3    H229141   4.571   1.364   3.061 -0.6647 -0.0864 -0.6990
 2576TIP3   OH229142   5.882   4.876  14.395 -0.4853  0.1269 -0.5388
 2576TIP3    H129143   5.822   4.806  14.420 -0.2531 -0.0247 -0.4022
 2576TIP3    H229144   5.908   4.855  14.305 -0.8959  0.3766 -0.7231
 2577TIP3   OH229145   6.366   1.963   1.384 -0.0340  0.0441 -0.2039
 2577TIP3    H129146   6.275   1.933   1.376 -0.0460  0.0318 -0.0306
 2577TIP3    H229147   6.371   2.001   1.472 -0.3726  1.7541 -0.8811
 2578TIP3   OH229148   3.779   0.330  12.824  0.0008  0.0500 -0.1193
 2578TIP3    H129149   3.761   0.243  12.860 -0.0817  0.4163  0.7491
 2578TIP3    H229150   3.708   0.344  12.761 -0.1438 -0.3932 -0.0644
 2579TIP3   OH229151   6.274   0.403  16.648 -0.0279 -0.8449  0.0253
 2579TIP3    H129152   6.350   0.429  16.594  0.1129 -1.8022 -0.2559
 2579TIP3    H229153   6.202   0.394  16.585  0.1521 -2.0285 -0.0409
 2580TIP3   OH229154   2.131   4.754  12.704 -0.1983 -0.0828  0.3424
 2580TIP3    H129155   2.051   4.800  12.681 -1.2597 -2.0827 -0.1433
 2580TIP3    H229156   2.146   4.692  12.633  3.6034  2.2981 -1.2567
 2581TIP3   OH229157   2.615   1.570  11.128  0.0542 -0.3540  0.6076
 2581TIP3    H129158   2.694   1.622  11.144  0.2406 -0.9449  1.7397
 2581TIP3    H229159   2.544   1.623  11.163 -0.0174  0.0404 -0.1264
 2582TIP3   OH229160   1.674   4.230   2.913 -0.2089 -0.1279  0.2150
 2582TIP3    H129161   1.721   4.177   2.978 -1.1605 -1.8669 -0.4612
 2582TIP3    H229162   1.693   4.187   2.829 -0.0765  1.3115 -0.5188
 2583TIP3   OH229163   1.241   1.768  15.494 -0.1582 -0.0955 -0.6982
 2583TIP3    H129164   1.196   1.831  15.438  2.4236  4.8670  2.0995
 2583TIP3    H229165   1.329   1.761  15.456 -0.0940 -1.2749 -0.3651
 2584TIP3   OH229166   1.411   1.168   2.063  0.2690 -0.4106  0.2714
 2584TIP3    H129167   1.448   1.196   2.147 -0.3953  0.0273  0.4340
 2584TIP3    H229168   1.353   1.240   2.038  0.6627 -0.4241 -0.7016
 2585TIP3   OH229169   2.611   4.289  10.839 -0.2615 -0.5038  0.4855
 2585TIP3    H129170   2.675   4.241  10.891 -0.1657  0.1215  0.9472
 2585TIP3    H229171   2.653   4.372  10.818 -0.4465 -0.5876 -0.2707
 2586TIP3   OH229172   1.821   1.616   3.090  0.4806  0.1357  0.6339
 2586TIP3    H129173   1.882   1.650   3.155 -1.6058  1.7180  1.8844
 2586TIP3    H229174   1.801   1.692   3.035  1.6378 -1.0070 -1.4685
 2587TIP3   OH229175   5.661   4.943  14.168 -0.2136  0.1163 -0.5128
 2587TIP3    H129176   5.751   4.949  14.201 -0.7848 -0.0143  1.1602
 2587TIP3    H229177   5.641   5.032  14.138  0.4677  0.1405 -0.9139
 2588TIP3   OH229178   6.271   6.009   2.908 -0.5873 -0.5760  0.0050
 2588TIP3    H129179   6.195   5.954   2.887 -0.8075 -0.4710  0.5157
 2588TIP3    H229180   6.312   6.026   2.823 -2.6827  1.5914 -0.6872
 2589TIP3   OH229181   3.260   6.275  11.889 -0.9508 -0.3799  0.2503
 2589TIP3    H129182   3.270   6.181  11.881 -2.2618 -0.6998  1.8562
 2589TIP3    H229183   3.270   6.308  11.800  0.1831 -1.9408 -0.2385
 2590TIP3   OH229184   6.716   6.010  15.574  0.2978 -0.3287  0.6400
 2590TIP3    H129185   6.643   5.974  15.624 -1.5740  2.2601 -0.0726
 2590TIP3    H229186   6.716   5.960  15.492 -1.5411  0.4905  0.1074
 2591TIP3   OH229187   4.817   5.772  15.562  0.3547  0.3726  0.6430
 2591TIP3    H129188   4.905   5.734  15.557  0.1988  0.1259 -0.5045
 2591TIP3    H229189   4.812   5.810  15.650  2.0535  1.4863  0.3135
 2592TIP3   OH229190   0.583   4.128  15.005 -0.2419  0.3274 -0.5219
 2592TIP3    H129191   0.581   4.192  14.933 -0.3069  0.6988 -0.1919
 2592TIP3    H229192   0.540   4.050  14.969  0.9742  0.0061 -1.3554
 2593TIP3   OH229193   6.157   4.214  14.292 -0.3892 -0.1881 -0.0483
 2593TIP3    H129194   6.218   4.146  14.318 -0.1266  0.2697  0.5333
 2593TIP3    H229195   6.178   4.289  14.347 -2.7863 -0.6352  1.6634
 2594TIP3   OH229196   2.580   4.304  13.307 -0.0118 -0.6622  0.4482
 2594TIP3    H129197   2.532   4.316  13.389 -0.7724 -0.7812  0.0302
 2594TIP3    H229198   2.525   4.345  13.240  0.3057 -1.0952 -0.0901
 2595TIP3   OH229199   0.255   0.785  15.064 -0.2808  0.1013 -0.0228
 2595TIP3    H129200   0.255   0.689  15.057 -0.3808  0.1478 -0.8397
 2595TIP3    H229201   0.238   0.815  14.974  1.3069  0.9084 -0.0879
 2596TIP3   OH229202   0.328   1.894   4.119 -0.3063 -0.6979 -0.3758
 2596TIP3    H129203   0.366   1.972   4.080 -2.4805  0.5655 -0.0733
 2596TIP3    H229204   0.282   1.851   4.048  1.1679 -1.9671 -0.6255
 2597TIP3   OH229205   1.219   0.056   5.284 -0.2677 -0.1729 -0.2367
 2597TIP3    H129206   1.156  -0.006   5.319  0.4847 -0.7384  0.1557
 2597TIP3    H229207   1.299   0.004   5.270 -0.9697 -0.4830 -4.5307
 2598TIP3   OH229208   6.331   4.453  12.081 -0.0214  0.0708  0.2635
 2598TIP3    H129209   6.402   4.487  12.026  1.3321 -0.4986  1.5909
 2598TIP3    H229210   6.263   4.428  12.019 -0.6105  3.9301 -0.9114
 2599TIP3   OH229211   0.529   4.166   5.090  0.5236 -0.0346 -0.0589
 2599TIP3    H129212   0.570   4.183   5.005 -3.2494  0.5582 -1.9866
 2599TIP3    H229213   0.535   4.249   5.137  0.8590  0.2457 -0.5894
 2600TIP3   OH229214   5.411   2.951   6.165 -0.4201  0.2730 -0.7187
 2600TIP3    H129215   5.361   3.020   6.209 -1.0054 -0.3929 -0.3111
 2600TIP3    H229216   5.467   2.997   6.103 -0.7921  1.1134 -0.4392
 2601TIP3   OH229217   1.182   6.143   3.122  0.2825 -0.4918  0.2085
 2601TIP3    H129218   1.112   6.208   3.122  2.9025  2.5632 -0.2382
 2601TIP3    H229219   1.212   6.139   3.213  0.9902 -0.0757 -0.0042
 2602TIP3   OH229220   2.630   2.039   5.735 -0.0710  0.3301 -0.4396
 2602TIP3    H129221   2.618   1.944   5.738 -3.4583  0.6620  0.5260
 2602TIP3    H229222   2.677   2.060   5.816 -0.7133 -0.3904  0.1335
 2603TIP3   OH229223   3.559   4.234   4.260 -0.2285  0.3265  0.6808
 2603TIP3    H129224   3.501   4.175   4.212 -1.2022 -0.4356  2.6749
 2603TIP3    H229225   3.504   4.273   4.328  1.3592  0.2163  2.1162
 2604TIP3   OH229226   2.341   3.955   3.508 -0.4501 -0.6962  0.0442
 2604TIP3    H129227   2.319   4.042   3.542  0.1247 -0.5307  0.0231
 2604TIP3    H229228   2.399   3.917   3.574 -0.7046 -1.0677  0.0550
 2605TIP3   OH229229   6.553   1.521   6.025  0.1048 -0.1812 -0.2707
 2605TIP3    H129230   6.619   1.499   6.090  0.0106 -0.3740 -0.2407
 2605TIP3    H229231   6.579   1.608   5.993 -0.0442  0.0640  0.2731
 2606TIP3   OH229232   1.677   1.243  12.773  0.1264  0.9461  0.0753
 2606TIP3    H129233   1.647   1.179  12.838  0.3451 -0.1282 -0.8390
 2606TIP3    H229234   1.771   1.225  12.763 -0.0464  0.5891 -1.0563
 2607TIP3   OH229235   3.053   4.321  16.520  0.1320 -0.0046 -0.3855
 2607TIP3    H129236   3.024   4.388  16.581 -1.0207 -0.4863 -0.3906
 2607TIP3    H229237   3.106   4.368  16.455 -0.3845  0.8354 -0.2017
 2608TIP3   OH229238   6.253   0.142  11.609 -0.1672 -0.2404  0.3358
 2608TIP3    H129239   6.282   0.069  11.555 -3.2741  0.1363 -2.1459
 2608TIP3    H229240   6.297   0.219  11.572 -0.6314 -0.2639 -0.2746
 2609TIP3   OH229241   6.296   5.229  14.673  0.5480 -0.4652 -0.5507
 2609TIP3    H129242   6.344   5.209  14.592  1.0564  0.8146 -0.5906
 2609TIP3    H229243   6.364   5.247  14.737  0.1329  0.2172 -0.2954
 2610TIP3   OH229244   6.592   5.006   4.728  0.1593  0.0164  1.3780
 2610TIP3    H129245   6.637   5.082   4.763 -0.2038 -0.6374  3.4014
 2610TIP3    H229246   6.514   4.996   4.783 -0.3675 -1.1789  0.4720
 2611TIP3   OH229247   4.834   3.477  10.979 -0.0436  0.6807  0.2883
 2611TIP3    H129248   4.848   3.557  10.928  0.9767  0.7232  0.6145
 2611TIP3    H229249   4.911   3.471  11.036 -0.6486  0.0645  1.0626
 2612TIP3   OH229250   2.254   5.448  10.879  0.9628  0.1663  0.0229
 2612TIP3    H129251   2.291   5.536  10.867 -0.9944  1.2154  1.2529
 2612TIP3    H229252   2.160   5.459  10.863  0.5223 -1.4976  1.2051
 2613TIP3   OH229253   1.738   2.441   2.981  0.1596 -0.4001  1.1074
 2613TIP3    H129254   1.653   2.405   3.006 -1.5798  3.2437  1.1994
 2613TIP3    H229255   1.772   2.480   3.061  0.6577  0.3678  0.5381
 2614TIP3   OH229256   4.455   2.281   4.077  0.0438 -0.0942  0.3368
 2614TIP3    H129257   4.489   2.247   3.994 -2.4697 -0.9556 -0.4513
 2614TIP3    H229258   4.462   2.376   4.069  0.1093 -0.1766 -0.7595
 2615TIP3   OH229259   6.295   2.388   4.961 -0.6425  0.0057 -0.2476
 2615TIP3    H129260   6.313   2.481   4.947 -0.9604 -0.0924 -1.3504
 2615TIP3    H229261   6.341   2.367   5.042  0.6969  0.7724 -0.7787
 2616TIP3   OH229262   6.006   3.182  13.269  0.0522 -0.0073  0.5069
 2616TIP3    H129263   5.930   3.194  13.327 -1.0474  0.0953 -0.8930
 2616TIP3    H229264   6.041   3.270  13.258 -0.8835  0.2718 -0.4364
 2617TIP3   OH229265   2.919   1.885  13.581 -0.1063  0.4563  0.5061
 2617TIP3    H129266   2.981   1.842  13.522 -2.1224  0.2378 -1.5661
 2617TIP3    H229267   2.898   1.968  13.538 -2.2344 -0.0602  0.4271
 2618TIP3   OH229268   4.358   0.722  11.060  0.6044  0.0586 -0.2710
 2618TIP3    H129269   4.301   0.756  11.130  0.3181 -1.0158  0.0527
 2618TIP3    H229270   4.435   0.689  11.106  0.3378 -0.8162 -0.4212
 2619TIP3   OH229271   1.719   3.679  13.643  0.1658 -0.0791 -0.1295
 2619TIP3    H129272   1.717   3.686  13.738 -0.1333  1.4786 -0.2178
 2619TIP3    H229273   1.803   3.636  13.624  1.6458  2.1886  0.7668
 2620TIP3   OH229274   0.534   3.284   2.271 -0.0815  0.4558  0.1290
 2620TIP3    H129275   0.614   3.264   2.223  0.4041  1.3635  0.5425
 2620TIP3    H229276   0.468   3.226   2.232  0.4437  0.6910 -1.1555
 2621TIP3   OH229277   4.114   5.124  11.569  0.1824  0.3905  0.0559
 2621TIP3    H129278   4.153   5.061  11.630 -2.4955  0.0105  1.5439
 2621TIP3    H229279   4.088   5.072  11.494 -2.8597 -0.6622  1.6624
 2622TIP3   OH229280   1.180   5.729   1.698  0.0092 -0.5281 -0.5655
 2622TIP3    H129281   1.185   5.802   1.759 -0.8723  0.0959 -1.2187
 2622TIP3    H229282   1.254   5.742   1.639  0.9712 -1.2337  0.4405
 2623TIP3   OH229283   1.493   4.517   4.502  0.1847 -0.1451  0.2162
 2623TIP3    H129284   1.576   4.546   4.541  1.5224 -1.9151 -1.1566
 2623TIP3    H229285   1.462   4.448   4.561  0.0328  0.0576  0.3738
 2624TIP3   OH229286   2.217   1.778  16.028 -0.3880  0.2927  0.4926
 2624TIP3    H129287   2.171   1.827  16.097  1.2728 -0.2204  2.0299
 2624TIP3    H229288   2.152   1.715  15.997 -1.7611  1.7499  0.2484
 2625TIP3   OH229289   0.064   5.137   5.674  0.6351  0.1777 -0.5361
 2625TIP3    H129290  -0.015   5.185   5.700 -0.1049 -0.0428 -2.2605
 2625TIP3    H229291   0.053   5.050   5.712  0.6123  0.4685  0.1575
 2626TIP3   OH229292   3.104   2.590   3.210  0.3483 -0.4786  0.1079
 2626TIP3    H129293   3.166   2.585   3.137  0.9458 -0.7258  0.6142
 2626TIP3    H229294   3.047   2.664   3.189  1.0865  0.0229 -0.1781
 2627TIP3   OH229295   6.502   5.816  14.303 -0.0622 -0.1461  0.5341
 2627TIP3    H129296   6.543   5.898  14.331  1.9357 -0.9723  0.2284
 2627TIP3    H229297   6.526   5.808  14.211 -2.0905 -0.0518 -0.0591
 2628TIP3   OH229298   3.579   0.843   2.383  0.0451 -0.0568  0.2335
 2628TIP3    H129299   3.605   0.783   2.453  1.5955 -1.4855 -1.4455
 2628TIP3    H229300   3.662   0.882   2.355 -0.6087  0.7977 -0.5427
 2629TIP3   OH229301   2.922   5.571   6.253 -0.4699  0.3444 -0.1311
 2629TIP3    H129302   2.833   5.576   6.288 -0.2739 -0.2080  0.4811
 2629TIP3    H229303   2.977   5.601   6.325 -0.2464  2.4369 -1.0863
 2630TIP3   OH229304   1.376   4.436  13.531  0.0563 -0.1050  0.3737
 2630TIP3    H129305   1.392   4.342  13.517 -1.2506 -0.2805 -0.1127
 2630TIP3    H229306   1.439   4.479  13.474 -0.2000 -0.7228 -0.3998
 2631TIP3   OH229307   4.203   1.990  10.695  0.4045 -0.6702  0.1071
 2631TIP3    H129308   4.284   1.993  10.644  2.0484 -1.0725  2.5594
 2631TIP3    H229309   4.230   2.007  10.785 -2.4390  0.4639  0.8498
 2632TIP3   OH229310   0.420   2.691   3.977  0.4443 -0.0934  0.2766
 2632TIP3    H129311   0.405   2.778   3.940 -0.8088 -0.2741  0.3126
 2632TIP3    H229312   0.334   2.663   4.008  1.0979 -0.7521  1.5875
 2633TIP3   OH229313   0.931   6.423  14.632  0.6242  0.1639 -0.0436
 2633TIP3    H129314   0.959   6.384  14.549 -0.6024  2.4713 -1.6391
 2633TIP3    H229315   0.896   6.349  14.682 -0.3770 -1.0454 -2.3505
 2634TIP3   OH229316   2.962   0.073   3.526 -0.5862  0.2168 -0.1311
 2634TIP3    H129317   2.897   0.115   3.468  0.5881  0.2375 -1.4940
 2634TIP3    H229318   3.043   0.120   3.507  0.2921 -1.2470 -0.0680
 2635TIP3   OH229319   6.674   5.684   1.163  0.3920 -0.5511 -0.0534
 2635TIP3    H129320   6.693   5.770   1.125  0.0391 -0.5367 -0.1960
 2635TIP3    H229321   6.660   5.626   1.088 -0.5017 -0.4797  0.0497
 2636TIP3   OH229322   0.164   4.151   3.431 -0.3154  0.4412 -1.2891
 2636TIP3    H129323   0.204   4.120   3.350  0.3574  2.1311 -1.6377
 2636TIP3    H229324   0.079   4.187   3.404 -0.8929 -0.6414 -0.9573
 2637TIP3   OH229325   2.992   0.982  15.052 -0.6630  0.1190 -0.0602
 2637TIP3    H129326   3.065   1.044  15.053 -1.5468  1.2512 -1.2335
 2637TIP3    H229327   2.949   0.995  15.136  1.0750 -1.3746  1.1409
 2638TIP3   OH229328   2.937   6.201   4.555  0.7460  0.1825  0.1198
 2638TIP3    H129329   2.955   6.267   4.621  0.1654  0.6583 -0.1883
 2638TIP3    H229330   2.939   6.248   4.472 -1.1318  0.1329  0.0080
 2639TIP3   OH229331   5.156   0.058   3.869 -0.3115 -0.4713  0.0085
 2639TIP3    H129332   5.067   0.044   3.900 -0.2217 -1.9900 -0.3455
 2639TIP3    H229333   5.206  -0.016   3.904  0.9415  0.6126  0.6228
 2640TIP3   OH229334   1.853   1.075  16.106 -0.0167 -0.5728  0.3198
 2640TIP3    H129335   1.758   1.083  16.112  0.2107  1.4209  2.7471
 2640TIP3    H229336   1.877   1.018  16.179  0.5352 -3.4429 -1.9272
 2641TIP3   OH229337   6.677   5.445   5.940  0.0685  0.1045  0.5489
 2641TIP3    H129338   6.647   5.520   5.993  0.0297 -0.7290  1.7515
 2641TIP3    H229339   6.749   5.408   5.991  0.1989 -0.5680 -0.1189
 2642TIP3   OH229340   5.779   3.445  14.563  0.3635  0.0632 -0.3270
 2642TIP3    H129341   5.685   3.459  14.566  0.2891  0.0126 -1.7450
 2642TIP3    H229342   5.817   3.532  14.571  0.2543 -0.0088  1.2868
 2643TIP3   OH229343   5.715   5.979   3.315  0.0459 -0.2367 -0.2381
 2643TIP3    H129344   5.726   6.060   3.266 -3.1721 -0.2926 -1.3332
 2643TIP3    H229345   5.678   6.006   3.399 -1.8737 -0.5185 -0.9362
 2644TIP3   OH229346   0.308   6.760   5.930 -0.0465 -0.4056 -0.1464
 2644TIP3    H129347   0.354   6.833   5.972  0.6432 -0.2915 -1.0732
 2644TIP3    H229348   0.279   6.705   6.003 -1.7711  1.4537  0.6765
 2645TIP3   OH229349   2.391   2.146   3.449 -0.5768 -0.2021 -0.5551
 2645TIP3    H129350   2.339   2.071   3.421 -1.3839 -0.5248  1.5703
 2645TIP3    H229351   2.350   2.221   3.407  0.0873 -0.8769 -2.5170
 2646TIP3   OH229352   0.602   5.445  11.435 -0.4476 -0.0288 -0.2933
 2646TIP3    H129353   0.556   5.483  11.510 -1.8016  0.1587 -1.1853
 2646TIP3    H229354   0.573   5.496  11.360 -0.1803 -1.0840 -1.1443
 2647TIP3   OH229355   3.082   0.782  12.483  0.2260  0.0399  0.6401
 2647TIP3    H129356   3.118   0.694  12.488 -0.0793 -0.1558 -0.3729
 2647TIP3    H229357   3.156   0.840  12.504  1.4378 -0.3144 -2.1901
 2648TIP3   OH229358   2.969   5.169   6.151  0.5294 -0.0425 -0.3668
 2648TIP3    H129359   2.935   5.152   6.239  1.7848 -2.9611 -0.3231
 2648TIP3    H229360   3.044   5.226   6.165 -0.1249  0.6885  0.2683
 2649TIP3   OH229361   1.350   5.068  10.632  0.0212 -0.3307 -0.8741
 2649TIP3    H129362   1.362   4.973  10.642  0.1535 -0.1346  1.2183
 2649TIP3    H229363   1.389   5.106  10.710 -1.4492  1.3476 -0.8752
 2650TIP3   OH229364   0.439   2.656   0.215  0.1812  0.2614 -0.1101
 2650TIP3    H129365   0.380   2.706   0.159  1.7498  1.0661 -1.0902
 2650TIP3    H229366   0.484   2.722   0.268  0.1256 -0.3527  0.7223
 2651TIP3   OH229367   5.623   2.685   3.222 -0.8245 -0.2726 -0.0131
 2651TIP3    H129368   5.545   2.699   3.276 -1.0529 -0.1082 -0.3859
 2651TIP3    H229369   5.696   2.709   3.279 -1.1490  1.5858 -0.3322
 2652TIP3   OH229370   0.321   6.057   1.162  0.1031 -0.4454  0.6840
 2652TIP3    H129371   0.293   5.967   1.144  1.4850 -0.7274 -0.2426
 2652TIP3    H229372   0.242   6.101   1.193 -1.2602 -1.3053 -1.3490
 2653TIP3   OH229373   4.395   1.438  14.820  0.4900 -0.0178 -0.1142
 2653TIP3    H129374   4.478   1.474  14.789  0.6987 -0.7953 -0.5107
 2653TIP3    H229375   4.419   1.385  14.896  0.6436 -1.5965 -1.1966
 2654TIP3   OH229376   1.603   6.464  16.659  0.4095 -0.0512 -0.0578
 2654TIP3    H129377   1.538   6.400  16.690  0.5823 -0.0629  0.2795
 2654TIP3    H229378   1.588   6.468  16.565 -0.0601 -0.0826  0.0103
 2655TIP3   OH229379   6.383   1.763  13.722 -0.0721  0.8964  0.8867
 2655TIP3    H129380   6.433   1.765  13.640  0.6200 -1.5411  1.1761
 2655TIP3    H229381   6.292   1.757  13.695 -0.0581  2.6633  0.3407
 2656TIP3   OH229382   5.277   3.587  16.662  0.0312 -0.2835 -0.1626
 2656TIP3    H129383   5.336   3.531  16.612  3.0156  0.2080  2.4251
 2656TIP3    H229384   5.265   3.664  16.606  2.3416 -0.1967 -0.6551
 2657TIP3   OH229385   4.942   3.277   6.591 -0.4572  0.7887  0.4027
 2657TIP3    H129386   4.902   3.191   6.603  1.1516  0.1268  1.1920
 2657TIP3    H229387   4.883   3.322   6.530 -1.2786 -0.8930 -0.1040
 2658TIP3   OH229388   3.580   4.848  13.833 -0.2911  0.1278  0.1222
 2658TIP3    H129389   3.609   4.932  13.869 -0.1928 -0.4772  1.5113
 2658TIP3    H229390   3.525   4.872  13.758  0.2751  1.4020  0.0724
 2659TIP3   OH229391   2.085   1.786  12.264 -0.5030  0.0671  0.4832
 2659TIP3    H129392   2.031   1.808  12.339 -0.4483 -0.7418  0.7671
 2659TIP3    H229393   2.118   1.870  12.233 -0.8909  0.4478  1.0831
 2660TIP3   OH229394   0.276   2.810  13.883 -0.6557 -0.0485  0.1537
 2660TIP3    H129395   0.299   2.903  13.881  0.2997 -0.2691 -2.0276
 2660TIP3    H229396   0.331   2.773  13.952  4.0213 -0.0776 -3.1325
 2661TIP3   OH229397   1.260   4.852   1.722  0.0345  0.3981  0.1458
 2661TIP3    H129398   1.321   4.897   1.664  1.9146 -0.3083  1.4528
 2661TIP3    H229399   1.178   4.848   1.674  1.5431 -0.3511 -2.5419
 2662TIP3   OH229400   0.939   1.528   3.718 -0.3757 -0.3968  0.0037
 2662TIP3    H129401   0.950   1.598   3.653 -0.8362  1.2054  1.5761
 2662TIP3    H229402   0.864   1.478   3.687 -1.0215  0.7628 -0.3764
 2663TIP3   OH229403   0.657   6.057   5.115 -0.2866 -0.1067 -0.3142
 2663TIP3    H129404   0.632   5.965   5.125  1.8556 -0.8005 -0.7725
 2663TIP3    H229405   0.751   6.059   5.135 -0.5189  2.2138  0.8799
 2664TIP3   OH229406   3.689   3.215   0.469 -0.2213  0.3637 -0.5158
 2664TIP3    H129407   3.742   3.220   0.389  1.0187  0.3875  0.2866
 2664TIP3    H229408   3.650   3.302   0.478  0.6180  0.7467 -0.4526
 2665TIP3   OH229409   4.739   5.612   4.906 -0.6115 -0.2813  0.0711
 2665TIP3    H129410   4.733   5.645   4.996  0.7759 -0.1360  0.1252
 2665TIP3    H229411   4.820   5.561   4.904 -0.8318 -0.6124 -0.9981
 2666TIP3   OH229412   1.516   3.847   1.027  0.0016  0.1129 -0.2794
 2666TIP3    H129413   1.494   3.803   1.109 -0.1815 -1.1296 -0.9856
 2666TIP3    H229414   1.582   3.912   1.053  0.4508 -0.7162  0.7565
 2667TIP3   OH229415   5.189   0.192  14.347  0.1551 -0.0477 -0.3648
 2667TIP3    H129416   5.238   0.182  14.265 -0.6290 -1.1289 -0.7262
 2667TIP3    H229417   5.098   0.175  14.322 -0.1941  0.3137  0.6080
 2668TIP3   OH229418   1.290   1.452   2.673 -0.2700 -0.4212  0.5084
 2668TIP3    H129419   1.257   1.512   2.606  2.5625  0.4587 -0.2458
 2668TIP3    H229420   1.303   1.369   2.628  2.3581  0.3685 -0.4084
 2669TIP3   OH229421   4.190   4.707  14.927 -0.2563 -0.7473 -0.2343
 2669TIP3    H129422   4.186   4.700  15.022  3.0004  0.0749  0.0642
 2669TIP3    H229423   4.164   4.620  14.896 -0.0668 -1.4482  1.4621
 2670TIP3   OH229424   4.887   1.730  10.625  0.3503 -0.1460  0.1484
 2670TIP3    H129425   4.853   1.683  10.702  1.2980  1.1351  1.4024
 2670TIP3    H229426   4.909   1.661  10.563 -1.0868 -1.1881  0.7491
 2671TIP3   OH229427   6.519   6.431  14.977 -0.0450 -0.1562  0.5207
 2671TIP3    H129428   6.564   6.354  14.944 -2.9637 -1.5341 -0.6156
 2671TIP3    H229429   6.486   6.404  15.063 -2.4011 -0.8537 -0.5245
 2672TIP3   OH229430   0.460   5.191  16.796 -0.0606  0.5535 -0.3938
 2672TIP3    H129431   0.438   5.186  16.889  0.1012  0.6393 -0.3520
 2672TIP3    H229432   0.376   5.179  16.751 -0.2167  1.0081 -0.2301
 2673TIP3   OH229433   0.069   4.187   6.366 -0.2856  0.1910 -0.0259
 2673TIP3    H129434   0.086   4.279   6.344 -1.0003  0.4619  0.5130
 2673TIP3    H229435   0.146   4.140   6.334 -0.4434  0.8087 -1.3827
 2674TIP3   OH229436   4.380   2.263  11.413 -0.4009 -0.3131 -0.1497
 2674TIP3    H129437   4.339   2.342  11.377 -2.2646 -1.2000 -0.0763
 2674TIP3    H229438   4.456   2.248  11.356  1.0145  2.4096  0.8237
 2675TIP3   OH229439   6.181   4.111   1.350  0.0176  0.0838  0.1865
 2675TIP3    H129440   6.155   4.032   1.303  0.1241  0.9765 -1.4423
 2675TIP3    H229441   6.100   4.157   1.368  0.1179  1.7627 -2.9063
 2676TIP3   OH229442   1.246   1.612  12.776  0.1837  0.2829 -0.2545
 2676TIP3    H129443   1.270   1.520  12.784  0.2323  0.2659 -0.5798
 2676TIP3    H229444   1.233   1.625  12.682 -0.6777  0.3913 -0.1247
 2677TIP3   OH229445   2.282   5.981   1.593 -0.8399 -0.1983 -0.0326
 2677TIP3    H129446   2.342   6.035   1.542  0.7779 -1.2971  0.6473
 2677TIP3    H229447   2.205   6.037   1.605 -0.1302  1.1116 -1.2501
 2678TIP3   OH229448   4.712   0.842  14.348 -0.1037 -0.0823 -0.0427
 2678TIP3    H129449   4.735   0.771  14.289  2.8627  0.3976  0.3821
 2678TIP3    H229450   4.729   0.922  14.298  0.8494  0.3105  0.8529
 2679TIP3   OH229451   0.775   2.017  10.950 -0.6962 -0.0752 -0.4336
 2679TIP3    H129452   0.771   1.942  10.890 -3.0218 -0.4253  0.0899
 2679TIP3    H229453   0.687   2.052  10.951 -0.8468 -0.2102  2.9512
 2680TIP3   OH229454   6.791   3.198  13.832 -0.4141  0.0981 -0.2966
 2680TIP3    H129455   6.814   3.268  13.893 -1.9119 -0.4595  0.9619
 2680TIP3    H229456   6.762   3.126  13.887  0.4586 -1.3030 -1.5987
 2681TIP3   OH229457   6.357   3.727   3.589 -0.2196  0.0743  0.1285
 2681TIP3    H129458   6.394   3.658   3.644 -1.3110  0.2942  1.1673
 2681TIP3    H229459   6.265   3.704   3.580  0.0259 -0.2509 -2.0997
 2682TIP3   OH229460   3.150   3.290  13.334  0.3826 -0.5181 -0.4465
 2682TIP3    H129461   3.152   3.212  13.279 -0.6488 -0.2990 -0.8079
 2682TIP3    H229462   3.087   3.269  13.403  0.5186 -0.2091 -0.2266
 2683TIP3   OH229463   1.112   4.653  13.540 -0.1804 -0.1005  0.0726
 2683TIP3    H129464   1.103   4.637  13.446 -0.7917  1.1258 -0.0974
 2683TIP3    H229465   1.060   4.585  13.582 -0.3424 -0.3291 -0.4952
 2684TIP3   OH229466   0.022   6.029   2.692 -0.2617  0.1727  0.6719
 2684TIP3    H129467  -0.042   6.095   2.718  0.5999  1.1524  0.3391
 2684TIP3    H229468   0.095   6.078   2.656 -0.4965 -1.0111 -1.6585
 2685TIP3   OH229469   0.588   3.427  14.926 -0.2568 -0.3581  0.2217
 2685TIP3    H129470   0.581   3.493  14.995 -0.6486 -1.8036  1.6642
 2685TIP3    H229471   0.643   3.466  14.859  0.2682  1.0759  1.4364
 2686TIP3   OH229472   0.636   1.937   4.498 -0.0884  0.2231 -0.1182
 2686TIP3    H129473   0.667   1.881   4.428 -0.9635  0.4040 -0.6707
 2686TIP3    H229474   0.702   2.006   4.506  0.1908  0.0029 -0.5203
 2687TIP3   OH229475   5.330   5.392  12.345 -0.5960 -0.1997 -0.1095
 2687TIP3    H129476   5.347   5.477  12.304  2.6535 -0.7768 -0.2650
 2687TIP3    H229477   5.372   5.398  12.430 -2.0072 -1.0587  0.6807
 2688TIP3   OH229478   6.796   1.231   6.280  0.2446  0.5193  0.3911
 2688TIP3    H129479   6.845   1.236   6.362  0.4766 -1.0660  0.3735
 2688TIP3    H229480   6.862   1.243   6.212  0.9749 -3.0182  0.3157
 2689TIP3   OH229481   0.233   1.100   1.674 -0.1313  0.2029 -0.1747
 2689TIP3    H129482   0.257   1.192   1.684  0.5204  0.1095 -0.7911
 2689TIP3    H229483   0.315   1.056   1.651 -0.6092 -0.3679 -0.8397
 2690TIP3   OH229484   6.495   1.897  15.819 -0.2996  0.0797 -0.0657
 2690TIP3    H129485   6.552   1.835  15.772  0.5320  0.0330  0.9562
 2690TIP3    H229486   6.463   1.847  15.895  1.1062  1.1135  1.2775
 2691TIP3   OH229487   0.328   6.037  13.166 -0.1916 -0.0309  0.2325
 2691TIP3    H129488   0.369   5.967  13.217  0.6293  0.1151 -0.2045
 2691TIP3    H229489   0.283   5.992  13.095 -0.7201 -0.1907  0.6710
 2692TIP3   OH229490   3.263   1.905  12.352  1.2231 -0.2305  0.2774
 2692TIP3    H129491   3.204   1.900  12.277 -0.2099 -1.0127  1.4140
 2692TIP3    H229492   3.311   1.987  12.339 -1.3843  1.4145  0.2269
 2693TIP3   OH229493   5.040   1.730   1.499  0.5844 -0.1776 -0.1538
 2693TIP3    H129494   5.066   1.647   1.538  0.7139 -0.0285  0.0778
 2693TIP3    H229495   5.025   1.788   1.573 -2.6639 -0.8852 -0.1458
 2694TIP3   OH229496   1.078   3.525  16.642  0.7276  0.1859  0.5001
 2694TIP3    H129497   0.997   3.560  16.606 -0.1957 -0.4469  1.8655
 2694TIP3    H229498   1.068   3.533  16.737  2.3284  0.2137  0.7057
 2695TIP3   OH229499   0.142   4.659   2.108  0.7424 -0.3279 -0.1887
 2695TIP3    H129500   0.224   4.709   2.103  2.2293 -2.5492  0.6335
 2695TIP3    H229501   0.131   4.642   2.202 -1.5482  1.1926 -0.0888
 2696TIP3   OH229502   3.485   0.597  16.864  0.0042  0.1699  0.1874
 2696TIP3    H129503   3.408   0.631  16.911  0.4420  0.0734  0.9909
 2696TIP3    H229504   3.542   0.673  16.853  1.2268 -0.3420  2.4642
 2697TIP3   OH229505   6.051   0.030   2.599  0.7855  0.5444 -0.5321
 2697TIP3    H129506   5.960   0.059   2.592  0.6309  0.0100 -0.8296
 2697TIP3    H229507   6.089   0.084   2.668  0.4197  1.2110 -0.8434
 2698TIP3   OH229508   0.457   0.837   3.634 -0.4891  0.1170 -0.3116
 2698TIP3    H129509   0.418   0.920   3.607  2.2738  2.4724  2.2709
 2698TIP3    H229510   0.501   0.804   3.555 -1.7281  1.0217 -1.4055
 2699TIP3   OH229511   6.770   4.854   1.833 -0.2413  0.0863  0.1163
 2699TIP3    H129512   6.721   4.798   1.893 -1.7937 -1.5325 -2.4626
 2699TIP3    H229513   6.803   4.794   1.766  1.5160  1.7751 -0.6113
 2700TIP3   OH229514   4.742   5.500   5.481  0.1028  0.1795  0.2808
 2700TIP3    H129515   4.830   5.466   5.499 -0.0877 -1.0222 -0.8896
 2700TIP3    H229516   4.735   5.499   5.386 -1.5782 -0.8575  0.3830
 2701TIP3   OH229517   1.593   3.236  14.860  0.3889 -0.0372 -0.4080
 2701TIP3    H129518   1.667   3.295  14.870  0.8247 -0.6940  0.2755
 2701TIP3    H229519   1.534   3.259  14.932 -0.0737  0.4738 -0.9405
 2702TIP3   OH229520   4.038   3.425   1.857 -0.4498 -0.0036  0.4888
 2702TIP3    H129521   4.019   3.357   1.792 -0.1609  0.2785  0.1103
 2702TIP3    H229522   3.997   3.504   1.823  0.9259  0.4872 -0.0723
 2703TIP3   OH229523   6.650   1.919  16.905  0.1659  0.1013  0.1317
 2703TIP3    H129524   6.724   1.913  16.965  0.6441 -0.7109 -0.5082
 2703TIP3    H229525   6.631   2.012  16.898  2.5310  0.5517 -1.3241
 2704TIP3   OH229526   2.273   0.087   0.158 -0.4333  0.6972 -0.1129
 2704TIP3    H129527   2.298   0.075   0.250  2.5479  3.3959 -0.4350
 2704TIP3    H229528   2.353   0.067   0.109 -0.6658  3.4431 -1.7592
 2705TIP3   OH229529   3.446   1.581   2.275 -0.1570  0.0971 -0.1436
 2705TIP3    H129530   3.408   1.574   2.188  0.9784 -0.4014 -0.6154
 2705TIP3    H229531   3.416   1.667   2.307 -0.0061  0.5995 -1.3020
 2706TIP3   OH229532   5.906   1.854   3.439 -0.5588  0.3158  0.4327
 2706TIP3    H129533   5.924   1.796   3.514  0.5937  0.1208  0.0246
 2706TIP3    H229534   5.988   1.902   3.426 -0.6413  0.1190 -0.9083
 2707TIP3   OH229535   2.679   1.760  15.756  0.4573 -0.7375  0.3880
 2707TIP3    H129536   2.678   1.669  15.726 -0.8928 -0.2535 -1.1782
 2707TIP3    H229537   2.619   1.762  15.831 -1.6391 -0.6899 -1.2007
 2708TIP3   OH229538   4.690   4.087   3.923 -0.6008  0.3875  0.2016
 2708TIP3    H129539   4.679   4.139   3.843 -1.4835  1.7391  1.1474
 2708TIP3    H229540   4.776   4.114   3.956 -0.2334 -0.1737 -0.2779
 2709TIP3   OH229541   0.547   6.320   5.397 -0.1852 -0.6094 -0.2005
 2709TIP3    H129542   0.603   6.389   5.362  0.8902 -0.5321  1.5760
 2709TIP3    H229543   0.607   6.250   5.421 -0.8853 -0.7914  1.1307
 2710TIP3   OH229544   6.093   5.893  11.928 -0.2586 -0.1172  0.3250
 2710TIP3    H129545   6.072   5.940  11.847  2.1858 -2.0228 -1.5549
 2710TIP3    H229546   6.159   5.948  11.971  0.7862 -0.5918 -0.6287
 2711TIP3   OH229547   1.111   6.466  15.559 -0.1645 -0.2269 -0.3998
 2711TIP3    H129548   1.202   6.473  15.528  0.6334  0.2189  1.8686
 2711TIP3    H229549   1.117   6.412  15.637 -2.0228 -0.9248 -0.6934
 2712TIP3   OH229550   2.304   3.634   1.565  0.0054 -0.1198  0.5173
 2712TIP3    H129551   2.328   3.712   1.615  1.1702  0.7435 -1.2975
 2712TIP3    H229552   2.218   3.608   1.600 -0.7863  2.4217  0.6126
 2713TIP3   OH229553   1.814   1.342   3.138 -0.3770  0.1545  0.3040
 2713TIP3    H129554   1.816   1.436   3.153 -0.0072  0.2385 -0.2330
 2713TIP3    H229555   1.897   1.310   3.172 -1.0719 -0.1829  1.7229
 2714TIP3   OH229556   2.727   6.766  14.248  0.1699 -0.0918  0.1200
 2714TIP3    H129557   2.726   6.822  14.171 -0.0124  0.2967  0.4077
 2714TIP3    H229558   2.690   6.819  14.318 -2.7198 -1.4897 -0.2205
 2715TIP3   OH229559   3.026   2.851   1.268 -0.0307 -0.1066 -0.0258
 2715TIP3    H129560   3.002   2.807   1.187  4.4336  0.5655 -1.9959
 2715TIP3    H229561   3.067   2.784   1.322 -0.3793  0.0477  0.4418
 2716TIP3   OH229562   2.348   0.974  12.214 -0.3198 -0.5183  0.3945
 2716TIP3    H129563   2.441   0.986  12.235  0.1761 -1.1139 -1.3000
 2716TIP3    H229564   2.326   0.890  12.255 -0.3296 -0.0327  1.4165
 2717TIP3   OH229565   2.476   4.293   3.221 -0.4503  0.1678  0.1195
 2717TIP3    H129566   2.394   4.253   3.190 -0.6348  1.2004 -0.7693
 2717TIP3    H229567   2.457   4.318   3.312 -0.6424 -0.8720  0.3832
 2718TIP3   OH229568   1.480   5.940   3.736  0.5326  0.3251 -0.2031
 2718TIP3    H129569   1.455   5.993   3.811 -3.1033 -0.7334 -0.4693
 2718TIP3    H229570   1.471   5.999   3.661  0.6710  0.4411 -0.1287
 2719TIP3   OH229571   5.689   1.564   2.797  0.1817  0.1610  0.0987
 2719TIP3    H129572   5.693   1.470   2.814 -0.5449 -0.0983 -1.0444
 2719TIP3    H229573   5.766   1.600   2.840  0.9807 -1.0860 -0.2549
 2720TIP3   OH229574   0.987   2.587   1.263 -0.0460  0.5585 -0.2067
 2720TIP3    H129575   0.960   2.554   1.349  1.5444  0.0291  0.1374
 2720TIP3    H229576   1.021   2.675   1.280 -2.1414  1.5190 -0.7517
 2721TIP3   OH229577   4.945   2.824   0.268 -0.1623  0.0962  0.0258
 2721TIP3    H129578   4.925   2.823   0.175 -2.1970  0.5600  0.3990
 2721TIP3    H229579   4.873   2.775   0.308  0.3343  0.4413  1.4071
 2722TIP3   OH229580   4.534   4.620  11.927  0.0217 -0.0143 -0.1468
 2722TIP3    H129581   4.567   4.698  11.971 -0.0978  0.5005 -0.9402
 2722TIP3    H229582   4.515   4.649  11.838 -2.9137 -0.1723  0.3176
 2723TIP3   OH229583   4.515   4.519   1.264  0.0051 -0.3700 -0.4713
 2723TIP3    H129584   4.591   4.549   1.215  0.7006  1.0310  1.3516
 2723TIP3    H229585   4.510   4.578   1.339  0.2274 -3.5281  2.2750
 2724TIP3   OH229586   0.523   1.336   4.151  0.1057 -0.6375 -0.1823
 2724TIP3    H129587   0.516   1.432   4.148  0.3198 -0.5868  0.6703
 2724TIP3    H229588   0.611   1.317   4.119  0.1759 -0.5278 -0.0537
 2725TIP3   OH229589   3.657   3.227   6.130 -0.1711 -0.1702 -0.3288
 2725TIP3    H129590   3.573   3.193   6.161 -0.3487  0.8083  0.3016
 2725TIP3    H229591   3.720   3.200   6.196  0.0557 -1.0253 -0.8722
 2726TIP3   OH229592   3.337   1.284  14.737 -0.4246 -0.7083 -0.1483
 2726TIP3    H129593   3.312   1.192  14.729 -0.0353 -0.9741  1.4046
 2726TIP3    H229594   3.429   1.286  14.708 -0.5371 -0.7311 -0.5199
 2727TIP3   OH229595   5.269   1.043   0.334  0.5271 -0.0387 -0.3559
 2727TIP3    H129596   5.208   1.105   0.294  0.4909 -0.7059 -1.3785
 2727TIP3    H229597   5.213   0.980   0.378  0.5383  0.2753  0.1072
 2728TIP3   OH229598   3.397   6.735  12.311 -0.1766  0.3979 -0.1916
 2728TIP3    H129599   3.407   6.676  12.237 -0.0084 -1.4109  1.1968
 2728TIP3    H229600   3.307   6.767  12.305  0.0136  0.7081 -1.4696
 2729TIP3   OH229601   4.675   5.034  13.154  0.4856 -0.1419  0.4826
 2729TIP3    H129602   4.605   4.985  13.198 -1.1102  1.3310 -0.3419
 2729TIP3    H229603   4.741   4.967  13.133 -1.5929 -1.9617 -0.5826
 2730TIP3   OH229604   1.064   4.861   2.080 -0.0427  0.1505  0.2541
 2730TIP3    H129605   1.115   4.883   2.158  1.5339 -0.8412 -0.4404
 2730TIP3    H229606   1.079   4.934   2.021 -2.0891  1.4221  1.1931
 2731TIP3   OH229607   3.079   3.281   6.316  0.0017  0.8672  0.0712
 2731TIP3    H129608   3.090   3.311   6.407  0.8393  0.4682  0.1121
 2731TIP3    H229609   3.141   3.209   6.307  0.9624  1.8070 -1.2373
 2732TIP3   OH229610   3.427   5.513  11.787  0.1488  0.3740 -0.0852
 2732TIP3    H129611   3.424   5.462  11.706 -0.9030  1.4953 -0.7710
 2732TIP3    H229612   3.353   5.481  11.838  0.4045  0.1493  0.1497
 2733TIP3   OH229613   2.579   3.335  11.399 -0.4997  0.2921 -0.8564
 2733TIP3    H129614   2.579   3.346  11.304 -0.8326  0.5629 -0.8263
 2733TIP3    H229615   2.568   3.424  11.434  1.4866  0.4565 -0.5304
 2734TIP3   OH229616   5.634   4.502  11.300 -0.1903  0.0145  0.0288
 2734TIP3    H129617   5.593   4.446  11.367 -2.3980 -0.2431 -1.4026
 2734TIP3    H229618   5.671   4.440  11.237 -0.2494  0.1983 -0.1891
 2735TIP3   OH229619   6.541   5.904  12.896  0.3514  0.3337  0.7500
 2735TIP3    H129620   6.487   5.943  12.964 -1.1488  1.4783 -1.0075
 2735TIP3    H229621   6.486   5.905  12.818  2.7098  1.0774 -1.0186
 2736TIP3   OH229622   5.968   5.546  13.221 -0.6541  0.0865  0.1242
 2736TIP3    H129623   6.016   5.559  13.140  0.2740 -1.7909  0.3104
 2736TIP3    H229624   5.933   5.632  13.243 -2.0864  0.4061 -2.9311
 2737TIP3   OH229625   5.428   0.872   3.352 -0.3083  0.4311 -0.5712
 2737TIP3    H129626   5.416   0.789   3.305  0.6445  0.8279 -1.5697
 2737TIP3    H229627   5.433   0.847   3.444  1.5535 -0.8350 -0.9598
 2738TIP3   OH229628   0.717   6.109   5.754  0.1427 -0.5578 -0.0396
 2738TIP3    H129629   0.783   6.072   5.696 -1.3323 -1.7255 -1.0267
 2738TIP3    H229630   0.688   6.189   5.710  0.2989 -0.4889 -0.0174
 2739TIP3   OH229631   5.687   2.498  15.496  0.3551  0.2838  0.2410
 2739TIP3    H129632   5.700   2.588  15.528  0.5479  0.0470  0.8366
 2739TIP3    H229633   5.640   2.509  15.413  0.2155  0.9276  0.3979
 2740TIP3   OH229634   1.031   5.040  13.727  0.1127 -0.1951 -0.4011
 2740TIP3    H129635   0.999   5.070  13.812  0.8652 -0.6312  0.0482
 2740TIP3    H229636   0.997   5.103  13.664 -0.2700  0.2535  0.2504
 2741TIP3   OH229637   4.489   2.056  12.460  0.1595 -0.5972 -0.3850
 2741TIP3    H129638   4.523   2.035  12.547  1.9403 -1.3465 -1.2132
 2741TIP3    H229639   4.441   2.138  12.472  0.4156 -0.6610  1.2801
 2742TIP3   OH229640   3.641   4.987  14.351  0.3441 -0.6182  0.2909
 2742TIP3    H129641   3.642   5.036  14.433  0.0223 -1.2215  0.6666
 2742TIP3    H229642   3.667   4.898  14.376 -0.8070 -1.0748 -0.0686
 2743TIP3   OH229643   4.719   1.753  13.801 -0.0616 -0.7197  0.2573
 2743TIP3    H129644   4.717   1.837  13.846 -0.2688 -1.2274  1.2327
 2743TIP3    H229645   4.715   1.775  13.708 -2.9020  0.2812  0.5355
 2744TIP3   OH229646   5.297   5.888  13.913 -0.1522  0.5335  0.4883
 2744TIP3    H129647   5.221   5.923  13.960  0.1329  1.5635  0.1929
 2744TIP3    H229648   5.291   5.793  13.927 -2.6174  0.3345 -1.1436
 2745TIP3   OH229649   4.653   1.616  12.459 -0.0846 -0.8871 -0.0403
 2745TIP3    H129650   4.711   1.639  12.532 -1.0316  1.0457  0.1742
 2745TIP3    H229651   4.691   1.661  12.384 -1.8289  1.3766  0.3291
 2746TIP3   OH229652   5.734   0.616  14.985  0.4654  0.2694 -0.1208
 2746TIP3    H129653   5.798   0.612  14.914 -1.3820 -0.3832 -1.8319
 2746TIP3    H229654   5.743   0.705  15.021  0.8124  0.9450 -1.8011
 2747TIP3   OH229655   4.450   5.226   4.076 -0.7056  0.7453 -0.0261
 2747TIP3    H129656   4.519   5.291   4.087 -0.6493  0.7777 -0.5329
 2747TIP3    H229657   4.389   5.243   4.147  0.2332  0.1760  0.9571
 2748TIP3   OH229658   6.475   1.577   2.904 -0.4980 -0.4674  0.2839
 2748TIP3    H129659   6.540   1.605   2.840 -0.2653 -2.5787 -0.4910
 2748TIP3    H229660   6.526   1.533   2.972 -0.8025  1.2164  1.6552
 2749TIP3   OH229661   1.992   6.750   4.749  0.1682 -0.0478  0.2766
 2749TIP3    H129662   1.958   6.788   4.667  0.8345  2.0560  0.9098
 2749TIP3    H229663   2.067   6.698   4.722  1.1491  1.6198 -0.4027
 2750TIP3   OH229664   4.603   5.023  11.552  0.8229  0.2606 -0.0475
 2750TIP3    H129665   4.666   4.970  11.502  1.1672 -1.4579  2.0569
 2750TIP3    H229666   4.563   4.960  11.612  0.0781  2.1304  1.4857
 2751TIP3   OH229667   0.264   1.309  14.053  0.0480 -0.3271  0.3014
 2751TIP3    H129668   0.275   1.230  14.000 -0.7304 -0.9745  1.0688
 2751TIP3    H229669   0.190   1.289  14.110 -1.2902  1.6258 -0.6811
 2752TIP3   OH229670   3.962   1.754   1.018  0.1949  0.1057  0.7686
 2752TIP3    H129671   4.017   1.789   1.088  1.7876 -1.6918  0.5060
 2752TIP3    H229672   3.959   1.660   1.035 -1.3573 -0.0666 -0.2655
 2753TIP3   OH229673   0.824   4.120   5.381 -0.2694 -0.3550 -0.8295
 2753TIP3    H129674   0.873   4.062   5.440  0.3525 -1.2570 -2.1648
 2753TIP3    H229675   0.818   4.070   5.299 -0.7097  1.0317 -1.6725
 2754TIP3   OH229676   0.463   2.731  11.228 -0.2298  0.0539  0.5773
 2754TIP3    H129677   0.391   2.758  11.285 -0.0877  1.8852 -0.0265
 2754TIP3    H229678   0.451   2.784  11.149 -0.2383 -2.1657 -1.0053
 2755TIP3   OH229679   5.517   1.480  15.505 -0.5876 -0.3404 -0.2415
 2755TIP3    H129680   5.607   1.510  15.487 -0.8955  1.2214  0.6824
 2755TIP3    H229681   5.462   1.546  15.463 -1.2940  0.8094  2.3393
 2756TIP3   OH229682   3.978   4.270  12.650  0.6267 -0.1117  0.1630
 2756TIP3    H129683   4.026   4.233  12.725  1.2790  2.7807  1.2877
 2756TIP3    H229684   4.046   4.303  12.592  0.0794 -1.3596 -1.2364
 2757TIP3   OH229685   0.503   2.326   3.019 -0.1441 -0.0800 -0.6928
 2757TIP3    H129686   0.491   2.269   2.944 -2.1804 -1.5405  0.6281
 2757TIP3    H229687   0.588   2.368   3.005  0.1235 -1.2982 -3.1009
 2758TIP3   OH229688   1.183   3.400  10.804 -0.2739  0.0183 -0.3451
 2758TIP3    H129689   1.256   3.461  10.795 -0.9463  0.7624 -0.8394
 2758TIP3    H229690   1.107   3.448  10.773 -1.1481 -0.4413  1.0224
 2759TIP3   OH229691   2.870   3.357   0.210 -1.3836 -0.2682 -0.3136
 2759TIP3    H129692   2.902   3.308   0.285 -2.1359 -0.2477  0.0281
 2759TIP3    H229693   2.776   3.341   0.209 -1.3561 -0.4320 -1.3711
 2760TIP3   OH229694   4.919   0.104  13.347  0.1645 -0.4083  0.0872
 2760TIP3    H129695   5.014   0.094  13.348  0.1108 -0.9710  0.5549
 2760TIP3    H229696   4.886   0.014  13.340 -0.3452 -0.4535  2.3713
 2761TIP3   OH229697   6.301   5.184   4.602  0.2272  0.1908  0.5727
 2761TIP3    H129698   6.389   5.148   4.601  0.0535 -0.2497 -0.4703
 2761TIP3    H229699   6.312   5.275   4.573  0.2227 -0.2265 -0.8460
 2762TIP3   OH229700   3.480   6.095   3.585 -0.6171 -0.3011 -0.4223
 2762TIP3    H129701   3.425   6.165   3.621  0.8150  1.0268 -0.7180
 2762TIP3    H229702   3.486   6.114   3.492  1.0484  0.1292 -0.2654
 2763TIP3   OH229703   0.509   5.133  13.298  0.1030  0.6105 -0.1211
 2763TIP3    H129704   0.426   5.181  13.295  0.0295  0.4610 -0.5608
 2763TIP3    H229705   0.514   5.088  13.214  0.5602  0.4994 -0.0398
 2764TIP3   OH229706   3.790   1.920  14.359  0.0383 -0.1591 -0.0427
 2764TIP3    H129707   3.702   1.918  14.322  0.2235  0.9733 -0.5915
 2764TIP3    H229708   3.779   1.884  14.448 -1.0707  0.4356  0.0841
 2765TIP3   OH229709   2.675   0.132  16.431 -0.0757  0.5692 -0.1498
 2765TIP3    H129710   2.653   0.215  16.389  1.0082  0.3921 -1.1299
 2765TIP3    H229711   2.743   0.094  16.375  1.7565  0.4935  1.9844
 2766TIP3   OH229712   0.262   6.020  13.621  0.2181  0.1139  0.1445
 2766TIP3    H129713   0.228   6.053  13.537 -1.5798 -1.4667  0.1825
 2766TIP3    H229714   0.292   5.932  13.601  3.9333  1.1779  0.2839
 2767TIP3   OH229715   4.340   3.739   1.969  0.4349 -0.6010 -0.1965
 2767TIP3    H129716   4.247   3.742   1.992  0.2917  0.7085 -0.8113
 2767TIP3    H229717   4.378   3.814   2.014  0.8926 -0.2644 -1.1029
 2768TIP3   OH229718   0.022   2.610  16.537  0.9139  0.0836 -0.4775
 2768TIP3    H129719  -0.008   2.631  16.449  0.9622  0.0053 -0.5123
 2768TIP3    H229720  -0.036   2.541  16.567 -0.7896  1.8392  0.5350
 2769TIP3   OH229721   6.758   5.180  13.648  0.2160 -0.0214  0.2216
 2769TIP3    H129722   6.690   5.193  13.714 -2.9582 -2.1384 -2.3000
 2769TIP3    H229723   6.786   5.089  13.660  4.0561  1.2423  2.2524
 2770TIP3   OH229724   5.365   6.273  11.771  0.0038  0.1191 -0.2741
 2770TIP3    H129725   5.406   6.277  11.858 -1.1948 -1.7305  0.4450
 2770TIP3    H229726   5.421   6.213  11.722 -1.6930 -2.5223  0.7527
 2771TIP3   OH229727   6.691   6.196   0.392  0.0222  0.5243 -0.0885
 2771TIP3    H129728   6.786   6.206   0.400 -0.2137  2.1214  1.1034
 2771TIP3    H229729   6.672   6.118   0.445  0.4883  1.2635  1.2240
 2772TIP3   OH229730   2.806   3.055  12.137 -0.0589  0.3618  0.3882
 2772TIP3    H129731   2.807   3.149  12.116 -0.2627  0.4548  0.7860
 2772TIP3    H229732   2.717   3.039  12.167  0.3440  0.3184  1.5822
 2773TIP3   OH229733   4.196   4.535  11.871  0.1508  0.2501 -0.5558
 2773TIP3    H129734   4.232   4.527  11.959 -0.1579  0.7504 -0.3796
 2773TIP3    H229735   4.269   4.514  11.813 -0.4470 -3.5484 -0.1993
 2774TIP3   OH229736   1.008   0.643  16.543 -0.1851  0.2939 -0.3790
 2774TIP3    H129737   0.954   0.668  16.617 -0.3923  1.0245 -0.7685
 2774TIP3    H229738   1.077   0.710  16.540  1.9630 -1.6621  1.3073
 2775TIP3   OH229739   5.248   3.825   1.870  0.3538  0.0733 -0.1613
 2775TIP3    H129740   5.314   3.894   1.870 -0.4631  0.8633  0.0645
 2775TIP3    H229741   5.190   3.847   1.797 -0.2995  0.0022  0.3308
 2776TIP3   OH229742   2.586   3.169  12.765 -0.1094  0.0496  0.1892
 2776TIP3    H129743   2.572   3.199  12.675 -0.3049 -0.0715  0.1782
 2776TIP3    H229744   2.523   3.220  12.817 -1.2841 -1.1660  0.0237
 2777TIP3   OH229745   0.738   1.159  14.246  0.1477 -0.7123  0.0924
 2777TIP3    H129746   0.690   1.213  14.183  0.4104  0.8133  1.1408
 2777TIP3    H229747   0.830   1.182  14.232  0.2249 -0.5187  0.8624
 2778TIP3   OH229748   2.102   0.022  13.630 -0.0385 -0.8263 -0.6291
 2778TIP3    H129749   2.142  -0.038  13.693  0.1957 -0.2448 -0.2140
 2778TIP3    H229750   2.023  -0.023  13.601  1.9608 -3.0074 -3.1321
 2779TIP3   OH229751   2.516   1.138   0.485 -0.1407  0.4449  0.2580
 2779TIP3    H129752   2.465   1.152   0.405 -1.3918 -1.2536  0.7139
 2779TIP3    H229753   2.495   1.049   0.511  2.0710  0.1649  1.2207
 2780TIP3   OH229754   1.820   5.103   4.465  0.5308 -0.1161 -0.1303
 2780TIP3    H129755   1.814   5.009   4.481  3.4890 -0.3206  0.3418
 2780TIP3    H229756   1.843   5.141   4.550 -1.4704  1.2269 -0.0998
 2781TIP3   OH229757   2.116   2.489  10.993 -0.5889  0.1674  0.7983
 2781TIP3    H129758   2.039   2.513  10.941  1.9235  0.0290 -3.4163
 2781TIP3    H229759   2.162   2.571  11.007  1.7953 -0.3119 -2.8751
 2782TIP3   OH229760   2.748   6.719  12.163 -0.0257 -0.2641 -0.1797
 2782TIP3    H129761   2.771   6.641  12.213 -0.1686  0.2738  0.7366
 2782TIP3    H229762   2.652   6.723  12.168 -0.0485 -0.2392 -0.5607
 2783TIP3   OH229763   3.010   6.766  11.520 -0.0527  0.3157  0.3646
 2783TIP3    H129764   3.054   6.743  11.438  1.0589 -2.0208  1.5059
 2783TIP3    H229765   2.994   6.682  11.563 -2.5323  1.3326  1.6304
 2784TIP3   OH229766   6.477   1.355   4.418  0.5592 -0.0351 -0.1771
 2784TIP3    H129767   6.524   1.422   4.468 -0.5447  1.5265 -1.1180
 2784TIP3    H229768   6.425   1.308   4.483 -0.2044  1.3941  0.2871
 2785TIP3   OH229769   4.814   2.022  11.152  0.3576 -0.1278 -0.1069
 2785TIP3    H129770   4.870   2.097  11.135 -3.1210  3.0317  1.0112
 2785TIP3    H229771   4.753   2.052  11.219 -4.7604 -1.9014 -3.3938
 2786TIP3   OH229772   6.724   1.267  13.824  0.3697 -0.0796  0.4469
 2786TIP3    H129773   6.657   1.199  13.815 -1.0067  1.4698 -1.9241
 2786TIP3    H229774   6.804   1.218  13.844 -0.6405 -2.3956 -0.7578
 2787TIP3   OH229775   0.907   2.243  12.294  0.2146 -0.5314  0.6010
 2787TIP3    H129776   0.920   2.289  12.211  0.0981 -1.3129  0.1410
 2787TIP3    H229777   0.979   2.180  12.298 -0.5062 -1.3780  0.4767
 2788TIP3   OH229778   5.917   3.975   5.067  0.8289 -0.0515  0.3699
 2788TIP3    H129779   5.913   4.071   5.069 -0.3541 -0.0116 -1.4117
 2788TIP3    H229780   5.846   3.948   5.124  0.3368  0.1769 -0.1191
 2789TIP3   OH229781   6.125   5.795  16.336  0.3091  0.1535  0.7948
 2789TIP3    H129782   6.213   5.799  16.297  0.2422 -2.5903  0.1341
 2789TIP3    H229783   6.136   5.739  16.413 -1.0243 -1.2333  0.0284
 2790TIP3   OH229784   3.372   2.118   3.643  0.0909  0.1466  0.0880
 2790TIP3    H129785   3.400   2.038   3.687 -3.0213 -1.6324 -0.8647
 2790TIP3    H229786   3.384   2.100   3.550  0.4980  1.3151 -0.1037
 2791TIP3   OH229787   0.832   3.637  11.518 -0.4687 -0.3943  0.1687
 2791TIP3    H129788   0.795   3.569  11.575 -1.6083  0.0418 -0.0117
 2791TIP3    H229789   0.835   3.715  11.573  1.2821 -0.6682  0.5185
 2792TIP3   OH229790   1.505   6.443  15.847  0.0296  0.2425  0.2198
 2792TIP3    H129791   1.463   6.529  15.851  1.6769  1.1435 -0.6647
 2792TIP3    H229792   1.474   6.405  15.765  1.5950  1.3194 -0.9305
 2793TIP3   OH229793   4.120   6.042   5.023 -0.1413  0.2968 -0.4116
 2793TIP3    H129794   4.054   6.094   4.977 -2.4908 -1.7642  0.4447
 2793TIP3    H229795   4.109   5.953   4.990  0.1760 -0.6547  1.8449
 2794TIP3   OH229796   2.622   5.311   4.197 -0.3598 -0.8574 -0.2262
 2794TIP3    H129797   2.553   5.373   4.222  0.6583  0.4730 -0.6376
 2794TIP3    H229798   2.600   5.286   4.107  0.2686  0.4235 -0.7607
 2795TIP3   OH229799   3.559   3.962   4.681 -0.2572  0.0064 -0.0812
 2795TIP3    H129800   3.601   3.877   4.693 -0.3294 -0.3764 -2.2252
 2795TIP3    H229801   3.626   4.017   4.640 -0.6799  0.5347 -0.0775
 2796TIP3   OH229802   5.893   3.500   0.326 -0.3877  0.9175  0.3832
 2796TIP3    H129803   5.860   3.469   0.410  0.0975  0.3200  0.3565
 2796TIP3    H229804   5.974   3.547   0.348 -1.3635  2.6444  0.4858
 2797TIP3   OH229805   1.504   5.726   4.636  0.2568 -0.0163 -0.2535
 2797TIP3    H129806   1.536   5.648   4.591 -2.3262  0.0864 -2.5922
 2797TIP3    H229807   1.517   5.797   4.572  0.3488  0.9937  0.8569
 2798TIP3   OH229808   1.903   6.712   5.062 -0.6813  0.2133  0.1802
 2798TIP3    H129809   1.926   6.804   5.057 -1.0919  0.2974 -0.1924
 2798TIP3    H229810   1.900   6.682   4.971  0.1781 -0.3558  0.3225
 2799TIP3   OH229811   6.639   0.690  15.220  0.3429  0.2729  0.0021
 2799TIP3    H129812   6.654   0.785  15.223  3.5366 -0.1223  1.2449
 2799TIP3    H229813   6.658   0.666  15.129 -0.1399  0.7810 -0.2400
 2800TIP3   OH229814   5.928   6.686   5.587 -0.3737 -0.1442  0.2003
 2800TIP3    H129815   5.884   6.686   5.502  0.1447 -0.3418 -0.0722
 2800TIP3    H229816   5.995   6.754   5.580 -0.9939  0.5462  0.8093
 2801TIP3   OH229817   2.119   2.857   4.724  0.3575  0.0354 -0.7923
 2801TIP3    H129818   2.160   2.799   4.788  0.8028 -0.8776 -1.8632
 2801TIP3    H229819   2.183   2.926   4.710 -0.2760  0.9665  0.6738
 2802TIP3   OH229820   4.763   1.393  13.313 -0.1414 -0.1844 -0.3721
 2802TIP3    H129821   4.699   1.374  13.382  1.3129 -1.2301  0.7542
 2802TIP3    H229822   4.831   1.326  13.324  2.6446  2.5358  0.3882
 2803TIP3   OH229823   5.836   0.343   4.013  0.0594 -0.3477 -0.1215
 2803TIP3    H129824   5.900   0.413   3.999  0.8079 -1.3082 -1.8380
 2803TIP3    H229825   5.880   0.264   3.981 -1.5507 -1.2417 -0.2213
 2804TIP3   OH229826   1.808   1.338  15.041 -0.5092 -0.3586 -0.5956
 2804TIP3    H129827   1.829   1.430  15.057 -0.7375 -0.1283 -1.5637
 2804TIP3    H229828   1.732   1.321  15.095 -1.1733  0.3573 -1.2663
 2805TIP3   OH229829   0.729   0.699  14.610  0.2102  0.0190  0.5109
 2805TIP3    H129830   0.670   0.662  14.544  1.2648 -0.9670  0.0761
 2805TIP3    H229831   0.797   0.743  14.560  0.0893  0.7723  0.9937
 2806TIP3   OH229832   5.614   0.863  11.589 -0.2557 -0.0924 -0.3440
 2806TIP3    H129833   5.591   0.861  11.496 -0.3283  0.2694 -0.3349
 2806TIP3    H229834   5.630   0.956  11.608 -1.2513 -0.0319  0.2480
 2807TIP3   OH229835   5.797   1.393  14.144  0.8214  0.0494 -0.1597
 2807TIP3    H129836   5.786   1.306  14.105 -0.6447  0.1167  0.0376
 2807TIP3    H229837   5.848   1.442  14.080  1.5001 -0.8898 -0.3584
 2808TIP3   OH229838   4.930   6.145  15.124  0.6585  0.0630 -0.2275
 2808TIP3    H129839   4.854   6.202  15.134  0.8238  0.2181  0.1339
 2808TIP3    H229840   4.934   6.127  15.030 -0.1597 -0.4092 -0.1808
 2809TIP3   OH229841   0.806   4.824   1.975  0.0776 -0.2095  0.4268
 2809TIP3    H129842   0.831   4.792   1.888  0.4401  1.6288 -0.1729
 2809TIP3    H229843   0.888   4.826   2.024  0.1332  0.2832  0.3095
 2810TIP3   OH229844   3.946   5.378   4.719  0.3322 -0.3236  0.3124
 2810TIP3    H129845   3.947   5.457   4.666 -0.8569  0.0984  0.8783
 2810TIP3    H229846   3.867   5.331   4.691 -0.1776 -0.2155  1.4927
 2811TIP3   OH229847   2.945   4.882  11.254 -0.1676  0.2720  0.1867
 2811TIP3    H129848   2.913   4.800  11.292  0.3591  0.1444  0.3596
 2811TIP3    H229849   3.017   4.856  11.197  0.6705  0.7006  1.0141
 2812TIP3   OH229850   5.470   4.556   2.093 -0.0056  0.1751 -0.6687
 2812TIP3    H129851   5.383   4.530   2.123  0.7146 -1.3647  0.2687
 2812TIP3    H229852   5.465   4.554   1.997 -0.8410 -0.5360 -0.6187
 2813TIP3   OH229853   3.250   1.381   4.957  0.1777  0.2309  0.1656
 2813TIP3    H129854   3.244   1.390   4.862  2.1735  2.5436  0.1720
 2813TIP3    H229855   3.232   1.469   4.991  1.0635 -0.1886  1.8283
 2814TIP3   OH229856   0.945   6.800  14.492  0.3935 -0.3259  0.3538
 2814TIP3    H129857   0.957   6.874  14.433 -0.9869 -0.6089 -0.3399
 2814TIP3    H229858   0.999   6.820  14.568 -0.1523  1.5348  0.2993
 2815TIP3   OH229859   4.267   4.262   3.255  0.0120  0.1227 -0.6667
 2815TIP3    H129860   4.237   4.232   3.168  0.9421  1.3064 -1.4218
 2815TIP3    H229861   4.263   4.357   3.250  2.1284  0.2897 -0.1938
 2816TIP3   OH229862   1.731   2.982  13.414  0.2127  0.7511 -0.4532
 2816TIP3    H129863   1.720   2.887  13.409 -2.0985  0.7114  2.6301
 2816TIP3    H229864   1.681   3.015  13.339  0.4640 -0.3948 -1.1629
 2817TIP3   OH229865   5.977   5.470  10.950  0.8748  0.5614  0.0061
 2817TIP3    H129866   5.953   5.390  10.998  0.6325  0.3352 -0.4854
 2817TIP3    H229867   5.930   5.463  10.867  2.0345  0.4879 -0.6632
 2818TIP3   OH229868   0.533   5.270  11.744  1.3476  0.3100  0.0660
 2818TIP3    H129869   0.501   5.218  11.670  1.6284 -1.7834  1.3444
 2818TIP3    H229870   0.543   5.207  11.815  2.4193  2.0114  1.5005
 2819TIP3   OH229871   3.109   0.466   1.404 -0.1216 -0.3776  0.4687
 2819TIP3    H129872   3.075   0.379   1.383  1.0289 -1.2276  1.9425
 2819TIP3    H229873   3.037   0.510   1.450 -0.6895 -0.5364 -0.2392
 2820TIP3   OH229874   6.731   2.839   1.818 -0.2467  0.1922 -0.2416
 2820TIP3    H129875   6.760   2.906   1.756  0.9976  0.6221  0.7507
 2820TIP3    H229876   6.679   2.779   1.766 -0.6160  1.4297 -1.3592
 2821TIP3   OH229877   5.144   2.944   5.301 -0.1573  0.3370  0.1928
 2821TIP3    H129878   5.079   3.014   5.309  0.9203  1.3881  0.1209
 2821TIP3    H229879   5.095   2.864   5.314 -0.7615  1.2205  4.8773
 2822TIP3   OH229880   5.719   3.886   5.272  0.6968 -0.0169 -0.0697
 2822TIP3    H129881   5.639   3.836   5.288 -0.2906  1.9209  1.4749
 2822TIP3    H229882   5.693   3.977   5.284  3.3799  0.6326  1.5415
 2823TIP3   OH229883   3.445   0.782  15.758  0.6540  0.1074  0.4825
 2823TIP3    H129884   3.350   0.781  15.768  0.5570  0.0237 -0.3399
 2823TIP3    H229885   3.479   0.788  15.847 -0.0840 -2.1430  0.9756
 2824TIP3   OH229886   2.203   1.619  16.772  0.0251  0.2802  0.3583
 2824TIP3    H129887   2.270   1.686  16.764 -0.1473  0.4693  0.4968
 2824TIP3    H229888   2.222   1.557  16.702  1.2411 -0.4407  1.2887
 2825TIP3   OH229889   5.372   3.103   5.277  0.8695 -0.0653  0.2324
 2825TIP3    H129890   5.297   3.045   5.287  0.1112  0.9334  0.4984
 2825TIP3    H229891   5.448   3.044   5.278  0.1348 -1.0381  0.5442
 2826TIP3   OH229892   1.889   1.383  14.273  0.0333 -0.4060 -0.3681
 2826TIP3    H129893   1.956   1.317  14.257 -0.0234 -0.2954 -1.0825
 2826TIP3    H229894   1.833   1.344  14.341  2.4151  0.6334  2.4451
 2827TIP3   OH229895   3.458   1.681   3.557 -0.0527 -1.0801 -0.4893
 2827TIP3    H129896   3.464   1.676   3.652 -0.5265 -0.5474 -0.4263
 2827TIP3    H229897   3.462   1.775   3.538 -0.6655 -1.1401 -0.9425
 2828TIP3   OH229898   4.640   6.355   5.138 -0.0909 -0.2157 -0.0708
 2828TIP3    H129899   4.562   6.361   5.194 -0.2843 -0.3840 -0.3221
 2828TIP3    H229900   4.675   6.267   5.157  0.2111 -0.0264  0.2674
 2829TIP3   OH229901   2.057   1.830  11.849  0.2660  0.0531  0.2689
 2829TIP3    H129902   2.008   1.782  11.916  1.7492 -2.4302 -0.3035
 2829TIP3    H229903   1.999   1.830  11.772  0.0330 -0.3622  0.4434
 2830TIP3   OH229904   4.568   1.183  11.752 -0.4773 -0.3691 -0.0761
 2830TIP3    H129905   4.584   1.089  11.749  2.9056 -0.0182  1.9157
 2830TIP3    H229906   4.647   1.220  11.792 -2.0068  3.2536  0.0175
 2831TIP3   OH229907   1.909   4.242   1.429 -0.5361  0.1895 -0.1719
 2831TIP3    H129908   1.842   4.304   1.400 -0.4801  0.9100  1.1636
 2831TIP3    H229909   1.866   4.190   1.497 -1.0606 -2.3187 -2.2383
 2832TIP3   OH229910   0.741   3.324  15.590 -0.5016 -0.1327  0.1392
 2832TIP3    H129911   0.755   3.397  15.651  0.3807 -1.0248  1.0235
 2832TIP3    H229912   0.646   3.321  15.579 -0.8015 -0.6927  2.4236
 2833TIP3   OH229913   4.336   5.481   3.348 -0.0122  0.1680 -0.2074
 2833TIP3    H129914   4.389   5.534   3.289  2.0961 -0.4720  1.0101
 2833TIP3    H229915   4.306   5.543   3.415  0.1003  0.3471 -0.3215
 2834TIP3   OH229916   2.626   4.565  14.933  0.1300 -0.1819  0.3977
 2834TIP3    H129917   2.705   4.556  14.986 -0.3739  1.5540  1.5296
 2834TIP3    H229918   2.638   4.647  14.885 -1.1502  0.3894  0.9886
 2835TIP3   OH229919   1.365   6.720   2.941  0.3049 -0.0405  0.0836
 2835TIP3    H129920   1.370   6.626   2.930 -0.4207 -0.1520  0.6186
 2835TIP3    H229921   1.434   6.741   3.003 -1.4204 -0.6545  2.3371
 2836TIP3   OH229922   4.066   2.252   4.098 -0.6099 -0.2742  0.1824
 2836TIP3    H129923   4.067   2.270   4.192  1.4092 -1.2357  0.3966
 2836TIP3    H229924   4.015   2.172   4.089 -2.0080  0.5681  0.2487
 2837TIP3   OH229925   2.685   3.618   1.027  0.2633  0.3867 -0.1162
 2837TIP3    H129926   2.746   3.564   0.976  0.6142  1.5526 -0.9740
 2837TIP3    H229927   2.633   3.555   1.077  0.1780 -0.7903 -1.6211
 2838TIP3   OH229928   6.328   5.530   2.033  0.3219 -0.1745 -0.3233
 2838TIP3    H129929   6.406   5.517   1.979  0.3180 -0.5734 -0.2353
 2838TIP3    H229930   6.286   5.444   2.034 -0.3820  0.1547 -0.7788
 2839TIP3   OH229931   0.218   5.814   0.333 -0.7582  0.2439 -0.3975
 2839TIP3    H129932   0.307   5.784   0.349 -1.9066 -2.3349  2.0316
 2839TIP3    H229933   0.228   5.891   0.276  2.9497  0.0635 -0.2146
 2840TIP3   OH229934   1.135   2.813  12.674 -0.4906 -0.3024 -0.3095
 2840TIP3    H129935   1.139   2.769  12.589 -0.0627 -0.0667 -0.4149
 2840TIP3    H229936   1.043   2.837  12.685 -0.7738 -1.3828 -0.1668
 2841TIP3   OH229937   0.313   0.474  16.801 -0.5946  0.5123  0.3191
 2841TIP3    H129938   0.313   0.460  16.706  1.8024 -1.6486  0.5167
 2841TIP3    H229939   0.405   0.476  16.825 -1.1293  1.9196  2.5338
 2842TIP3   OH229940   5.829   5.310   3.166 -0.2842  0.2869 -0.1384
 2842TIP3    H129941   5.740   5.273   3.170  0.3740 -1.2885  1.3990
 2842TIP3    H229942   5.871   5.278   3.245  2.5642 -1.4172 -2.1469
 2843TIP3   OH229943   0.516   6.645   5.770  0.1365 -0.1226 -0.0013
 2843TIP3    H129944   0.450   6.661   5.836 -1.8948  0.6834 -2.0913
 2843TIP3    H229945   0.535   6.732   5.734  1.4527 -0.5001 -0.2665
 2844TIP3   OH229946   5.656   4.032  14.063  0.5556 -0.4250  0.4773
 2844TIP3    H129947   5.729   4.028  14.001 -1.3768 -1.3391 -1.9454
 2844TIP3    H229948   5.676   3.963  14.127  2.3104  0.0930  0.5422
 2845TIP3   OH229949   2.236   3.334   4.847 -0.1020 -0.0179  0.0356
 2845TIP3    H129950   2.249   3.378   4.931 -1.1164  0.3419  0.0100
 2845TIP3    H229951   2.316   3.352   4.798  0.2401  0.2909  0.6931
 2846TIP3   OH229952   3.954   1.629  14.776  0.3021  0.2781 -0.5167
 2846TIP3    H129953   4.048   1.636  14.760  0.3952  1.4456  0.4392
 2846TIP3    H229954   3.921   1.576  14.703  1.8633 -1.1640 -0.2242
 2847TIP3   OH229955   2.027   1.742   4.276 -0.6569 -0.1248  0.2513
 2847TIP3    H129956   2.062   1.790   4.201 -0.6552 -1.2689 -0.5048
 2847TIP3    H229957   2.049   1.796   4.351  3.4029 -0.9986 -0.0635
 2848TIP3   OH229958   0.876   5.861  15.707 -0.2731 -0.2820 -0.3897
 2848TIP3    H129959   0.894   5.801  15.634 -1.0121  0.6798 -1.3999
 2848TIP3    H229960   0.784   5.845  15.729 -0.8825  1.3347 -1.5457
 2849TIP3   OH229961   6.694   4.587  13.335 -0.3479 -0.5991  0.0207
 2849TIP3    H129962   6.638   4.655  13.296  0.0127 -0.1554  0.2655
 2849TIP3    H229963   6.774   4.590  13.283 -0.5018 -1.1563 -0.2555
 2850TIP3   OH229964   3.583   5.253  12.073  0.5325  0.0765  0.0942
 2850TIP3    H129965   3.671   5.237  12.108 -0.3783 -0.9193  2.0573
 2850TIP3    H229966   3.560   5.170  12.029 -0.4367 -0.6975  1.9516
 2851TIP3   OH229967   0.049   3.405   2.331 -0.1176 -0.1551  0.0245
 2851TIP3    H129968   0.048   3.373   2.241  2.9573 -2.2098  0.5878
 2851TIP3    H229969   0.138   3.436   2.345 -1.3825  3.3860  1.4302
 2852TIP3   OH229970   1.142   6.192  15.363  0.3960  0.3122 -0.0551
 2852TIP3    H129971   1.167   6.280  15.335 -2.3590  0.4202 -2.7334
 2852TIP3    H229972   1.055   6.203  15.402 -0.2178 -1.2244 -0.8900
 2853TIP3   OH229973   0.106   0.877  10.651  0.0974 -0.0114  0.0548
 2853TIP3    H129974   0.200   0.865  10.661 -0.1877 -1.6615  1.0397
 2853TIP3    H229975   0.067   0.819  10.716 -1.6233 -0.0582 -0.9503
 2854TIP3   OH229976   5.326   5.474  15.385 -0.6768  1.0062  0.4031
 2854TIP3    H129977   5.374   5.403  15.342 -1.6868  0.3427  0.3455
 2854TIP3    H229978   5.361   5.475  15.475 -0.4565  0.6343  0.3241
 2855TIP3   OH229979   1.872   0.034  14.011  0.3523 -0.2177 -0.3304
 2855TIP3    H129980   1.789  -0.010  13.992  0.3581 -0.5233  0.2994
 2855TIP3    H229981   1.907   0.059  13.926  0.5375 -1.8046 -0.7568
 2856TIP3   OH229982   5.541   3.745   1.360  0.1640 -0.2019  0.1403
 2856TIP3    H129983   5.541   3.649   1.365  0.4578 -0.2458 -0.6442
 2856TIP3    H229984   5.631   3.770   1.377  0.4864 -0.1801 -1.4280
 2857TIP3   OH229985   0.706   3.994  14.746  0.2508  0.1009  1.5328
 2857TIP3    H129986   0.797   3.985  14.718 -0.2818  0.9253 -0.6567
 2857TIP3    H229987   0.687   4.087  14.734 -1.4561 -0.4128 -0.0131
 2858TIP3   OH229988   4.040   4.463  16.186  0.1862  0.1268  0.2036
 2858TIP3    H129989   4.097   4.486  16.112  0.6796 -1.1182  0.1864
 2858TIP3    H229990   4.099   4.452  16.260 -0.0741 -0.7117  0.2959
 2859TIP3   OH229991   0.033   1.208  14.565 -0.0429  0.5808 -0.2892
 2859TIP3    H129992   0.102   1.246  14.618  1.0869  0.7967 -1.8477
 2859TIP3    H229993  -0.041   1.269  14.574 -0.3844 -0.0677  2.0237
 2860TIP3   OH229994   0.325   1.621   2.908 -0.5735  0.6058 -0.2203
 2860TIP3    H129995   0.349   1.630   2.815  0.3876  1.5434  0.0922
 2860TIP3    H229996   0.409   1.626   2.954 -1.2433  3.1269  0.8698
 2861TIP3   OH229997   5.999   6.025  10.809 -0.0932  0.2618  0.6778
 2861TIP3    H129998   6.009   5.961  10.739 -0.9442 -0.0207  0.8071
 2861TIP3    H229999   6.088   6.042  10.839  0.5192  1.7660 -1.6892
 2862TIP3   OH230000   2.652   5.362   4.560  0.0977  0.5622 -0.1799
 2862TIP3    H130001   2.639   5.382   4.467  1.6458  0.6490 -0.4134
 2862TIP3    H230002   2.573   5.316   4.586 -0.4405  0.6827 -1.5030
 2863TIP3   OH230003   5.084   3.358   5.291  0.1980 -0.0013 -0.3696
 2863TIP3    H130004   5.061   3.399   5.208  0.5240  0.5482 -0.1916
 2863TIP3    H230005   5.175   3.384   5.306  1.2186 -2.6406 -1.3786
 2864TIP3   OH230006   0.839   0.101   4.009  0.0071  0.4183  0.3705
 2864TIP3    H130007   0.903   0.151   3.959  0.5948 -0.4677  0.2078
 2864TIP3    H230008   0.874   0.012   4.010 -1.1896 -0.0760  0.3341
 2865TIP3   OH230009   2.355   1.347   0.631  0.0489 -0.0756  0.3694
 2865TIP3    H130010   2.414   1.420   0.650  2.0649 -2.0491  2.4444
 2865TIP3    H230011   2.408   1.286   0.581 -0.9002 -1.0366  0.5028
 2866TIP3   OH230012   4.416   5.790  16.099 -0.9481 -0.6882  0.2603
 2866TIP3    H130013   4.366   5.721  16.056  0.4546 -2.2678  1.0359
 2866TIP3    H230014   4.507   5.767  16.082 -0.4169  0.0308  1.9383
 2867TIP3   OH230015   1.221   2.890   2.701  0.4345  0.2104 -0.0275
 2867TIP3    H130016   1.290   2.917   2.761 -1.1339  1.8575  1.1494
 2867TIP3    H230017   1.142   2.889   2.754 -0.8053  0.4819 -1.7696
 2868TIP3   OH230018   4.868   3.004   2.383  0.6554  0.0568  0.6638
 2868TIP3    H130019   4.927   3.014   2.308 -1.2075 -0.4915 -0.9334
 2868TIP3    H230020   4.803   3.073   2.373  0.3926 -0.0062  1.8038
 2869TIP3   OH230021   6.138   5.186   1.547  0.7760  0.1620  0.6346
 2869TIP3    H130022   6.049   5.165   1.575  0.1767 -0.1535 -1.3098
 2869TIP3    H230023   6.174   5.104   1.514  0.0655  1.0567 -2.7942
 2870TIP3   OH230024   2.335   0.802  11.210  0.3844 -0.3001  0.4304
 2870TIP3    H130025   2.266   0.855  11.169  0.2290  0.1827  1.2945
 2870TIP3    H230026   2.308   0.712  11.195  1.0299 -0.1810 -1.7168
 2871TIP3   OH230027   1.482   0.261  16.745 -0.5572 -0.5869 -0.5396
 2871TIP3    H130028   1.392   0.279  16.716 -0.7040 -0.0375  0.2143
 2871TIP3    H230029   1.487   0.300  16.832  0.6360  0.0534 -0.8698
 2872TIP3   OH230030   6.234   2.799   3.906 -0.1119  0.4284 -0.3323
 2872TIP3    H130031   6.288   2.788   3.984 -1.5457  0.0098  0.6447
 2872TIP3    H230032   6.148   2.766   3.932 -0.3506 -0.7943 -2.4553
 2873TIP3   OH230033   2.316   6.216  16.991 -0.3757 -0.3814  0.2603
 2873TIP3    H130034   2.350   6.258  17.070  1.3540  0.6992 -0.9852
 2873TIP3    H230035   2.234   6.263  16.973  1.0342  1.9554 -0.5674
 2874TIP3   OH230036   3.577   0.423   4.738 -0.3706 -0.7279  0.7611
 2874TIP3    H130037   3.660   0.436   4.692 -1.2565  0.8031 -0.5001
 2874TIP3    H230038   3.563   0.329   4.735  0.4987 -0.8450 -0.5087
 2875TIP3   OH230039   6.216   5.570  11.027 -0.7646  0.0220  0.2181
 2875TIP3    H130040   6.236   5.638  10.963 -0.0283 -0.4116 -0.0212
 2875TIP3    H230041   6.141   5.523  10.989  0.8612 -1.4804 -1.3283
 2876TIP3   OH230042   2.903   3.503   0.692 -0.2314 -0.1523  0.4512
 2876TIP3    H130043   2.905   3.438   0.762 -1.9454 -0.2400  0.4592
 2876TIP3    H230044   2.813   3.501   0.660 -0.3584  2.2226  0.4773
 2877TIP3   OH230045   1.809   4.043  16.407  0.2197  0.5354  0.1900
 2877TIP3    H130046   1.725   3.998  16.412 -0.9258  2.4990 -0.0653
 2877TIP3    H230047   1.845   4.018  16.322 -0.9372  0.9733 -0.4552
 2878TIP3   OH230048   5.773   6.497  15.224  0.2377 -0.4138 -0.0300
 2878TIP3    H130049   5.858   6.501  15.180 -0.2206  1.1956 -0.8619
 2878TIP3    H230050   5.715   6.455  15.161 -0.2757  1.3289 -0.7691
 2879TIP3   OH230051   3.636   4.558  15.006  0.1082  0.2936 -0.0718
 2879TIP3    H130052   3.725   4.594  15.003  0.4979 -0.4642  1.2722
 2879TIP3    H230053   3.581   4.633  15.028  0.0982  1.1834 -2.8054
 2880TIP3   OH230054   1.613   1.327  11.421  0.2602 -0.3491 -0.3011
 2880TIP3    H130055   1.636   1.413  11.385 -0.5635 -0.2053 -0.5131
 2880TIP3    H230056   1.566   1.347  11.502  0.6373 -0.6252 -0.0107
 2881TIP3   OH230057   1.202   2.168   3.319 -0.7010  0.2981 -0.2868
 2881TIP3    H130058   1.135   2.221   3.362 -0.9112 -0.1581 -0.0418
 2881TIP3    H230059   1.194   2.082   3.359  0.9799  0.5863  0.7927
 2882TIP3   OH230060   4.965   1.968  11.924  0.1368  0.3179  0.0026
 2882TIP3    H130061   5.028   2.039  11.909 -1.9152  2.2347 -0.1538
 2882TIP3    H230062   4.972   1.949  12.017 -0.2359  1.7677  0.3602
 2883TIP3   OH230063   0.679   1.260   2.053 -0.1660 -0.2088  0.1398
 2883TIP3    H130064   0.662   1.171   2.083 -1.1894  0.2514  0.9969
 2883TIP3    H230065   0.596   1.289   2.015  0.2582  0.2620 -0.4495
 2884TIP3   OH230066   4.993   0.916   1.996  0.3758  0.3270 -0.3368
 2884TIP3    H130067   5.031   0.875   1.918 -0.3521 -0.4011 -0.3246
 2884TIP3    H230068   4.999   0.848   2.063  0.4452  0.7420  0.0836
 2885TIP3   OH230069   1.163   6.729  12.463 -0.1362  0.3249 -0.4472
 2885TIP3    H130070   1.098   6.797  12.449 -0.2389  0.8001  1.9151
 2885TIP3    H230071   1.222   6.735  12.388 -0.7372  2.3222 -0.8025
 2886TIP3   OH230072   1.469   2.007   6.210  0.0032  0.2399  0.6173
 2886TIP3    H130073   1.469   1.923   6.163  1.1444  0.7168 -0.2790
 2886TIP3    H230074   1.399   1.998   6.274 -0.8443 -0.8665 -0.4149
 2887TIP3   OH230075   1.367   2.004   0.638  0.1532 -0.4063  0.0327
 2887TIP3    H130076   1.411   1.966   0.714 -0.6883 -1.6783 -0.0778
 2887TIP3    H230077   1.367   2.098   0.655  1.6022 -0.4951  0.7133
 2888TIP3   OH230078   6.773   1.257  11.982  0.0959 -0.5127 -0.2287
 2888TIP3    H130079   6.678   1.253  11.975  0.0419  0.9551 -0.6489
 2888TIP3    H230080   6.790   1.236  12.074 -0.6289 -0.7450 -0.1360
 2889TIP3   OH230081   1.511   3.415   3.875 -0.2079  0.1983  0.5309
 2889TIP3    H130082   1.435   3.432   3.931  0.5689 -1.4062  2.1837
 2889TIP3    H230083   1.536   3.501   3.842 -1.1107  1.1384  2.1500
 2890TIP3   OH230084   3.254   3.269   6.538  0.1029 -0.2913 -0.3963
 2890TIP3    H130085   3.284   3.330   6.605 -2.4776  0.4871  0.1512
 2890TIP3    H230086   3.244   3.185   6.584 -1.5692  0.2181  0.2353
 2891TIP3   OH230087   4.017   5.257   1.374  0.2421 -0.3616  0.5168
 2891TIP3    H130088   3.999   5.350   1.357  2.2742  0.0689  0.4933
 2891TIP3    H230089   3.999   5.214   1.291 -1.4210 -0.1289  0.7243
 2892TIP3   OH230090   4.823   4.676  16.350 -0.1834  0.3049  0.4191
 2892TIP3    H130091   4.784   4.681  16.263  0.7669 -0.1550 -0.0483
 2892TIP3    H230092   4.908   4.718  16.341 -0.3139  0.7804  1.2786
 2893TIP3   OH230093   0.367   4.667  14.981  0.3597 -0.2968 -0.0502
 2893TIP3    H130094   0.343   4.637  14.893 -0.3905 -1.0971  0.4121
 2893TIP3    H230095   0.362   4.762  14.976 -1.8051 -0.3698 -0.3202
 2894TIP3   OH230096   3.134   3.441  13.673  0.6176 -0.1482 -0.5473
 2894TIP3    H130097   3.047   3.410  13.646  0.2025  0.0734  0.5002
 2894TIP3    H230098   3.168   3.370  13.728  0.3298  0.5379  0.5394
 2895TIP3   OH230099   0.941   4.274  16.936  0.1065 -0.1900 -0.3296
 2895TIP3    H130100   1.019   4.329  16.929  0.5278 -0.8157 -0.5738
 2895TIP3    H230101   0.974   4.184  16.941 -0.4491 -0.3353  2.3995
 2896TIP3   OH230102   0.403   1.417  16.488  0.4302 -0.1764  0.4222
 2896TIP3    H130103   0.364   1.381  16.568  1.9657 -1.2971  0.6932
 2896TIP3    H230104   0.497   1.418  16.504  1.0173 -2.4747 -2.1194
 2897TIP3   OH230105   1.166   5.295   4.149 -0.3652  0.5501 -0.1370
 2897TIP3    H130106   1.210   5.224   4.102  0.9978  0.6854  0.8651
 2897TIP3    H230107   1.237   5.350   4.181 -1.2576  0.7467  1.6162
 2898TIP3   OH230108   4.334   3.159  16.739 -0.6948 -0.3478  0.4507
 2898TIP3    H130109   4.265   3.214  16.701 -0.6376 -1.3512 -1.2499
 2898TIP3    H230110   4.415   3.209  16.725 -0.8895  0.1439  1.0371
 2899TIP3   OH230111   4.255   1.711  13.703 -0.2212 -0.1694 -0.7980
 2899TIP3    H130112   4.312   1.758  13.764 -0.7899  1.0599 -1.1918
 2899TIP3    H230113   4.295   1.726  13.617  0.2798 -1.4582 -0.8160
 2900TIP3   OH230114   2.646   5.730  12.136 -0.1490 -0.3863  0.2168
 2900TIP3    H130115   2.725   5.721  12.083 -0.8272  0.8188 -1.0457
 2900TIP3    H230116   2.676   5.773  12.216  0.5974 -0.7114  0.1228
 2901TIP3   OH230117   4.468   6.498   2.605  0.5224 -0.1499  0.6778
 2901TIP3    H130118   4.527   6.556   2.556 -1.0729  1.3085  0.4021
 2901TIP3    H230119   4.388   6.549   2.617 -0.1818 -1.5396  2.3076
 2902TIP3   OH230120   1.485   0.001  15.552 -0.6496 -0.3277  0.3558
 2902TIP3    H130121   1.508  -0.092  15.557 -0.5694 -0.3159  0.2242
 2902TIP3    H230122   1.567   0.043  15.524 -1.1453 -0.4316 -1.3979
 2903TIP3   OH230123   4.064   6.557  13.385  0.5471 -0.1111 -0.1154
 2903TIP3    H130124   3.996   6.510  13.434  0.4805 -0.7783 -0.8307
 2903TIP3    H230125   4.030   6.647  13.378  0.2432 -0.1739  0.4529
 2904TIP3   OH230126   5.384   3.390   1.038 -0.1552 -0.4286  0.1002
 2904TIP3    H130127   5.300   3.400   0.995 -1.0646  0.8178  1.9967
 2904TIP3    H230128   5.367   3.330   1.111  0.5148  0.0130  0.6412
 2905TIP3   OH230129   6.718   5.944   5.137 -0.2439  0.0661  0.7515
 2905TIP3    H130130   6.800   5.896   5.144  0.6863  1.7442  2.0573
 2905TIP3    H230131   6.730   6.002   5.062 -1.1757 -1.2666 -0.5051
 2906TIP3   OH230132   3.373   1.136  16.870  0.2903 -0.1126  0.3114
 2906TIP3    H130133   3.400   1.195  16.799 -0.4083 -2.8735 -2.5001
 2906TIP3    H230134   3.454   1.117  16.917  0.6901  2.2084  0.6499
 2907TIP3   OH230135   3.382   2.412   4.645  0.0646  0.4660 -1.0344
 2907TIP3    H130136   3.471   2.429   4.677 -0.8509  1.2522  1.3740
 2907TIP3    H230137   3.326   2.447   4.714 -2.1082 -2.9618 -0.8244
 2908TIP3   OH230138   2.845   1.836  14.847 -0.2880  0.3903  0.8384
 2908TIP3    H130139   2.918   1.775  14.858 -0.6323 -0.0501  0.6985
 2908TIP3    H230140   2.874   1.916  14.892  1.9270  1.6287 -2.3367
 2909TIP3   OH230141   4.119   0.264   2.301  0.0436 -0.6746 -0.3795
 2909TIP3    H130142   4.131   0.274   2.206 -0.5023  0.1169 -0.3737
 2909TIP3    H230143   4.058   0.334   2.325 -0.0106 -1.0187  0.5204
 2910TIP3   OH230144   1.905   6.644   3.579  0.4390 -0.2027  0.3263
 2910TIP3    H130145   1.984   6.652   3.633 -0.5159  2.1441  1.5472
 2910TIP3    H230146   1.895   6.731   3.539 -1.7679 -0.2773  0.6042
 2911TIP3   OH230147   1.272   2.016   5.782  0.0005 -0.1087  0.1675
 2911TIP3    H130148   1.219   2.008   5.861 -0.9127  1.4238 -0.2444
 2911TIP3    H230149   1.238   2.094   5.738  2.0348  0.4154 -0.5723
 2912TIP3   OH230150   0.736   2.095   2.941  0.0541 -0.4508  0.1985
 2912TIP3    H130151   0.821   2.124   2.975  1.8592 -1.6072 -2.9207
 2912TIP3    H230152   0.706   2.029   3.003  1.0678  0.4552  1.7158
 2913TIP3   OH230153   1.066   1.397   1.697  0.7922 -0.0391 -0.1634
 2913TIP3    H130154   1.146   1.346   1.686  1.2891  0.2891  1.7236
 2913TIP3    H230155   1.083   1.478   1.649  1.9557  0.3888  0.9292
 2914TIP3   OH230156   4.992   3.032   4.379  0.4376  0.3804 -0.2760
 2914TIP3    H130157   4.899   3.016   4.362  0.3680  0.5712 -0.0776
 2914TIP3    H230158   5.037   2.985   4.309  0.3054 -1.9673  1.1084
 2915TIP3   OH230159   1.232   2.379   4.902 -0.0067  0.3667  0.2830
 2915TIP3    H130160   1.176   2.303   4.886  0.9733 -0.4516  0.6135
 2915TIP3    H230161   1.186   2.429   4.970 -0.6470  0.0484  0.0872
 2916TIP3   OH230162   1.278   2.364   2.090 -0.1504  0.2054  0.1256
 2916TIP3    H130163   1.350   2.304   2.070 -0.2421  0.4097 -0.8534
 2916TIP3    H230164   1.241   2.329   2.171  1.9879  0.9889  1.5317
 2917TIP3   OH230165   4.243   2.635   0.969 -0.3255 -0.2445  0.3147
 2917TIP3    H130166   4.318   2.639   0.911 -0.2011 -1.7674  0.3098
 2917TIP3    H230167   4.183   2.574   0.926 -1.0888  0.1198  0.8411
 2918TIP3   OH230168   0.355   5.709  15.679  0.3146 -0.0560 -0.6877
 2918TIP3    H130169   0.439   5.665  15.693  0.6679  0.7017 -0.3566
 2918TIP3    H230170   0.310   5.701  15.763  0.2328 -0.0806 -0.7339
 2919TIP3   OH230171   4.067   3.387  15.568 -0.5285 -0.2878 -0.2917
 2919TIP3    H130172   4.155   3.423  15.582 -0.8318 -0.1013  1.4649
 2919TIP3    H230173   4.078   3.292  15.577 -0.3603 -0.3509 -1.0793
 2920TIP3   OH230174   4.753   1.477   1.424  0.3792 -0.1417  0.1997
 2920TIP3    H130175   4.662   1.486   1.452  0.3556 -1.1185  0.4824
 2920TIP3    H230176   4.769   1.555   1.371 -0.1717  0.7818  1.3260
 2921TIP3   OH230177   3.295   1.308   0.896 -0.3628 -0.1225 -0.0025
 2921TIP3    H130178   3.225   1.373   0.900 -2.6122 -2.3470 -0.2428
 2921TIP3    H230179   3.249   1.224   0.891  2.3611 -1.7764  0.5264
 2922TIP3   OH230180   3.410   5.142  15.701  0.2827 -0.1293 -0.1803
 2922TIP3    H130181   3.351   5.214  15.677 -0.5403  0.5333  3.3111
 2922TIP3    H230182   3.487   5.185  15.738  0.3922 -1.0453  0.6879
 2923TIP3   OH230183   3.434   5.931  16.119 -0.6308  0.5080 -0.4956
 2923TIP3    H130184   3.405   5.963  16.204  0.9562  1.7220 -0.3714
 2923TIP3    H230185   3.385   5.984  16.056 -1.4968 -0.1082 -0.3663
 2924TIP3   OH230186   4.424   6.482   5.250 -0.2572  0.1990 -0.2644
 2924TIP3    H130187   4.403   6.554   5.309 -0.3453  0.8762 -1.1094
 2924TIP3    H230188   4.499   6.513   5.199  0.0579 -0.5218 -0.2649
 2925TIP3   OH230189   6.561   2.972   2.934  0.0527 -0.0576 -0.0891
 2925TIP3    H130190   6.553   3.002   2.843  1.4224  0.8220  0.0568
 2925TIP3    H230191   6.567   3.052   2.986 -0.1930 -0.5599  0.7335
 2926TIP3   OH230192   0.069   1.152  12.624 -0.1520  0.2094  0.0659
 2926TIP3    H130193   0.153   1.124  12.589  0.6357  0.9828  1.2680
 2926TIP3    H230194   0.082   1.243  12.650 -0.7728 -0.2064  2.0044
 2927TIP3   OH230195   0.880   2.003  14.063 -0.1908  0.2428 -0.3189
 2927TIP3    H130196   0.849   1.929  14.011  1.9160 -1.4912  0.6857
 2927TIP3    H230197   0.960   1.970  14.106 -0.8817  2.0754  2.6869
 2928TIP3   OH230198   0.101   5.191   4.103  0.1223  0.2225  0.3479
 2928TIP3    H130199   0.145   5.107   4.119 -1.9388 -0.6825  1.6627
 2928TIP3    H230200   0.110   5.238   4.185 -2.8992 -0.7964  1.4037
 2929TIP3   OH230201   4.566   0.202  15.141  0.0555  0.6090 -0.3219
 2929TIP3    H130202   4.508   0.237  15.073 -0.7350 -0.9754 -0.4934
 2929TIP3    H230203   4.525   0.229  15.223 -0.3115  0.4658 -0.4541
 2930TIP3   OH230204   4.746   3.104   4.270  0.1865  0.5112  0.2134
 2930TIP3    H130205   4.745   3.200   4.277  0.7477  0.5386 -0.0191
 2930TIP3    H230206   4.660   3.082   4.235 -0.1680  0.8833  0.8359
 2931TIP3   OH230207   0.543   1.009   3.295 -0.2547  0.1845 -0.0542
 2931TIP3    H130208   0.534   1.055   3.212  0.2393  0.2843 -0.0540
 2931TIP3    H230209   0.587   1.071   3.353  2.1294 -0.8882 -0.5948
 2932TIP3   OH230210   0.336   4.669  15.415  0.1179  0.3033  0.6144
 2932TIP3    H130211   0.256   4.683  15.467 -0.3694 -0.0423 -0.0311
 2932TIP3    H230212   0.382   4.599  15.461 -1.0126 -1.0187 -0.1768
 2933TIP3   OH230213   6.622   2.810   5.776  0.6716  0.1491 -0.2155
 2933TIP3    H130214   6.529   2.833   5.782  0.5576  0.1967 -1.7707
 2933TIP3    H230215   6.667   2.886   5.814  0.1092  0.7069 -0.6307
 2934TIP3   OH230216   6.644   0.151   1.841 -0.3855  0.0934  0.0727
 2934TIP3    H130217   6.640   0.171   1.747 -0.6709 -1.3436 -0.2406
 2934TIP3    H230218   6.587   0.216   1.881 -0.1629  0.8054 -0.7322
 2935TIP3   OH230219   6.651   5.479  12.493 -0.1834 -0.2019 -0.2949
 2935TIP3    H130220   6.583   5.546  12.486  0.6249  0.6404 -0.3172
 2935TIP3    H230221   6.724   5.524  12.535  0.7440 -0.7956 -1.2431
 2936TIP3   OH230222   6.156   3.155  11.580  0.0397  0.3232  0.4299
 2936TIP3    H130223   6.072   3.108  11.583  0.4935 -0.4815  2.9108
 2936TIP3    H230224   6.133   3.246  11.601 -0.2127  0.0480  1.4050
 2937TIP3   OH230225   4.541   3.003  13.523  0.4603 -0.4501 -0.1607
 2937TIP3    H130226   4.530   3.009  13.617 -2.6396  2.6028 -0.4943
 2937TIP3    H230227   4.619   3.056  13.505 -1.2894  2.6353  0.5626
 2938TIP3   OH230228   0.833   3.316   4.562 -0.2404 -0.0878  0.2429
 2938TIP3    H130229   0.784   3.240   4.593 -0.8308 -0.0219 -0.5056
 2938TIP3    H230230   0.922   3.283   4.551  0.1717  0.0627  2.6427
 2939TIP3   OH230231   3.173   5.219   5.665  0.0748  0.3710 -0.2961
 2939TIP3    H130232   3.216   5.135   5.651  0.5125  0.4760  0.3995
 2939TIP3    H230233   3.189   5.240   5.757 -1.9821  0.1243  0.1666
 2940TIP3   OH230234   1.821   3.247  13.206  0.0910 -0.2505  0.6632
 2940TIP3    H130235   1.861   3.168  13.243 -0.8112 -0.0201  2.2157
 2940TIP3    H230236   1.802   3.302  13.282  0.9988  1.6247 -0.4127
 2941TIP3   OH230237   1.960   4.031   5.790  0.0178 -0.7292  0.4862
 2941TIP3    H130238   2.046   3.994   5.770 -0.1742 -0.5784 -0.6709
 2941TIP3    H230239   1.916   4.037   5.705 -1.2726 -1.1389  1.1036
 2942TIP3   OH230240   2.468   5.905  15.464 -0.1370  0.5713 -0.3851
 2942TIP3    H130241   2.432   5.909  15.553 -0.9057  0.1423 -0.6743
 2942TIP3    H230242   2.399   5.940  15.408 -0.1321 -0.2895 -0.9535
 2943TIP3   OH230243   1.431   6.456  12.563  0.5009 -0.4230  0.4272
 2943TIP3    H130244   1.438   6.396  12.637  1.0714 -0.7160  0.1443
 2943TIP3    H230245   1.486   6.531  12.587  0.5864 -0.4633  0.3632
 2944TIP3   OH230246   5.409   6.707   1.175 -0.0929  0.0865 -0.6379
 2944TIP3    H130247   5.494   6.717   1.133  0.4574 -0.0748  0.4089
 2944TIP3    H230248   5.424   6.731   1.266 -1.0661 -0.3969 -0.3349
 2945TIP3   OH230249   5.037   3.200  13.861 -0.4981 -0.0928  0.8340
 2945TIP3    H130250   5.100   3.193  13.788 -2.2462 -0.3364 -0.7295
 2945TIP3    H230251   4.981   3.123  13.852 -0.9273  0.0186  2.3122
 2946TIP3   OH230252   2.816   4.971   4.510  0.2088 -0.2669 -0.5362
 2946TIP3    H130253   2.899   4.925   4.496  0.2796 -0.2026 -0.3272
 2946TIP3    H230254   2.807   5.026   4.433  1.2813  1.1264  0.2807
 2947TIP3   OH230255   3.754   4.356  11.141 -0.0528 -0.0712  0.0939
 2947TIP3    H130256   3.796   4.337  11.225  1.5748 -1.0993 -0.9001
 2947TIP3    H230257   3.685   4.290  11.134  1.3170 -1.5119 -0.3826
 2948TIP3   OH230258   0.198   0.157   2.144  0.0343  0.2233  0.5215
 2948TIP3    H130259   0.117   0.114   2.171 -0.3145  0.7973  0.4049
 2948TIP3    H230260   0.178   0.251   2.146 -0.1460  0.3295 -2.0124
 2949TIP3   OH230261   3.822   2.236   5.100  0.0958 -0.2948 -0.4349
 2949TIP3    H130262   3.901   2.202   5.059 -0.0373 -1.0930 -0.0577
 2949TIP3    H230263   3.758   2.164   5.092 -0.1860 -0.1464  0.3981
 2950TIP3   OH230264   2.402   1.507  16.931  0.6336  0.0644 -0.1257
 2950TIP3    H130265   2.326   1.558  16.905  1.2420  1.4284  0.6939
 2950TIP3    H230266   2.477   1.552  16.891  1.1329 -0.4716  0.1783
 2951TIP3   OH230267   5.929   1.022   6.302 -0.3027  0.1611 -0.1034
 2951TIP3    H130268   6.022   1.020   6.280 -0.3547  1.4476 -0.5314
 2951TIP3    H230269   5.899   1.107   6.270 -1.0238  0.9691  2.4648
 2952TIP3   OH230270   3.534   1.134   0.644  0.3616 -0.0022  0.1436
 2952TIP3    H130271   3.562   1.042   0.641 -1.8844 -0.7282 -0.5638
 2952TIP3    H230272   3.604   1.182   0.599  0.6349 -1.6416 -1.2823
 2953TIP3   OH230273   5.830   0.280  16.485 -0.1347 -0.1794  0.2830
 2953TIP3    H130274   5.745   0.290  16.441 -0.7425 -0.0945  1.4304
 2953TIP3    H230275   5.838   0.186  16.501 -0.3877 -0.1051  0.8707
 2954TIP3   OH230276   2.452   0.648   3.319 -0.3165  0.2912 -0.4952
 2954TIP3    H130277   2.434   0.725   3.265 -1.2378  0.6325  0.2583
 2954TIP3    H230278   2.383   0.650   3.386  0.7930 -0.1076  0.6939
 2955TIP3   OH230279   1.288   3.647   2.238 -0.3454  0.2234  0.2553
 2955TIP3    H130280   1.372   3.626   2.197  1.6329  1.3354  3.3688
 2955TIP3    H230281   1.271   3.573   2.297 -2.5136 -0.7775 -1.4712
 2956TIP3   OH230282   1.549   5.951   0.184 -0.4178 -0.1947  0.6054
 2956TIP3    H130283   1.473   6.004   0.161 -1.0952 -2.0703 -1.8538
 2956TIP3    H230284   1.622   5.991   0.137 -0.6792 -0.6238 -0.1901
 2957TIP3   OH230285   0.899   3.711   5.536  0.1045 -0.0196 -0.2268
 2957TIP3    H130286   0.823   3.660   5.565 -1.0060  0.5479 -2.0090
 2957TIP3    H230287   0.964   3.644   5.512  0.1297 -0.5066  1.0691
 2958TIP3   OH230288   6.439   0.849   1.553 -0.0548  0.0479 -0.2247
 2958TIP3    H130289   6.403   0.891   1.475  0.8570  0.0088 -0.6753
 2958TIP3    H230290   6.490   0.917   1.597 -0.6271  0.0939  0.3942
 2959TIP3   OH230291   6.174   0.030  12.779 -0.1712  0.2359 -0.0700
 2959TIP3    H130292   6.150   0.020  12.872 -0.1487 -0.0981 -0.0995
 2959TIP3    H230293   6.211  -0.055  12.755  1.2441  0.7920  0.0318
 2960TIP3   OH230294   6.402   1.394  14.268  0.0900 -0.0950  0.3086
 2960TIP3    H130295   6.374   1.316  14.220  0.5604 -0.8031  1.1385
 2960TIP3    H230296   6.367   1.467  14.218  2.3634 -0.6648 -2.3499
 2961TIP3   OH230297   4.952   2.381  15.375 -0.8137  0.1532 -0.9893
 2961TIP3    H130298   5.028   2.439  15.385  0.5747 -1.2228 -2.7492
 2961TIP3    H230299   4.989   2.293  15.376 -2.7139 -0.7030  0.3630
 2962TIP3   OH230300   0.756   6.017  12.247  0.0427  0.5532 -0.1271
 2962TIP3    H130301   0.682   5.996  12.305 -0.3396  1.4260 -0.2845
 2962TIP3    H230302   0.729   5.984  12.161  0.2573 -0.0018  0.0151
 2963TIP3   OH230303   0.267   4.234  11.755  0.0267  0.0175 -0.0769
 2963TIP3    H130304   0.217   4.174  11.810  0.9423 -0.2547  0.4828
 2963TIP3    H230305   0.206   4.306  11.736 -0.6149 -0.3724  0.4673
 2964TIP3   OH230306   0.583   1.316  14.054  0.3357  0.4767  0.4114
 2964TIP3    H130307   0.628   1.400  14.065 -0.6150  1.0861 -0.1970
 2964TIP3    H230308   0.490   1.339  14.049  0.0373 -0.6452  0.5439
 2965TIP3   OH230309   2.956   0.533   4.111 -0.1524  0.5804  0.1599
 2965TIP3    H130310   2.978   0.490   4.193 -0.8381 -1.3472 -0.6219
 2965TIP3    H230311   2.875   0.490   4.082  0.4493  0.7338 -1.8574
 2966TIP3   OH230312   6.520   5.095   0.447  0.2123 -0.2821  0.0504
 2966TIP3    H130313   6.586   5.027   0.429 -1.4109 -1.6287 -1.0654
 2966TIP3    H230314   6.504   5.089   0.541  0.3073 -1.2389  0.0092
 2967TIP3   OH230315   3.111   5.249   3.059  0.1308 -0.0970 -0.4525
 2967TIP3    H130316   3.066   5.168   3.036  1.3842 -1.0447  0.3390
 2967TIP3    H230317   3.204   5.226   3.059  0.6977  1.8417 -2.1715
 2968TIP3   OH230318   0.489   1.595   4.101 -0.1028 -0.0250 -0.0788
 2968TIP3    H130319   0.398   1.612   4.077 -0.4769  0.1459  1.3744
 2968TIP3    H230320   0.536   1.590   4.017 -1.7206 -1.8177 -0.9342
 2969TIP3   OH230321   3.211   4.122   3.932 -0.0859  0.0940  0.3591
 2969TIP3    H130322   3.197   4.108   3.838 -1.4329 -0.0921  0.5765
 2969TIP3    H230323   3.284   4.184   3.935 -0.3755  0.5350 -0.8294
 2970TIP3   OH230324   1.144   3.562  11.689  0.1837 -1.0227 -0.0858
 2970TIP3    H130325   1.200   3.614  11.746  0.9829 -1.6261 -0.3053
 2970TIP3    H230326   1.074   3.529  11.746 -0.0044 -0.1979  0.1723
 2971TIP3   OH230327   3.706   5.679  12.968 -0.2088 -0.1897 -0.0571
 2971TIP3    H130328   3.640   5.726  12.917 -0.1589 -1.7979 -1.6756
 2971TIP3    H230329   3.656   5.639  13.040 -0.4048  1.3950  0.7483
 2972TIP3   OH230330   1.676   3.349  11.375  0.2895 -0.1860  0.3001
 2972TIP3    H130331   1.717   3.305  11.300 -1.2070 -1.0992 -0.0278
 2972TIP3    H230332   1.710   3.303  11.451  0.6122 -0.2934  0.0951
 2973TIP3   OH230333   3.826   2.247  16.336 -0.3345  0.5731  0.3548
 2973TIP3    H130334   3.891   2.257  16.267 -0.3218  0.1678  0.3042
 2973TIP3    H230335   3.769   2.323  16.326 -1.4699 -0.4245 -1.3380
 2974TIP3   OH230336   0.218   1.431   2.289  0.5202  0.2193  0.7738
 2974TIP3    H130337   0.281   1.374   2.332  0.4353 -0.5453 -0.0794
 2974TIP3    H230338   0.133   1.390   2.308  0.5157 -0.3650 -0.4520
 2975TIP3   OH230339   5.545   4.039  15.418 -0.1856 -0.2052 -0.2204
 2975TIP3    H130340   5.585   4.060  15.334 -1.5957  0.6865 -0.7068
 2975TIP3    H230341   5.478   4.106  15.430 -0.4879 -0.7347  1.2889
 2976TIP3   OH230342   3.347   1.546  14.761 -0.1663 -0.0099 -0.0633
 2976TIP3    H130343   3.383   1.566  14.675 -0.1065  2.5278  0.4575
 2976TIP3    H230344   3.344   1.451  14.765 -1.1273 -0.2175 -3.2289
 2977TIP3   OH230345   4.362   6.664  16.849 -0.7882 -0.2462  0.1235
 2977TIP3    H130346   4.312   6.681  16.769  0.8201  0.2721 -0.8246
 2977TIP3    H230347   4.387   6.572  16.842  0.3449  0.0899 -0.6049
 2978TIP3   OH230348   4.863   2.650   2.712  0.3820  0.5390  0.3449
 2978TIP3    H130349   4.818   2.672   2.631  2.0897 -1.5136 -1.3077
 2978TIP3    H230350   4.956   2.663   2.692  0.9557 -1.4134  1.4248
 2979TIP3   OH230351   5.359   1.994  10.927  0.2851  0.6606  0.7678
 2979TIP3    H130352   5.426   1.929  10.943  1.2382  1.3178 -0.4330
 2979TIP3    H230353   5.395   2.050  10.858 -0.1874  2.8765  2.2171
 2980TIP3   OH230354   2.995   0.858   2.216  0.5213 -0.4310 -0.5919
 2980TIP3    H130355   3.059   0.787   2.227  0.9221  0.1963  1.6446
 2980TIP3    H230356   3.037   0.935   2.254  0.3434  1.2538 -3.4958
 2981TIP3   OH230357   1.945   1.698   2.767  0.7807  0.5721 -0.3771
 2981TIP3    H130358   1.861   1.738   2.786 -0.0189 -0.2045 -2.0279
 2981TIP3    H230359   1.977   1.744   2.689  0.5221 -0.9657 -1.4390
 2982TIP3   OH230360   0.926   5.163  15.265 -0.0689  1.1173 -0.4426
 2982TIP3    H130361   0.872   5.223  15.316  0.5711  0.3614  1.2026
 2982TIP3    H230362   0.865   5.097  15.233 -0.2862  0.6931  0.7670
 2983TIP3   OH230363   3.154   6.059  10.571  0.6719 -0.1163 -0.0983
 2983TIP3    H130364   3.076   6.029  10.525 -0.9058  1.6887  1.2410
 2983TIP3    H230365   3.172   5.990  10.635 -0.5699 -0.0148  0.3826
 2984TIP3   OH230366   6.466   2.365   2.442  0.0696  0.2588 -0.5076
 2984TIP3    H130367   6.406   2.309   2.491  0.1480 -0.5068 -1.2829
 2984TIP3    H230368   6.436   2.359   2.352  1.4922 -0.3800 -0.9581
 2985TIP3   OH230369   1.658   4.140   0.783 -0.9817 -0.1361 -0.3745
 2985TIP3    H130370   1.668   4.085   0.705 -0.0752  1.9217 -1.7755
 2985TIP3    H230371   1.747   4.155   0.813 -1.1359  1.3142 -0.5836
 2986TIP3   OH230372   1.545   6.424  12.311 -0.2636  0.8909  0.1237
 2986TIP3    H130373   1.500   6.451  12.391 -0.8579 -0.4968  0.3018
 2986TIP3    H230374   1.622   6.480  12.306  1.1202 -0.5748  3.0223
 2987TIP3   OH230375   4.992   3.391   1.795 -0.2936 -0.1724 -0.3218
 2987TIP3    H130376   5.006   3.483   1.774  0.2441 -0.4394 -1.2331
 2987TIP3    H230377   4.997   3.386   1.890  2.1036  0.3631 -0.3776
 2988TIP3   OH230378   4.524   0.244   1.451 -0.5709  0.0812  0.1606
 2988TIP3    H130379   4.447   0.274   1.403 -1.1966 -1.0660  0.4252
 2988TIP3    H230380   4.564   0.178   1.395  0.2583  0.6919  0.0084
 2989TIP3   OH230381   2.810   3.082   4.096 -0.6546 -0.6258 -0.0847
 2989TIP3    H130382   2.727   3.111   4.133 -0.5733 -0.7743  0.2159
 2989TIP3    H230383   2.864   3.061   4.172  0.1458  0.7900 -0.2215
 2990TIP3   OH230384   5.741   3.246   3.037  0.4457 -0.4652  0.1990
 2990TIP3    H130385   5.719   3.250   2.944  0.8604  0.6929  0.1372
 2990TIP3    H230386   5.823   3.295   3.045  1.0881 -1.5983  0.9880
 2991TIP3   OH230387   6.286   0.733   0.158 -0.4278  0.1214  0.1459
 2991TIP3    H130388   6.340   0.750   0.235 -0.6562  0.6208  0.1979
 2991TIP3    H230389   6.197   0.753   0.186 -0.7854 -1.5820  0.3431
 2992TIP3   OH230390   2.754   5.832  16.580  0.0941 -0.0874 -0.1841
 2992TIP3    H130391   2.773   5.780  16.658 -0.1241  2.8380  1.9992
 2992TIP3    H230392   2.834   5.882  16.564 -0.8216  1.4852 -0.0116
 2993TIP3   OH230393   4.931   0.031  16.013  0.2258  0.3336  0.4078
 2993TIP3    H130394   4.918  -0.020  15.934 -0.8521 -0.0125  0.7857
 2993TIP3    H230395   4.922  -0.033  16.084  1.7695  0.5185  0.8169
 2994TIP3   OH230396   5.339   0.022   2.051  0.4629  0.9255 -0.8224
 2994TIP3    H130397   5.334   0.093   2.115  1.1444  1.7413 -1.6473
 2994TIP3    H230398   5.420   0.038   2.003  0.5727 -0.3501 -1.1130
 2995TIP3   OH230399   4.524   4.155   2.802  0.1520  0.5988 -0.5408
 2995TIP3    H130400   4.536   4.140   2.895  2.2820  2.1498 -0.5002
 2995TIP3    H230401   4.528   4.251   2.793 -0.7572  0.5169 -2.1407
 2996TIP3   OH230402   2.459   5.052  11.483 -0.6412 -0.0738 -0.4911
 2996TIP3    H130403   2.449   5.028  11.575 -0.5195  0.0645 -0.4427
 2996TIP3    H230404   2.473   5.146  11.484 -1.7915  0.1205 -0.7189
 2997TIP3   OH230405   1.669   6.488   0.704 -0.3090 -0.7165 -0.0129
 2997TIP3    H130406   1.588   6.501   0.752  0.9512  1.9986  1.6296
 2997TIP3    H230407   1.727   6.443   0.766  0.6583  0.9315  0.3479
 2998TIP3   OH230408   3.529   1.620  14.974 -0.1241  0.1059  0.4187
 2998TIP3    H130409   3.619   1.592  14.957 -0.1767  0.9392 -1.5096
 2998TIP3    H230410   3.483   1.600  14.892 -2.3584 -2.6567  2.1678
 2999TIP3   OH230411   3.349   2.551   2.743 -0.0829 -0.1193 -0.3449
 2999TIP3    H130412   3.395   2.486   2.796 -1.5383  0.1022  1.2567
 2999TIP3    H230413   3.256   2.537   2.763 -0.6477  0.5047 -2.2598
 3000TIP3   OH230414   3.435   5.461   4.216 -0.2615 -0.0062 -0.2705
 3000TIP3    H130415   3.388   5.414   4.285 -1.0486 -0.0962 -0.8514
 3000TIP3    H230416   3.396   5.548   4.215  1.1299  0.6743  0.7384
 3001TIP3   OH230417   1.978   3.152  16.682 -0.1203 -0.2413  0.2813
 3001TIP3    H130418   1.892   3.112  16.684 -0.1985 -0.1213 -0.3998
 3001TIP3    H230419   2.029   3.104  16.748 -0.4268 -0.9498  0.0048
 3002TIP3   OH230420   2.228   2.256  11.814  0.2016  0.7046  0.2277
 3002TIP3    H130421   2.282   2.181  11.789  0.7543  1.1158  0.1629
 3002TIP3    H230422   2.289   2.330  11.818 -0.0403  0.8593  1.8398
 3003TIP3   OH230423   1.366   3.363  12.766 -0.4920  0.4028  0.4425
 3003TIP3    H130424   1.300   3.425  12.737  0.5022  0.9110 -0.7928
 3003TIP3    H230425   1.341   3.280  12.725  0.1090  0.7947 -0.7444
 3004TIP3   OH230426   5.904   4.140   4.208  0.0334  0.1894 -0.0421
 3004TIP3    H130427   5.838   4.181   4.264 -0.6656 -1.8686  0.7362
 3004TIP3    H230428   5.955   4.213   4.174 -2.3412  1.8321 -0.3139
 3005TIP3   OH230429   0.001   1.751   6.671 -0.3311  0.0047  0.0699
 3005TIP3    H130430   0.023   1.695   6.597 -0.0423  0.5849 -0.2973
 3005TIP3    H230431  -0.004   1.839   6.633  1.6594  0.6045  1.0332
 3006TIP3   OH230432   3.781   4.057   2.202  0.9439  0.0855 -0.0785
 3006TIP3    H130433   3.743   4.127   2.150  0.7368 -0.2102 -0.3316
 3006TIP3    H230434   3.740   3.977   2.169  0.0520 -0.0253  1.2112
 3007TIP3   OH230435   6.618   4.052  10.970 -0.2249  0.0170  0.8599
 3007TIP3    H130436   6.598   4.141  10.941  0.0677  0.0829  0.8500
 3007TIP3    H230437   6.684   4.064  11.039  1.2846 -0.2722 -0.4565
 3008TIP3   OH230438   6.512   1.982  10.860 -0.1542 -0.1078 -0.4497
 3008TIP3    H130439   6.578   1.948  10.799  0.3778  1.3697 -0.7201
 3008TIP3    H230440   6.475   2.058  10.816  0.1325  0.9055  0.9757
 3009TIP3   OH230441   2.098   6.166  13.838  0.6137  0.3310  0.1456
 3009TIP3    H130442   2.064   6.122  13.760  0.0127  0.8619  0.0907
 3009TIP3    H230443   2.177   6.119  13.861  0.5839 -0.0709 -0.5658
 3010TIP3   OH230444   2.842   0.215  16.851  0.3181  0.3432 -0.2554
 3010TIP3    H130445   2.824   0.143  16.791  0.3513  0.9651 -1.0214
 3010TIP3    H230446   2.767   0.216  16.911  0.3705 -0.3904 -0.1675
 3011TIP3   OH230447   4.976   1.896  15.835  0.3099  0.3260 -0.3551
 3011TIP3    H130448   4.981   1.978  15.785 -0.8024  0.3519 -0.4649
 3011TIP3    H230449   5.017   1.831  15.778  0.4197  0.6469 -0.6484
 3012TIP3   OH230450   4.212   1.061  11.713  0.1404 -0.3939 -0.8262
 3012TIP3    H130451   4.293   1.111  11.718  1.3084 -2.1821 -0.8325
 3012TIP3    H230452   4.145   1.120  11.746  0.8069  2.3281 -3.8469
 3013TIP3   OH230453   1.421   6.625   2.667 -0.4653 -0.0245 -0.1631
 3013TIP3    H130454   1.369   6.654   2.592 -0.5794  0.0052 -0.0736
 3013TIP3    H230455   1.402   6.689   2.735 -0.8920 -0.4231  0.1060
 3014TIP3   OH230456   2.046   5.190   0.978 -0.4616  0.5863 -0.2848
 3014TIP3    H130457   2.064   5.280   1.006  0.6841  0.3238 -0.1040
 3014TIP3    H230458   2.108   5.175   0.907 -0.2169 -0.2466  0.0899
 3015TIP3   OH230459   3.207   2.937   1.957 -0.3824 -0.3976 -0.2162
 3015TIP3    H130460   3.281   2.916   2.013  3.1193  3.5588 -2.7470
 3015TIP3    H230461   3.159   3.005   2.005  0.3988  0.3059 -0.4108
 3016TIP3   OH230462   6.085   4.093   4.571  0.1592  0.5721 -0.4873
 3016TIP3    H130463   6.065   4.049   4.653 -0.3803 -0.8584 -1.3529
 3016TIP3    H230464   6.114   4.181   4.597 -0.4588  0.3119  1.1871
 3017TIP3   OH230465   1.871   5.793  16.378  0.0245  0.5922 -0.2022
 3017TIP3    H130466   1.902   5.820  16.465  1.1839  1.7341 -0.9405
 3017TIP3    H230467   1.945   5.746  16.340  0.0663  1.3888 -1.1334
 3018TIP3   OH230468   3.074   0.425  11.071 -0.2073  0.0640 -0.1050
 3018TIP3    H130469   3.020   0.493  11.031  1.1284  1.0522 -0.3097
 3018TIP3    H230470   3.037   0.343  11.039 -1.6277  0.6962 -0.1531
 3019TIP3   OH230471   4.453   6.124   5.142 -0.2943  0.2050 -0.0937
 3019TIP3    H130472   4.435   6.030   5.136 -2.3243  0.6213 -1.3493
 3019TIP3    H230473   4.476   6.138   5.234  2.0436 -1.7805 -0.2585
 3020TIP3   OH230474   1.294   4.064   1.511  0.1451  0.5201  0.8076
 3020TIP3    H130475   1.252   4.060   1.597 -0.8704  1.3885  0.3795
 3020TIP3    H230476   1.228   4.105   1.455  0.4394 -0.8713 -0.6005
 3021TIP3   OH230477   2.364   6.500  11.109  0.1243 -0.2365  0.0516
 3021TIP3    H130478   2.336   6.514  11.018 -1.7498 -0.3672  0.5730
 3021TIP3    H230479   2.293   6.450  11.149  1.6752 -1.6330  1.1802
 3022TIP3   OH230480   0.220   3.892   5.991 -0.3864  0.2479 -0.7738
 3022TIP3    H130481   0.275   3.814   5.978  0.9748  0.9330  0.5851
 3022TIP3    H230482   0.142   3.859   6.035 -0.2606 -0.4879 -1.0878
 3023TIP3   OH230483   4.222   2.327  15.659  0.1142 -0.8013 -0.2123
 3023TIP3    H130484   4.298   2.270  15.655  0.2371 -0.6574  0.1165
 3023TIP3    H230485   4.183   2.320  15.571  0.7564 -0.5273 -0.5237
 3024TIP3   OH230486   6.020   4.581  11.318  0.2215 -0.3222  0.2228
 3024TIP3    H130487   6.071   4.620  11.389 -1.2216  0.1770  1.0318
 3024TIP3    H230488   5.956   4.649  11.295 -0.3267 -1.0677 -0.5072
 3025TIP3   OH230489   3.357   1.590   2.945  0.2650  0.3651  0.1551
 3025TIP3    H130490   3.313   1.673   2.962 -1.3977 -0.6099  0.7903
 3025TIP3    H230491   3.298   1.523   2.979  1.6647 -1.0898 -0.1254
 3026TIP3   OH230492   5.770   0.417   3.492  0.1266  0.4254 -0.1238
 3026TIP3    H130493   5.846   0.370   3.526  0.7079  1.3455 -0.1121
 3026TIP3    H230494   5.698   0.355   3.500  0.5847  0.0245  1.2058
 3027TIP3   OH230495   5.451   1.592   1.021  0.4961  0.3380  0.1079
 3027TIP3    H130496   5.518   1.658   1.041 -0.5727  1.5993 -0.2591
 3027TIP3    H230497   5.368   1.637   1.040 -0.3546 -0.2387 -1.9974
 3028TIP3   OH230498   2.357   5.196   4.301 -0.0252 -0.4514 -0.2049
 3028TIP3    H130499   2.389   5.286   4.293  0.3227 -0.5016  0.4938
 3028TIP3    H230500   2.333   5.187   4.393 -1.1869 -0.7119 -0.5153
 3029TIP3   OH230501   2.230   5.395   1.470 -0.2484  0.5014 -0.0442
 3029TIP3    H130502   2.284   5.438   1.404  0.2819 -0.5515 -0.3197
 3029TIP3    H230503   2.250   5.302   1.461  1.3572  0.4233  2.8764
 3030TIP3   OH230504   3.483   4.727  14.270 -0.0546  0.5621  0.4879
 3030TIP3    H130505   3.466   4.681  14.352 -2.4814  1.4469  0.5420
 3030TIP3    H230506   3.561   4.780  14.289  0.7288 -0.8673  1.4954
 3031TIP3   OH230507   4.687   3.909   5.683  0.0279 -0.0819 -0.1133
 3031TIP3    H130508   4.604   3.871   5.711  0.7535 -1.1963  0.6132
 3031TIP3    H230509   4.748   3.891   5.755  1.4093 -1.0911 -1.4526
 3032TIP3   OH230510   5.478   3.270  13.788 -0.0759 -0.5918 -0.0939
 3032TIP3    H130511   5.466   3.287  13.695  3.5774  1.5995 -0.3707
 3032TIP3    H230512   5.434   3.343  13.832  1.6981  0.7298 -0.4145
 3033TIP3   OH230513   5.069   2.698  14.330 -0.0029 -0.2515  0.3250
 3033TIP3    H130514   5.149   2.749  14.342 -1.3814  1.9891  0.4755
 3033TIP3    H230515   5.050   2.663  14.417 -0.0267  0.5495  0.6524
 3034TIP3   OH230516   3.454   6.706   1.443 -0.2891  0.2707 -0.2931
 3034TIP3    H130517   3.467   6.782   1.499  1.2928 -0.6734  0.6819
 3034TIP3    H230518   3.540   6.688   1.406 -0.7525 -0.7305 -0.9319
 3035TIP3   OH230519   3.181   5.510   2.695  0.4626 -0.5317 -0.5325
 3035TIP3    H130520   3.248   5.510   2.763 -0.0993 -1.3331  0.0374
 3035TIP3    H230521   3.221   5.462   2.622  0.1410 -1.9989  0.2122
 3036TIP3   OH230522   4.373   4.519  16.178 -0.4893  0.2594 -0.0709
 3036TIP3    H130523   4.311   4.501  16.107 -0.9679 -0.6505  0.5641
 3036TIP3    H230524   4.338   4.471  16.253  0.9967 -0.2742  0.2950
 3037TIP3   OH230525   5.071   2.215  11.950  0.2520  0.0124  0.5909
 3037TIP3    H130526   5.155   2.249  11.919  0.2668 -0.9105 -0.4509
 3037TIP3    H230527   5.024   2.291  11.984  1.6689  0.4815  1.5882
 3038TIP3   OH230528   4.439   5.024  11.330 -0.3382 -0.0841 -0.1537
 3038TIP3    H130529   4.490   5.051  11.407 -0.3426  0.1472 -0.2324
 3038TIP3    H230530   4.504   5.013  11.261 -0.1189 -1.8469  0.2816
 3039TIP3   OH230531   3.996   4.370   3.392 -0.1571 -0.4053 -0.4461
 3039TIP3    H130532   4.029   4.281   3.409 -0.8451 -0.2463  2.1707
 3039TIP3    H230533   4.053   4.427   3.444  0.1842  0.7009 -1.9808
 3040TIP3   OH230534   6.240   2.722   0.633 -0.1595  0.6816  0.2152
 3040TIP3    H130535   6.218   2.653   0.571 -0.4656  0.9781 -0.0098
 3040TIP3    H230536   6.267   2.796   0.578 -2.3627  1.6314  0.3318
 3041TIP3   OH230537   6.774   1.189   1.005 -0.1488 -0.1907 -0.6434
 3041TIP3    H130538   6.680   1.200   0.994 -0.2094  0.9291  0.6885
 3041TIP3    H230539   6.811   1.277   0.998  0.8042 -0.6026 -1.0920
 3042TIP3   OH230540   0.060   3.941   5.773  0.7358 -0.1862 -0.0473
 3042TIP3    H130541   0.045   3.847   5.760  2.0087 -0.3154 -0.7346
 3042TIP3    H230542   0.124   3.945   5.844  0.6634  0.1548 -0.0019
 3043TIP3   OH230543   5.638   2.206  12.286 -0.2943 -0.2000 -0.0185
 3043TIP3    H130544   5.693   2.211  12.364 -1.4898  1.4001  0.8005
 3043TIP3    H230545   5.689   2.248  12.217  0.8204 -1.7357 -0.1837
 3044TIP3   OH230546   4.901   2.116  14.303 -0.1629 -0.1259 -0.0534
 3044TIP3    H130547   4.985   2.150  14.335  0.2992 -0.7972 -0.5347
 3044TIP3    H230548   4.882   2.042  14.361  0.7174 -1.3991 -1.3311
 3045TIP3   OH230549   3.654   2.748   5.216 -0.0224 -0.3222 -0.3661
 3045TIP3    H130550   3.650   2.655   5.192  0.9889  0.0589 -2.2085
 3045TIP3    H230551   3.682   2.748   5.308 -0.6937 -1.8416 -0.1407
 3046TIP3   OH230552   0.966   6.151  13.481 -0.1342 -0.8393  0.2887
 3046TIP3    H130553   1.060   6.155  13.460  0.1312  0.2874  1.5958
 3046TIP3    H230554   0.926   6.216  13.423 -0.0615 -1.0436  0.0049
 3047TIP3   OH230555   6.018   2.103  13.704 -0.1149 -0.3958  0.4720
 3047TIP3    H130556   6.074   2.069  13.634  1.0345  0.9006  0.6941
 3047TIP3    H230557   6.029   2.198  13.698 -1.7688 -0.1517  0.9993
 3048TIP3   OH230558   0.085   1.128   2.540  0.0432 -0.1483  0.0361
 3048TIP3    H130559   0.056   1.168   2.622 -0.6244 -1.0012  0.2220
 3048TIP3    H230560   0.091   1.035   2.559 -1.3811 -0.5388 -1.2244
 3049TIP3   OH230561   2.621   2.985   3.428  0.8028  0.4241  0.4018
 3049TIP3    H130562   2.611   2.982   3.524  2.1884  1.2122  0.5947
 3049TIP3    H230563   2.634   2.894   3.403 -1.6569 -0.0888  0.6666
 3050TIP3   OH230564   3.007   0.970  12.195 -0.2908 -0.6042 -0.1314
 3050TIP3    H130565   3.017   1.034  12.265  1.2935 -2.9069  1.9341
 3050TIP3    H230566   2.945   1.010  12.134  1.0684  3.0626  0.6897
 3051TIP3   OH230567   2.364   3.200   3.146 -0.0132 -0.9083  0.1153
 3051TIP3    H130568   2.320   3.284   3.161  0.0621 -0.7697 -0.4161
 3051TIP3    H230569   2.442   3.223   3.095  0.8154 -1.1167  1.2459
 3052TIP3   OH230570   5.613   0.934   0.668 -0.2140  0.3552 -0.3145
 3052TIP3    H130571   5.572   0.861   0.715  1.6184 -0.5629 -0.0394
 3052TIP3    H230572   5.630   1.000   0.735 -0.5042  0.3918 -0.2782
 3053TIP3   OH230573   6.791   3.387  16.589 -0.7333  0.0256 -0.0606
 3053TIP3    H130574   6.727   3.454  16.613 -0.7385  0.1694 -0.4604
 3053TIP3    H230575   6.876   3.432  16.593 -0.6518 -0.1730  0.4964
 3054TIP3   OH230576   2.722   0.032  10.355  0.1223  0.1985  0.0136
 3054TIP3    H130577   2.684   0.003  10.438 -0.1790 -1.6006 -0.7107
 3054TIP3    H230578   2.775  -0.042  10.326 -0.6755  0.3406 -1.9592
 3055TIP3   OH230579   0.976   4.609   2.179  0.1334  0.3372 -0.1922
 3055TIP3    H130580   1.045   4.562   2.226 -0.0285 -0.1710 -0.4559
 3055TIP3    H230581   1.014   4.695   2.161  0.0403  0.7038  1.2481
 3056TIP3   OH230582   4.767   6.447   0.021  0.3149  0.3830  0.5066
 3056TIP3    H130583   4.861   6.437   0.038  0.1530  1.5689  2.4428
 3056TIP3    H230584   4.762   6.516  -0.045  0.8409 -1.0802 -1.1149
 3057TIP3   OH230585   1.768   0.433   3.817 -0.1922 -0.0512 -0.2633
 3057TIP3    H130586   1.816   0.423   3.735 -1.2221 -1.9605 -0.6896
 3057TIP3    H230587   1.834   0.420   3.885  0.1358 -1.6176 -0.8347
 3058TIP3   OH230588   4.112   2.600  16.113 -0.1346 -0.6159 -0.2600
 3058TIP3    H130589   4.123   2.668  16.046  0.8425 -1.9118 -1.4562
 3058TIP3    H230590   4.199   2.562  16.124 -0.3798 -0.7624  1.4206
 3059TIP3   OH230591   4.350   5.751   6.052  0.6874  0.1748 -0.3494
 3059TIP3    H130592   4.297   5.675   6.031 -0.5840  1.7078 -3.4236
 3059TIP3    H230593   4.323   5.818   5.988  1.6240  3.2825  2.2153
 3060TIP3   OH230594   3.410   2.503  16.438  0.1532 -0.2809 -0.3798
 3060TIP3    H130595   3.319   2.501  16.409  1.0109 -1.3331 -3.4373
 3060TIP3    H230596   3.408   2.468  16.527 -2.2715 -1.9269 -0.9691
 3061TIP3   OH230597   2.879   6.361  10.806 -0.3000 -0.9775 -0.3878
 3061TIP3    H130598   2.845   6.286  10.855  0.5926 -1.1024  0.0570
 3061TIP3    H230599   2.974   6.359  10.821 -0.5104  2.1137  2.3547
 3062TIP3   OH230600   6.673   5.583  14.182 -0.7569  0.2525 -0.2403
 3062TIP3    H130601   6.761   5.560  14.151  0.5245  1.0035  2.5446
 3062TIP3    H230602   6.654   5.665  14.137  0.9165  1.1720  0.6158
 3063TIP3   OH230603   1.747   0.295  16.649  0.4421  0.0673  0.9671
 3063TIP3    H130604   1.659   0.304  16.686 -0.0632  0.1502 -0.2036
 3063TIP3    H230605   1.755   0.369  16.589  1.2296 -0.0709  0.8907
 3064TIP3   OH230606   3.988   1.859  12.225 -0.4099  0.2602  0.0751
 3064TIP3    H130607   3.930   1.895  12.292  2.2886  4.4672  0.5177
 3064TIP3    H230608   3.951   1.889  12.142 -1.5860 -1.5612 -0.1078
 3065TIP3   OH230609   6.403   0.145  10.910  0.2100  0.0362  0.2183
 3065TIP3    H130610   6.392   0.156  10.816  1.8575  1.6846  0.1595
 3065TIP3    H230611   6.405   0.235  10.945 -0.6467 -0.5404  1.8792
 3066TIP3   OH230612   4.178   3.493   0.107  0.3489 -0.1112  0.1728
 3066TIP3    H130613   4.229   3.504   0.187  1.9039 -0.1594 -0.7677
 3066TIP3    H230614   4.132   3.409   0.119  1.0527 -0.4238  0.7502
 3067TIP3   OH230615   6.464   3.967  16.005  0.4187 -0.0118  0.1452
 3067TIP3    H130616   6.469   3.871  15.997  1.1447 -0.0459  0.8307
 3067TIP3    H230617   6.556   3.995  16.007  0.2248  0.5882  1.1218
 3068TIP3   OH230618   1.024   5.457  15.352  0.2622 -0.2030  0.4582
 3068TIP3    H130619   1.016   5.459  15.257 -1.3222  0.4866  0.5751
 3068TIP3    H230620   1.074   5.536  15.374 -0.8403  0.5490  0.3000
 3069TIP3   OH230621   3.636   5.311  12.671 -0.3045 -0.0673  0.6158
 3069TIP3    H130622   3.717   5.340  12.714  0.0220 -2.1714  1.5662
 3069TIP3    H230623   3.595   5.253  12.736 -0.1223 -2.8800 -1.5770
 3070TIP3   OH230624   6.559   5.501   1.884  0.6168  0.3191 -0.3909
 3070TIP3    H130625   6.620   5.564   1.923  0.6018  0.7495 -1.0529
 3070TIP3    H230626   6.608   5.418   1.884  0.5005  0.2247  0.8279
 3071TIP3   OH230627   0.800   2.407  15.627  0.7008 -0.3666  0.5104
 3071TIP3    H130628   0.763   2.494  15.641  0.0134 -0.6491  0.4863
 3071TIP3    H230629   0.890   2.424  15.602  0.9251  0.2930  1.6691
 3072TIP3   OH230630   6.719   5.031   1.634  0.1409  0.0551 -0.0327
 3072TIP3    H130631   6.707   5.125   1.648  1.2644  0.1813  0.2171
 3072TIP3    H230632   6.698   4.992   1.719  0.6307  0.1947  0.1624
 3073TIP3   OH230633   3.454   3.711  16.538  0.2124  0.9287  0.5068
 3073TIP3    H130634   3.477   3.652  16.466 -2.1353  0.4247  0.1106
 3073TIP3    H230635   3.478   3.661  16.617 -1.7610 -0.6743  0.1821
 3074TIP3   OH230636   5.418   0.492  13.185 -0.0021  0.3206  0.4933
 3074TIP3    H130637   5.504   0.462  13.212  1.0885  0.7317 -2.2002
 3074TIP3    H230638   5.430   0.584  13.160 -1.2987  0.4987  0.4335
 3075TIP3   OH230639   3.645   3.506   5.977  0.3390 -0.0052 -0.4300
 3075TIP3    H130640   3.659   3.415   6.003 -0.9148  0.2168  1.1458
 3075TIP3    H230641   3.734   3.542   5.968  0.8560 -1.5501 -1.7921
 3076TIP3   OH230642   5.572   0.578   5.170  0.2634 -0.5859  0.4705
 3076TIP3    H130643   5.574   0.548   5.079 -0.9687  2.0113 -0.5117
 3076TIP3    H230644   5.480   0.597   5.187  0.0994 -3.0174  3.0711
 3077TIP3   OH230645   1.725   2.109   1.135 -0.0388  0.4457  0.4302
 3077TIP3    H130646   1.770   2.179   1.089 -0.0024  0.2047  0.0991
 3077TIP3    H230647   1.749   2.030   1.088  0.9471  0.0391  1.5511
 3078TIP3   OH230648   0.221   0.351  15.835 -0.9505  0.1715 -0.0448
 3078TIP3    H130649   0.230   0.414  15.763 -1.9248 -0.6355 -0.9084
 3078TIP3    H230650   0.302   0.360  15.885 -1.3104  2.5486  0.2355
 3079TIP3   OH230651   2.617   6.740   4.569 -0.1926 -0.0553 -0.5645
 3079TIP3    H130652   2.642   6.665   4.515 -0.4457 -2.2734  2.1483
 3079TIP3    H230653   2.696   6.794   4.575 -0.2243  0.3784 -3.1798
 3080TIP3   OH230654   2.229   4.715  15.475 -0.2584  0.1095 -0.1467
 3080TIP3    H130655   2.142   4.722  15.514  0.4429  3.9450  1.1541
 3080TIP3    H230656   2.241   4.797  15.427  1.4994 -1.6427 -3.0782
 3081TIP3   OH230657   1.922   0.127  16.517  0.0023  0.4798 -0.0997
 3081TIP3    H130658   1.847   0.171  16.556 -2.9708 -2.5206 -1.9353
 3081TIP3    H230659   1.924   0.158  16.426  1.6670  1.2061  0.1356
 3082TIP3   OH230660   3.148   2.629  14.158  0.1724 -0.2388  0.2141
 3082TIP3    H130661   3.223   2.642  14.099  0.9612 -0.3430  1.1572
 3082TIP3    H230662   3.115   2.542  14.137 -1.3563  0.7969 -2.0110
 3083TIP3   OH230663   3.597   0.686  15.524  0.0462  0.5146  0.4858
 3083TIP3    H130664   3.678   0.674  15.573  0.0356  1.9535  0.9123
 3083TIP3    H230665   3.550   0.755  15.572  0.5711  2.8882 -2.1523
 3084TIP3   OH230666   2.923   6.264   5.450 -0.4742 -0.0369 -0.1598
 3084TIP3    H130667   2.938   6.230   5.362  2.8257  2.0169 -0.5384
 3084TIP3    H230668   2.888   6.352   5.436 -0.1020  0.2353  0.5714
 3085TIP3   OH230669   0.357   1.880   5.275 -0.2111  0.0254 -1.1700
 3085TIP3    H130670   0.358   1.953   5.336  0.6176  0.7253 -1.9956
 3085TIP3    H230671   0.291   1.821   5.310 -0.3316  0.7927 -0.0543
 3086TIP3   OH230672   4.139   1.865   4.467  0.3758  0.2255 -0.4492
 3086TIP3    H130673   4.081   1.802   4.509 -0.1344 -0.5419 -2.2067
 3086TIP3    H230674   4.147   1.936   4.530 -2.6843  0.4891 -0.2082
 3087TIP3   OH230675   0.250   5.022   0.510  0.3407 -0.2465  0.4774
 3087TIP3    H130676   0.277   4.939   0.549  0.4002 -0.1104  0.7310
 3087TIP3    H230677   0.248   5.083   0.584 -0.0407 -0.1062  0.3538
 3088TIP3   OH230678   4.222   4.522   3.980  0.0918 -0.9272  0.1134
 3088TIP3    H130679   4.280   4.452   3.949 -1.3837 -1.9944 -0.3309
 3088TIP3    H230680   4.151   4.524   3.916  0.0076  0.8854  0.2174
 3089TIP3   OH230681   6.088   2.984  12.267 -0.1640 -0.6075 -0.0715
 3089TIP3    H130682   6.151   2.967  12.337 -0.5554 -2.2528 -0.0816
 3089TIP3    H230683   6.106   3.074  12.241  0.9123 -0.4151  1.2027
 3090TIP3   OH230684   0.767   4.809   3.826  0.0297  0.4336  0.2001
 3090TIP3    H130685   0.840   4.781   3.770 -1.3484  0.4751 -1.7395
 3090TIP3    H230686   0.801   4.885   3.873  0.6900  1.6933 -2.1313
 3091TIP3   OH230687   1.141   3.516   1.454  0.1503 -0.0813 -0.7097
 3091TIP3    H130688   1.217   3.568   1.428  0.4979  1.6417  3.0845
 3091TIP3    H230689   1.065   3.567   1.425  0.4705  0.3898 -0.7270
 3092TIP3   OH230690   5.004   1.149  12.676  0.3357 -0.2233  0.6336
 3092TIP3    H130691   5.072   1.183  12.618 -0.4891 -0.6289 -0.6225
 3092TIP3    H230692   4.923   1.188  12.644  0.0336  0.9821  2.6693
 3093TIP3   OH230693   0.078   5.351   3.287  0.4201  0.1250  0.3466
 3093TIP3    H130694   0.083   5.281   3.352  0.0857 -0.3524 -0.1339
 3093TIP3    H230695   0.125   5.425   3.327 -1.3881  0.4850  1.9089
 3094TIP3   OH230696   1.001   3.006  15.113 -0.4925  0.0207 -0.6982
 3094TIP3    H130697   0.973   2.921  15.079 -0.9115 -0.0386 -0.2035
 3094TIP3    H230698   0.921   3.052  15.135 -0.3082  0.8658 -1.6842
 3095TIP3   OH230699   4.708   3.834   1.228  0.0169 -0.1191 -0.0393
 3095TIP3    H130700   4.733   3.741   1.228  0.8005  0.0875  0.0992
 3095TIP3    H230701   4.684   3.852   1.319 -0.9201 -0.3893 -0.2287
 3096TIP3   OH230702   4.678   5.823  16.070 -0.2441  0.2801  0.1968
 3096TIP3    H130703   4.737   5.837  16.144  0.8233 -1.4351 -0.2968
 3096TIP3    H230704   4.685   5.903  16.018 -0.4244  1.1895  1.5071
 3097TIP3   OH230705   2.894   4.882   1.937  0.2949  0.0926  0.1490
 3097TIP3    H130706   2.901   4.833   2.020 -0.9732 -0.0801  0.1821
 3097TIP3    H230707   2.946   4.830   1.875 -0.4638 -0.9487  0.3491
 3098TIP3   OH230708   3.531   3.719   5.860 -0.3499 -0.3060  0.2264
 3098TIP3    H130709   3.568   3.637   5.894 -2.3715 -1.5619 -0.3959
 3098TIP3    H230710   3.533   3.778   5.935  0.6149 -1.1111  0.8661
 3099TIP3   OH230711   2.655   1.607  16.155  0.3936  0.1453  0.7848
 3099TIP3    H130712   2.695   1.522  16.173 -0.1683 -0.0554  1.1222
 3099TIP3    H230713   2.608   1.629  16.235 -1.3716 -0.3157 -0.0663
 3100TIP3   OH230714   3.128   4.021  11.577  0.7158 -0.0297  0.1323
 3100TIP3    H130715   3.191   4.016  11.650  0.9988 -2.6522 -0.2016
 3100TIP3    H230716   3.183   4.019  11.499  0.2880 -0.7118 -0.1533
 3101TIP3   OH230717   4.589   1.749  16.368 -0.0700 -0.2434  0.7657
 3101TIP3    H130718   4.519   1.805  16.336  1.5676  1.0193 -0.7605
 3101TIP3    H230719   4.618   1.791  16.449 -0.3987 -0.2603  0.8977
 3102TIP3   OH230720   6.281   6.531  12.699 -0.6802  0.1917 -0.2354
 3102TIP3    H130721   6.356   6.552  12.755 -0.1314  0.3279 -1.0158
 3102TIP3    H230722   6.300   6.444  12.665 -1.4940 -0.3106  0.5721
 3103TIP3   OH230723   4.548   0.768   2.052  0.0727  0.3621  0.6156
 3103TIP3    H130724   4.495   0.816   1.988 -0.7239  0.3329  1.2386
 3103TIP3    H230725   4.590   0.698   2.001 -0.9714  0.0085  0.2112
 3104TIP3   OH230726   4.695   3.136   2.627  0.1182  0.8494  0.1155
 3104TIP3    H130727   4.689   3.045   2.655  1.8909  0.8228  0.5399
 3104TIP3    H230728   4.696   3.131   2.531  1.2594  0.2992  0.1325
 3105TIP3   OH230729   3.308   4.848  11.028 -0.0199 -0.7185  0.1273
 3105TIP3    H130730   3.266   4.792  10.962  1.9653  0.7802 -2.6369
 3105TIP3    H230731   3.397   4.814  11.035  0.0543 -0.2914  1.4059
 3106TIP3   OH230732   2.138   4.905  12.214  0.2219  0.0008 -0.1079
 3106TIP3    H130733   2.048   4.931  12.195 -0.3265 -1.0241  0.9790
 3106TIP3    H230734   2.142   4.812  12.190  1.5957  0.5049 -2.1013
 3107TIP3   OH230735   3.395   1.343  16.674 -0.1072 -0.3490  0.1208
 3107TIP3    H130736   3.489   1.352  16.663 -0.3669  0.4432 -1.8336
 3107TIP3    H230737   3.367   1.427  16.709 -0.4357  0.6911 -2.4069
 3108TIP3   OH230738   1.509   0.096  15.235 -0.5040  0.3182 -0.7741
 3108TIP3    H130739   1.601   0.092  15.209  0.1438 -1.3085  1.4645
 3108TIP3    H230740   1.502   0.176  15.287  0.3777 -0.8320  1.2503
 3109TIP3   OH230741   0.846   5.000  11.329  0.3292  0.1107  0.2748
 3109TIP3    H130742   0.838   5.084  11.374  0.2287  0.0219  0.4240
 3109TIP3    H230743   0.917   5.013  11.266 -0.3167  0.6016 -0.3688
 3110TIP3   OH230744   1.875   4.878  14.052  0.2608  0.2522 -0.3882
 3110TIP3    H130745   1.969   4.891  14.058  0.2481  0.1123  0.1623
 3110TIP3    H230746   1.853   4.900  13.961  0.5398  2.0564 -0.0502
 3111TIP3   OH230747   1.767   2.245  16.289 -0.3688 -0.4401  0.1228
 3111TIP3    H130748   1.685   2.224  16.332  0.0669 -1.6579  0.3799
 3111TIP3    H230749   1.834   2.202  16.341  0.4238  0.3768 -0.1925
 3112TIP3   OH230750   4.583   1.957  15.131  0.8017 -0.4431 -0.2277
 3112TIP3    H130751   4.609   1.999  15.049 -0.6795  0.6256 -0.1897
 3112TIP3    H230752   4.593   2.025  15.197  1.3724 -1.1072  0.3916
 3113TIP3   OH230753   1.688   6.188  12.559  0.2915 -0.2587 -0.3155
 3113TIP3    H130754   1.623   6.243  12.602 -0.1916  0.1450 -1.4996
 3113TIP3    H230755   1.639   6.141  12.491  1.3852  0.9635 -2.0539
 3114TIP3   OH230756   5.994   0.304  14.983 -0.7266 -0.1585  0.1098
 3114TIP3    H130757   5.987   0.344  15.070 -0.8579  0.5582 -0.2227
 3114TIP3    H230758   5.941   0.225  14.989 -1.9584  0.6455  0.2663
 3115TIP3   OH230759   2.252   4.085  13.580  0.0676 -0.3062 -0.4656
 3115TIP3    H130760   2.307   4.054  13.508  1.2887 -1.2838  0.8359
 3115TIP3    H230761   2.181   4.021  13.586 -1.4366  1.0448 -2.2531
 3116TIP3   OH230762   4.381   0.309   3.488 -0.3549  0.6461 -0.3333
 3116TIP3    H130763   4.473   0.325   3.468  0.6395 -3.9834 -0.4261
 3116TIP3    H230764   4.382   0.241   3.555 -3.7608  0.8963  0.1384
 3117TIP3   OH230765   6.131   4.050   4.301  0.1859 -0.2017  0.0117
 3117TIP3    H130766   6.158   4.083   4.387 -0.4511 -0.0867  0.1707
 3117TIP3    H230767   6.036   4.059   4.300  0.3070  1.2460 -1.3043
 3118TIP3   OH230768   4.657   6.232  16.419  0.3683  0.1679  0.2491
 3118TIP3    H130769   4.727   6.197  16.474  1.4567  0.3196 -0.9966
 3118TIP3    H230770   4.618   6.302  16.471  0.3868 -0.6451  1.3994
 3119TIP3   OH230771   2.739   3.401   6.561 -0.8214  0.0881 -0.2385
 3119TIP3    H130772   2.686   3.328   6.529  0.2710 -2.9994  4.0953
 3119TIP3    H230773   2.823   3.361   6.584  0.6271  3.2172  0.4086
 3120TIP3   OH230774   0.073   0.850  16.757  0.2769  0.0971 -0.3373
 3120TIP3    H130775  -0.005   0.801  16.783  0.3417 -0.3189 -0.9320
 3120TIP3    H230776   0.116   0.795  16.692  2.2005 -0.6735  1.4648
 3121TIP3   OH230777   5.722   4.612  15.760 -0.4465 -0.1418 -0.0861
 3121TIP3    H130778   5.652   4.570  15.810 -0.5335  0.9328  0.7427
 3121TIP3    H230779   5.712   4.578  15.671 -2.1017  0.0897 -0.0230
 3122TIP3   OH230780   2.857   6.655  14.698  0.2595  0.3909 -0.3768
 3122TIP3    H130781   2.852   6.734  14.643 -0.9080 -1.5108 -3.2750
 3122TIP3    H230782   2.947   6.624  14.687  0.5162  0.9060  0.2009
 3123TIP3   OH230783   4.494   3.104   5.502  0.6080 -0.0800  0.3628
 3123TIP3    H130784   4.507   3.194   5.472 -2.2162  0.4562  0.5302
 3123TIP3    H230785   4.583   3.068   5.507  2.2369  3.6761  3.5420
 3124TIP3   OH230786   4.757   4.409  16.694  0.2758 -0.0517 -0.2543
 3124TIP3    H130787   4.695   4.455  16.750  2.8382 -0.4495  3.2025
 3124TIP3    H230788   4.813   4.478  16.658 -1.5342  0.2335 -2.8000
 3125TIP3   OH230789   5.322   4.615  14.648 -0.0553 -0.8064  0.2698
 3125TIP3    H130790   5.369   4.630  14.567 -1.4465 -0.0684 -0.4416
 3125TIP3    H230791   5.261   4.544  14.627 -1.5761  0.4727  0.1142
 3126TIP3   OH230792   4.556   2.126  10.944 -0.1158  0.1494  0.4890
 3126TIP3    H130793   4.635   2.073  10.953  0.1674  0.6779  1.2519
 3126TIP3    H230794   4.589   2.215  10.930 -0.5794  0.2134 -0.1907
 3127TIP3   OH230795   1.473   6.050   3.462  0.2052 -0.4142 -0.0712
 3127TIP3    H130796   1.499   6.141   3.478  1.0055 -0.6110 -0.2276
 3127TIP3    H230797   1.554   6.005   3.440 -0.4433 -0.7650 -1.8981
 3128TIP3   OH230798   5.158   3.417   0.871 -0.5402 -0.1722 -0.0743
 3128TIP3    H130799   5.135   3.413   0.778 -0.4303  2.2909 -0.2651
 3128TIP3    H230800   5.078   3.448   0.914 -0.0628  0.3997  0.4083
 3129TIP3   OH230801   4.376   3.658   4.796  0.5884 -0.3773 -0.0326
 3129TIP3    H130802   4.427   3.739   4.802 -0.4942  0.2292  1.8826
 3129TIP3    H230803   4.299   3.674   4.852 -0.5537 -2.0814 -1.0138
 3130TIP3   OH230804   2.967   0.220   1.367 -0.0783  0.0554 -0.4028
 3130TIP3    H130805   2.978   0.155   1.437 -0.0932  0.1116 -0.3483
 3130TIP3    H230806   2.873   0.231   1.359 -0.0768  0.0431 -0.4380
 3131TIP3   OH230807   1.252   4.628   2.340  0.3700  0.4716 -0.1892
 3131TIP3    H130808   1.285   4.696   2.398  1.8110  1.3207 -1.8899
 3131TIP3    H230809   1.317   4.624   2.269 -0.5235 -1.5507 -0.9610
 3132TIP3   OH230810   4.391   3.264  13.950  0.0697  0.2457 -0.1073
 3132TIP3    H130811   4.368   3.357  13.960  1.2878  0.5171  0.2974
 3132TIP3    H230812   4.439   3.243  14.030 -1.8756 -1.2860  0.7280
 3133TIP3   OH230813   4.874   2.484   2.922  0.5436  0.1139 -0.0556
 3133TIP3    H130814   4.815   2.410   2.936  0.3734  0.5528  1.9015
 3133TIP3    H230815   4.834   2.533   2.850 -0.9259 -0.1656  0.5245
 3134TIP3   OH230816   1.629   0.338   0.912  0.4730 -0.1962 -0.1039
 3134TIP3    H130817   1.620   0.333   1.007 -0.8031  3.3414  0.1160
 3134TIP3    H230818   1.716   0.376   0.898 -0.1535  1.3246 -0.1406
 3135TIP3   OH230819   0.065   6.817   2.286  0.7238  0.3789  0.3593
 3135TIP3    H130820   0.124   6.759   2.238  0.1008  1.1208 -1.3763
 3135TIP3    H230821  -0.011   6.762   2.306  0.7101  0.2225 -0.1013
 3136TIP3   OH230822   4.674   6.801  12.462 -0.1529 -0.2415 -0.0983
 3136TIP3    H130823   4.592   6.769  12.498  0.0434 -0.7504 -0.0918
 3136TIP3    H230824   4.730   6.816  12.538 -0.0787 -0.3558 -0.1304
 3137TIP3   OH230825   4.447   1.551  11.485 -0.0126 -0.4627 -0.0392
 3137TIP3    H130826   4.508   1.591  11.423  0.2686 -1.3311 -0.3385
 3137TIP3    H230827   4.396   1.625  11.519 -0.0824  0.0499 -1.1969
 3138TIP3   OH230828   6.459   3.649   0.189 -0.0585  0.2383  0.2105
 3138TIP3    H130829   6.443   3.558   0.212  0.5930  0.9597  4.1571
 3138TIP3    H230830   6.554   3.660   0.195  0.1940  0.6860 -2.8511
 3139TIP3   OH230831   3.621   2.670   1.000 -0.5329  0.2906 -0.6289
 3139TIP3    H130832   3.553   2.621   1.046 -0.4450 -0.8451 -1.6637
 3139TIP3    H230833   3.589   2.677   0.910  0.2920  0.5805 -0.9090
 3140TIP3   OH230834   5.427   0.874   4.621  0.0024  0.0636 -0.4008
 3140TIP3    H130835   5.452   0.809   4.687 -0.2434 -0.4073 -0.7711
 3140TIP3    H230836   5.471   0.845   4.541 -1.8807 -0.9315 -1.1483
 3141TIP3   OH230837   5.287   0.061  12.011 -0.3040 -0.3172  0.4216
 3141TIP3    H130838   5.262   0.029  11.925  0.4795  0.6659 -0.1862
 3141TIP3    H230839   5.348   0.132  11.994  0.1771 -0.3669  1.7949
 3142TIP3   OH230840   5.458   3.971   2.882 -0.6922 -0.3533 -0.0787
 3142TIP3    H130841   5.500   4.010   2.805  0.1795 -0.4866  0.3152
 3142TIP3    H230842   5.368   3.953   2.854 -0.7559  0.7597 -0.6665
 3143TIP3   OH230843   3.869   3.279   3.674  0.1843 -0.4622 -0.1313
 3143TIP3    H130844   3.865   3.296   3.580 -0.5972 -0.0935 -0.0376
 3143TIP3    H230845   3.963   3.270   3.693  0.3171 -1.0050 -1.0201
 3144TIP3   OH230846   2.395   3.071  15.053 -0.1391  0.5846 -0.1100
 3144TIP3    H130847   2.486   3.049  15.034  0.4202  2.1625  0.5541
 3144TIP3    H230848   2.384   3.159  15.019 -2.0088 -0.2526 -1.8840
 3145TIP3   OH230849   4.013   4.750   3.078 -0.5921 -0.2285  0.3707
 3145TIP3    H130850   3.927   4.753   3.036  0.3664  0.4523 -1.6915
 3145TIP3    H230851   4.075   4.744   3.005  1.2115  1.5022  1.6422
 3146TIP3   OH230852   3.172   1.061  11.975  0.1061 -0.0813  0.7749
 3146TIP3    H130853   3.147   0.982  12.024  1.3898 -0.4788  0.8193
 3146TIP3    H230854   3.190   1.126  12.042  0.2812 -0.1311  0.7750
 3147TIP3   OH230855   2.971   3.774  11.053  0.2371  0.4906  0.3439
 3147TIP3    H130856   3.031   3.848  11.067 -1.0760  1.6083  0.3403
 3147TIP3    H230857   3.020   3.713  10.998  1.1236  1.7025 -0.2698
 3148TIP3   OH230858   1.101   3.278   6.082 -0.5890 -0.1135 -0.5632
 3148TIP3    H130859   1.085   3.301   6.173 -0.2787 -0.3916 -0.4379
 3148TIP3    H230860   1.195   3.264   6.076 -0.7757 -1.5892 -0.5622
 3149TIP3   OH230861   4.636   1.486   2.074  0.3989 -0.1663  0.4083
 3149TIP3    H130862   4.606   1.554   2.134 -3.4316  0.4070 -1.7832
 3149TIP3    H230863   4.614   1.404   2.118 -1.3034  0.2251  0.3650
 3150TIP3   OH230864   6.767   6.674  12.715 -0.5376 -0.1459 -0.1817
 3150TIP3    H130865   6.846   6.682  12.769 -1.0030  2.5095  0.2367
 3150TIP3    H230866   6.696   6.666  12.779 -1.0208  2.2707 -0.3565
 3151TIP3   OH230867   4.554   3.647   5.150  0.1951 -0.0560 -0.7181
 3151TIP3    H130868   4.535   3.570   5.204 -1.2817  0.7754  0.0153
 3151TIP3    H230869   4.587   3.712   5.213 -1.8242  1.0219 -0.7179
 3152TIP3   OH230870   2.562   6.165  13.076  0.1655  0.6563  0.7992
 3152TIP3    H130871   2.642   6.123  13.107  1.1056  1.1373 -0.9156
 3152TIP3    H230872   2.546   6.127  12.990 -0.7832  1.4580  0.6029
 3153TIP3   OH230873   6.178   4.193   0.097 -0.4184  0.6006 -0.6266
 3153TIP3    H130874   6.118   4.249   0.147  0.4735  1.5249 -0.5475
 3153TIP3    H230875   6.246   4.253   0.066  2.1829 -0.8434  1.8803
 3154TIP3   OH230876   3.403   5.186   2.315  0.7923 -0.4737  0.4149
 3154TIP3    H130877   3.367   5.210   2.229  1.0809 -0.4538  0.2999
 3154TIP3    H230878   3.481   5.241   2.325  0.0319  0.5048  1.2767
 3155TIP3   OH230879   2.461   1.486  10.333  0.5572  0.1048  0.3639
 3155TIP3    H130880   2.470   1.424  10.405  0.1555 -0.0949  0.2452
 3155TIP3    H230881   2.498   1.568  10.367  0.7970 -0.1129  0.6301
 3156TIP3   OH230882   0.112   4.078   5.505 -0.0466  0.0529  0.6904
 3156TIP3    H130883   0.093   4.017   5.577 -0.3691 -0.1348  0.4506
 3156TIP3    H230884   0.178   4.137   5.540  0.1722 -0.3554  0.9713
 3157TIP3   OH230885   5.555   3.573   3.032 -0.4118  0.0128  0.2572
 3157TIP3    H130886   5.486   3.553   2.970  0.6859 -1.5768 -0.5064
 3157TIP3    H230887   5.541   3.511   3.104 -0.9225  1.0021  1.0368
 3158TIP3   OH230888   0.864   4.220   6.499 -0.2488  0.1665 -0.2582
 3158TIP3    H130889   0.941   4.178   6.539 -1.5806 -1.4474  0.7303
 3158TIP3    H230890   0.790   4.172   6.534 -1.5973 -0.8049 -4.0827
 3159TIP3   OH230891   0.714   3.402   4.816 -0.2207  0.2161 -0.6548
 3159TIP3    H130892   0.767   3.407   4.736  1.4440  1.2660  0.4622
 3159TIP3    H230893   0.723   3.488   4.856 -1.2400 -0.2113  0.5516
 3160TIP3   OH230894   3.628   0.581  15.244 -0.0159  0.1187  0.5909
 3160TIP3    H130895   3.593   0.610  15.328 -2.9108  0.8156 -0.7142
 3160TIP3    H230896   3.578   0.501  15.223 -0.2254  0.6090 -0.9599
 3161TIP3   OH230897   1.809   5.325  13.802 -0.2645  0.6944 -0.2073
 3161TIP3    H130898   1.849   5.378  13.871  1.9969  0.7932 -1.4960
 3161TIP3    H230899   1.839   5.236  13.820  1.3790  0.9038 -1.7018
 3162TIP3   OH230900   5.637   2.302   4.457  0.4467 -0.3505  1.1824
 3162TIP3    H130901   5.601   2.303   4.368  0.7131  2.4034  1.0191
 3162TIP3    H230902   5.560   2.312   4.514  0.5245  2.1031  0.9849
 3163TIP3   OH230903   4.700   6.466  15.828  0.3253  0.8221 -0.3407
 3163TIP3    H130904   4.773   6.416  15.865 -1.7344 -1.1928  1.3863
 3163TIP3    H230905   4.673   6.416  15.751 -0.4140  0.4198  0.1647
 3164TIP3   OH230906   6.054   3.370  15.679 -0.1138  0.7768  0.6149
 3164TIP3    H130907   6.141   3.399  15.652  0.5175 -0.4943  1.1718
 3164TIP3    H230908   6.044   3.284  15.638 -1.7989  1.5693 -0.7622
 3165TIP3   OH230909   0.989   6.451   0.355  0.8015  0.3791 -0.5453
 3165TIP3    H130910   1.023   6.534   0.387 -2.2379  1.7067 -0.3654
 3165TIP3    H230911   0.981   6.397   0.433  0.4131  0.8855 -0.2234
 3166TIP3   OH230912   1.735   4.760  11.882  0.1989  0.3666 -0.0673
 3166TIP3    H130913   1.783   4.776  11.963  0.2783 -1.2295  0.2276
 3166TIP3    H230914   1.693   4.844  11.862  0.8791  1.0186  1.1507
 3167TIP3   OH230915   0.504   6.365   6.321 -0.2415 -0.3196  0.8076
 3167TIP3    H130916   0.509   6.451   6.280 -0.2693 -0.4535  0.5195
 3167TIP3    H230917   0.418   6.331   6.296  0.5736 -1.2824 -0.7943
 3168TIP3   OH230918   3.047   5.879   2.897  0.3732 -0.2945 -0.3822
 3168TIP3    H130919   3.083   5.807   2.844  1.6409 -1.3652  1.8058
 3168TIP3    H230920   3.123   5.933   2.919 -0.0872  0.0058  0.5025
 3169TIP3   OH230921   2.673   0.831   0.400 -0.4941 -0.3858  0.5711
 3169TIP3    H130922   2.668   0.873   0.314 -1.3128 -1.7416 -0.0850
 3169TIP3    H230923   2.746   0.875   0.444  0.0028  0.2818 -0.8526
 3170TIP3   OH230924   1.191   2.530  15.770  0.2277  0.7718 -0.8920
 3170TIP3    H130925   1.261   2.590  15.798  0.4340  0.0056  0.2855
 3170TIP3    H230926   1.140   2.513  15.849  0.1215 -0.5373 -1.2179
 3171TIP3   OH230927   6.426   3.408   2.867  0.0887 -0.1715 -0.0973
 3171TIP3    H130928   6.339   3.412   2.828  0.8953 -0.9425 -2.1493
 3171TIP3    H230929   6.436   3.492   2.912 -1.5348  0.1095 -0.2029
 3172TIP3   OH230930   4.921   0.465   3.501 -0.0802  0.3256 -0.1509
 3172TIP3    H130931   4.965   0.401   3.557  0.6630  0.0202 -1.0436
 3172TIP3    H230932   4.830   0.436   3.498 -0.0554  0.1561  0.6154
 3173TIP3   OH230933   3.766   6.554   2.078  0.5385 -0.0508 -0.3178
 3173TIP3    H130934   3.759   6.556   1.983 -0.9670 -0.6819 -0.2476
 3173TIP3    H230935   3.730   6.468   2.103  2.2906 -0.5484  0.7346
 3174TIP3   OH230936   5.876   4.384   4.610 -0.4243 -0.7142  0.6106
 3174TIP3    H130937   5.855   4.299   4.649 -0.2779 -2.1168 -2.1562
 3174TIP3    H230938   5.971   4.382   4.596 -0.5196 -0.4197 -0.1332
 3175TIP3   OH230939   1.201   1.958   6.355 -0.5554  0.0207  0.6341
 3175TIP3    H130940   1.133   2.024   6.338 -1.2726 -0.4274  1.6324
 3175TIP3    H230941   1.179   1.923   6.442  0.6403 -0.5332  0.7367
 3176TIP3   OH230942   3.284   2.755  16.840  0.0222 -0.5652 -0.1919
 3176TIP3    H130943   3.276   2.842  16.879  2.0694  0.2343 -1.3864
 3176TIP3    H230944   3.244   2.764  16.753  1.4332 -0.3952 -0.8464
 3177TIP3   OH230945   1.416   4.444  12.465  0.2814 -0.2270 -0.0623
 3177TIP3    H130946   1.489   4.417  12.409  0.1445 -0.1594 -0.2736
 3177TIP3    H230947   1.348   4.378  12.451  0.0421  0.0858 -0.3893
 3178TIP3   OH230948   4.897   5.064  16.337  0.2504 -0.7811  0.0953
 3178TIP3    H130949   4.956   4.990  16.352  0.2941 -0.4301  1.8102
 3178TIP3    H230950   4.931   5.134  16.393  0.4785  0.7278 -1.8086
 3179TIP3   OH230951   3.418   5.502  16.930  0.3847  0.1267  0.5918
 3179TIP3    H130952   3.384   5.583  16.892  1.4611 -0.4800 -1.8768
 3179TIP3    H230953   3.339   5.453  16.954 -0.4788  0.1984 -1.7901
 3180TIP3   OH230954   3.030   3.325  11.828  0.1918 -0.3156  0.1008
 3180TIP3    H130955   3.064   3.269  11.759 -0.0317 -0.6496  0.2589
 3180TIP3    H230956   2.939   3.297  11.840 -0.6584  1.5789 -1.3829
 3181TIP3   OH230957   2.678   4.874   3.117  0.1637 -0.0802 -0.1113
 3181TIP3    H130958   2.596   4.847   3.077  0.2507  0.1634 -0.4558
 3181TIP3    H230959   2.714   4.794   3.155 -0.8736  0.0537  1.2117
 3182TIP3   OH230960   3.317   0.573   1.273 -0.5195 -0.9545 -0.1627
 3182TIP3    H130961   3.350   0.499   1.221  0.4827 -1.1556  0.7204
 3182TIP3    H230962   3.234   0.541   1.309 -0.5960 -1.2773 -0.6139
 3183TIP3   OH230963   6.795   1.791  13.737 -0.2047  0.3656 -0.0689
 3183TIP3    H130964   6.828   1.703  13.717 -0.0029 -0.3046  2.7682
 3183TIP3    H230965   6.714   1.776  13.786  0.7036  1.6214  1.9643
 3184TIP3   OH230966   2.699   1.132   6.171  0.2248  0.0705 -0.5463
 3184TIP3    H130967   2.676   1.223   6.192  0.3357  0.3048 -1.4364
 3184TIP3    H230968   2.734   1.097   6.254 -0.6224  0.5698  0.0419
 3185TIP3   OH230969   1.976   4.030   0.758 -0.2984  0.0206 -0.1354
 3185TIP3    H130970   2.052   4.011   0.703  1.7584 -1.4174  2.9013
 3185TIP3    H230971   1.983   4.123   0.778 -0.9527  0.5076 -2.0322
 3186TIP3   OH230972   5.006   4.543  12.404  0.9051  0.4374 -0.2500
 3186TIP3    H130973   5.094   4.533  12.441  1.2708 -0.9571 -1.3618
 3186TIP3    H230974   5.022   4.560  12.311  0.0009  1.6752 -0.1943
 3187TIP3   OH230975   0.451   1.307   3.848  0.4511 -0.2324 -0.5742
 3187TIP3    H130976   0.500   1.225   3.836  0.1582 -0.6726  1.0525
 3187TIP3    H230977   0.447   1.319   3.943  0.9761  1.9890 -0.7912
 3188TIP3   OH230978   1.149   6.369   4.007  0.1674  0.5301 -0.1869
 3188TIP3    H130979   1.155   6.379   3.913 -0.6876 -1.2182 -0.4888
 3188TIP3    H230980   1.170   6.455   4.043  1.3410  1.0113 -1.9149
 3189TIP3   OH230981   6.354   4.497  13.931  0.3602  0.0304  0.9887
 3189TIP3    H130982   6.315   4.553  13.999 -2.2511  0.9598 -1.1264
 3189TIP3    H230983   6.311   4.412  13.942 -1.7865  0.8035 -0.7774
 3190TIP3   OH230984   5.967   6.544  14.847  0.4730 -0.1649 -0.2427
 3190TIP3    H130985   5.901   6.611  14.830  0.1264  0.2265  2.2927
 3190TIP3    H230986   6.049   6.583  14.816  0.3921  1.7950  1.8158
 3191TIP3   OH230987   4.398   5.644  12.681  0.3777 -0.3985  0.0125
 3191TIP3    H130988   4.322   5.620  12.734 -0.4458  0.4105 -0.7711
 3191TIP3    H230989   4.366   5.647  12.591  1.2379  0.3257 -0.2969
 3192TIP3   OH230990   0.517   2.651   2.813  0.3199 -0.5307 -0.1805
 3192TIP3    H130991   0.610   2.658   2.792 -0.0288  0.7969 -1.4438
 3192TIP3    H230992   0.507   2.698   2.896  0.8922 -1.4460  0.4274
 3193TIP3   OH230993   3.169   6.600  10.968 -0.0041 -0.3007 -0.3192
 3193TIP3    H130994   3.155   6.624  10.877  0.6539 -0.1526 -0.3884
 3193TIP3    H230995   3.148   6.507  10.973 -0.0548 -0.3052 -0.6214
 3194TIP3   OH230996   1.604   3.434   5.800  0.2400  0.2689 -0.4902
 3194TIP3    H130997   1.678   3.374   5.791 -0.2052 -0.4587  0.4824
 3194TIP3    H230998   1.569   3.443   5.711  0.8945 -0.1502 -0.7971
 3195TIP3   OH230999   0.883   6.065   5.525  0.1994 -0.1522  0.4343
 3195TIP3    H131000   0.894   5.992   5.586  0.6416  0.6439  1.3567
 3195TIP3    H231001   0.968   6.110   5.527  0.3963 -0.4184 -1.2094
 3196TIP3   OH231002   2.031   1.345   2.360  0.3302  0.1664  0.1574
 3196TIP3    H131003   2.018   1.412   2.293 -1.3697  0.9003  1.1547
 3196TIP3    H231004   2.030   1.393   2.443 -0.9331 -1.0361  0.8971
 3197TIP3   OH231005   3.090   2.310  13.142  0.0588  0.8662  0.1547
 3197TIP3    H131006   3.174   2.357  13.143 -0.4821  1.8454  1.1854
 3197TIP3    H231007   3.027   2.375  13.111 -0.2572 -0.0267 -1.1487
 3198TIP3   OH231008   6.544   1.575  12.533 -0.0107 -0.4912 -0.7313
 3198TIP3    H131009   6.549   1.481  12.519  0.5152 -0.1994 -2.9064
 3198TIP3    H231010   6.458   1.590  12.573 -0.2666 -1.8365 -0.7520
 3199TIP3   OH231011   1.303   1.245  11.376  0.3132  0.1673  0.5729
 3199TIP3    H131012   1.304   1.283  11.464  1.0536  1.6115 -0.0313
 3199TIP3    H231013   1.378   1.185  11.375  0.3220  0.1697  0.9084
 3200TIP3   OH231014   6.789   3.590   5.408  0.0635 -0.8902  0.2536
 3200TIP3    H131015   6.819   3.590   5.499 -1.1926 -0.0643  0.6905
 3200TIP3    H231016   6.696   3.612   5.413 -0.0207 -0.8029 -1.2385
 3201TIP3   OH231017   2.551   1.509   0.747  0.5446  0.2929 -0.1288
 3201TIP3    H131018   2.609   1.433   0.750  0.2513  0.0159 -1.2310
 3201TIP3    H231019   2.561   1.549   0.834 -0.3604 -1.7880  1.0172
 3202TIP3   OH231020   2.263   3.512  15.662  0.1562  0.1024  0.2642
 3202TIP3    H131021   2.283   3.555  15.745  0.4029 -1.1074  0.8650
 3202TIP3    H231022   2.168   3.522  15.652  0.2125  0.7667  0.3920
 3203TIP3   OH231023   1.058   6.303  11.812 -0.6243  0.1164 -0.5357
 3203TIP3    H131024   0.967   6.284  11.836 -0.5786 -0.0289 -0.4683
 3203TIP3    H231025   1.052   6.354  11.732 -0.7973  0.9770  0.0179
 3204TIP3   OH231026   3.024   2.706   6.211  0.0559 -0.0868 -0.7354
 3204TIP3    H131027   3.104   2.754   6.234 -0.7560  2.2237 -2.3294
 3204TIP3    H231028   2.963   2.774   6.183 -2.1431 -1.8806 -0.5732
 3205TIP3   OH231029   2.851   1.895   3.040  0.2089  0.1003 -0.5499
 3205TIP3    H131030   2.846   1.874   3.133 -1.2731  2.7370  0.0692
 3205TIP3    H231031   2.779   1.845   3.000  0.1075 -0.1332 -0.0841
 3206TIP3   OH231032   4.013   4.846  11.448  0.7626  0.2391  0.3640
 3206TIP3    H131033   3.975   4.863  11.362 -1.2127 -0.6539  1.0157
 3206TIP3    H231034   3.981   4.918  11.503  0.9990  0.1291  0.6507
 3207TIP3   OH231035   0.467   1.457  13.711  0.1850  0.0502  0.1061
 3207TIP3    H131036   0.551   1.410  13.713  0.2441  0.0662 -1.3636
 3207TIP3    H231037   0.402   1.389  13.724  0.4069  0.0598  1.4389
 3208TIP3   OH231038   5.885   5.066  14.619  0.1919 -0.2462 -0.3680
 3208TIP3    H131039   5.879   5.043  14.526  0.0385  1.1738 -0.7376
 3208TIP3    H231040   5.794   5.081  14.646  0.1673 -1.3288  0.2179
 3209TIP3   OH231041   4.807   5.380   4.548 -0.4519 -0.1642  0.0521
 3209TIP3    H131042   4.761   5.307   4.506 -1.1900  0.2960  0.0580
 3209TIP3    H231043   4.900   5.361   4.532 -0.6862  0.3125 -2.3645
 3210TIP3   OH231044   5.266   0.021  16.687  0.7973  0.3594  0.2840
 3210TIP3    H131045   5.320   0.100  16.697  0.5739  0.4550  0.8121
 3210TIP3    H231046   5.317  -0.037  16.631  1.6287  0.2877  1.0936
 3211TIP3   OH231047   5.443   3.771  12.989  0.1760  0.4454 -0.2959
 3211TIP3    H131048   5.452   3.684  13.028  2.4223  0.6423 -0.2496
 3211TIP3    H231049   5.496   3.768  12.910 -0.9226  1.3496 -1.1088
 3212TIP3   OH231050   4.424   5.892   2.446  0.6153 -0.0828  0.3137
 3212TIP3    H131051   4.416   5.934   2.360 -0.0229  1.3341  1.0320
 3212TIP3    H231052   4.513   5.910   2.474  0.0162  1.8479  1.1073
 3213TIP3   OH231053   2.032   1.915  16.213  0.2839 -0.0786 -0.0658
 3213TIP3    H131054   2.070   1.975  16.278 -0.7148 -0.7274  1.1552
 3213TIP3    H231055   2.064   1.828  16.240 -2.4051 -0.7337  1.3698
 3214TIP3   OH231056   4.190   1.454  14.427  0.6248  1.0347  0.1635
 3214TIP3    H131057   4.276   1.430  14.392  0.0671  0.4819 -0.8943
 3214TIP3    H231058   4.157   1.520  14.367  0.0910  0.8581  0.2546
 3215TIP3   OH231059   2.351   0.382  11.833 -0.6204  0.6953 -0.6350
 3215TIP3    H131060   2.263   0.377  11.796 -1.0381  1.2550  0.2464
 3215TIP3    H231061   2.389   0.296  11.816 -2.1565 -0.3482  0.9492
 3216TIP3   OH231062   6.524   6.620  12.862 -0.1491 -0.2478 -0.7713
 3216TIP3    H131063   6.577   6.557  12.910 -0.0663  0.2455 -0.1916
 3216TIP3    H231064   6.515   6.694  12.922 -0.1906  0.3150 -1.4572
 3217TIP3   OH231065   2.232   4.021  11.599 -0.2596  0.2697 -0.1323
 3217TIP3    H131066   2.177   4.098  11.611 -1.5460 -0.5072 -0.7895
 3217TIP3    H231067   2.216   3.967  11.677  0.6282  0.6377  0.3220
 3218TIP3   OH231068   4.964   1.593   5.532 -0.6825  0.0995 -0.4963
 3218TIP3    H131069   4.920   1.595   5.447 -0.4755 -0.4517 -0.6213
 3218TIP3    H231070   4.902   1.548   5.590 -1.2113  1.2769 -0.1215
 3219TIP3   OH231071   0.955   2.868  10.804  0.0784  1.1549 -0.0266
 3219TIP3    H131072   0.952   2.781  10.764 -0.3138  0.9964  0.3445
 3219TIP3    H231073   1.047   2.878  10.829 -0.2010  0.0580  1.6142
 3220TIP3   OH231074   0.649   5.389  13.344  0.3567 -0.3906  0.2569
 3220TIP3    H131075   0.610   5.314  13.300  0.1943 -0.0120 -0.2520
 3220TIP3    H231076   0.675   5.448  13.273  0.2181  0.1648  0.6568
 3221TIP3   OH231077   2.192   0.181   4.618  0.3932  0.1185 -0.4804
 3221TIP3    H131078   2.243   0.106   4.589 -1.2769 -1.2324 -0.0668
 3221TIP3    H231079   2.102   0.161   4.591  0.0291  2.4095 -1.1885
 3222TIP3   OH231080   4.623   6.562   3.973  0.1230  0.5630 -0.0537
 3222TIP3    H131081   4.679   6.544   3.898 -1.1135  2.5517 -1.5572
 3222TIP3    H231082   4.542   6.514   3.956 -0.4061  1.5293 -0.3796
 3223TIP3   OH231083   4.378   1.106  13.267 -0.0964  0.1506  0.1190
 3223TIP3    H131084   4.398   1.133  13.356 -0.8016  1.1146 -0.0010
 3223TIP3    H231085   4.373   1.010  13.271  1.0312  0.1030  0.8561
 3224TIP3   OH231086   3.544   4.388   3.799  0.1490 -0.2654  0.5359
 3224TIP3    H131087   3.610   4.429   3.855  0.8741 -0.7367  0.0509
 3224TIP3    H231088   3.593   4.325   3.747 -0.0787  1.5859 -2.1336
 3225TIP3   OH231089   2.512   4.727   0.702 -0.2378 -0.1202 -0.1765
 3225TIP3    H131090   2.490   4.684   0.785  0.6296 -1.1048 -0.4373
 3225TIP3    H231091   2.481   4.667   0.635 -0.7049  0.5543 -0.5751
 3226TIP3   OH231092   2.856   2.310  16.158 -0.1011 -0.0785 -0.1202
 3226TIP3    H131093   2.914   2.235  16.147  0.7534  0.4651  0.5098
 3226TIP3    H231094   2.815   2.322  16.072 -2.2276 -2.8046  0.4150
 3227TIP3   OH231095   6.432   0.620  10.939 -0.1279  0.5049 -0.4461
 3227TIP3    H131096   6.405   0.577  11.021 -0.5960  0.2992 -0.7043
 3227TIP3    H231097   6.525   0.602  10.932 -0.2945 -0.4057 -0.5026
 3228TIP3   OH231098   5.500   0.994   6.268 -0.6238  0.2456 -0.0907
 3228TIP3    H131099   5.451   1.040   6.336  0.5413  1.0245  0.2548
 3228TIP3    H231100   5.532   0.915   6.312 -0.8612  0.1563 -0.0762
 3229TIP3   OH231101   0.690   1.100   2.423 -0.7505 -0.0954 -0.2773
 3229TIP3    H131102   0.764   1.046   2.395 -0.8722 -0.2407 -0.3218
 3229TIP3    H231103   0.615   1.067   2.372 -0.9823 -0.3856  0.2374
 3230TIP3   OH231104   1.333   4.233  13.108 -0.2769  0.5497 -0.4806
 3230TIP3    H131105   1.330   4.143  13.075  0.1025  0.3997 -0.1066
 3230TIP3    H231106   1.255   4.241  13.163 -0.7432  0.7032 -1.1522
 3231TIP3   OH231107   1.867   4.711   5.536  0.0086  0.2651 -0.3632
 3231TIP3    H131108   1.790   4.763   5.512  0.8550  1.7594  0.0422
 3231TIP3    H231109   1.918   4.768   5.592  0.9515 -1.0661  0.1794
 3232TIP3   OH231110   5.304   6.394  11.251  0.5277  0.0684  0.2257
 3232TIP3    H131111   5.313   6.312  11.203  1.3373 -0.4683  1.2451
 3232TIP3    H231112   5.276   6.368  11.339  1.2781  0.8241  0.7079
 3233TIP3   OH231113   6.061   4.469  13.949  0.3560  0.4240 -0.0956
 3233TIP3    H131114   6.099   4.431  13.869  2.0597  0.3920  0.6700
 3233TIP3    H231115   6.040   4.394  14.003  2.6627  0.4262  0.9479
 3234TIP3   OH231116   4.693   4.948  15.570  0.3582 -0.7042  0.2298
 3234TIP3    H131117   4.690   4.865  15.523 -2.4750 -1.5300  1.6372
 3234TIP3    H231118   4.615   4.995  15.541  2.1661  1.8500 -0.9749
 3235TIP3   OH231119   6.540   0.843  14.000  0.0504 -0.4135 -0.4107
 3235TIP3    H131120   6.510   0.796  14.078  2.2438 -0.2661  0.6174
 3235TIP3    H231121   6.622   0.799  13.976  1.5835  2.0661 -0.1112
 3236TIP3   OH231122   2.527   6.624  16.659 -0.1336 -0.2985 -0.3548
 3236TIP3    H131123   2.436   6.593  16.666 -0.2397  0.2338  0.7212
 3236TIP3    H231124   2.518   6.717  16.639  0.1901 -0.7097 -2.8544
 3237TIP3   OH231125   4.828   2.978   2.024 -0.2403 -0.5383  0.1289
 3237TIP3    H131126   4.866   2.990   1.937 -1.7367  0.2968 -0.4606
 3237TIP3    H231127   4.900   2.946   2.078  0.4691 -2.1926 -1.6624
 3238TIP3   OH231128   6.689   6.638   3.352 -0.1245 -0.1497  0.0010
 3238TIP3    H131129   6.615   6.693   3.378 -0.2672 -0.5275  0.4038
 3238TIP3    H231130   6.730   6.686   3.280  1.0473  1.5685  1.7160
 3239TIP3   OH231131   0.278   6.605  16.222 -0.0947 -0.2976  0.4711
 3239TIP3    H131132   0.367   6.617  16.254  0.3525 -1.0496 -0.4368
 3239TIP3    H231133   0.240   6.539  16.280  0.8748 -2.0321 -0.7681
 3240TIP3   OH231134   5.747   2.153  12.525  0.1771  0.0431  0.4153
 3240TIP3    H131135   5.809   2.080  12.524 -0.0168 -0.1370 -1.1275
 3240TIP3    H231136   5.686   2.132  12.596  2.8642  1.1392  3.3098
 3241TIP3   OH231137   3.305   1.011  12.409  0.0057  0.3519 -0.6621
 3241TIP3    H131138   3.379   0.952  12.419  0.8564  1.3638 -0.8585
 3241TIP3    H231139   3.279   1.001  12.317 -0.0363  0.0817 -0.6225
 3242TIP3   OH231140   0.076   2.584   3.720 -0.0128  0.2649 -0.2784
 3242TIP3    H131141   0.045   2.557   3.807 -0.2202 -1.6156 -0.8924
 3242TIP3    H231142   0.125   2.508   3.688  1.2075  1.4400 -1.2706
 3243TIP3   OH231143   3.558   4.606   3.619 -0.4055  0.1161  0.3082
 3243TIP3    H131144   3.492   4.565   3.675  0.2473  0.5595  1.4165
 3243TIP3    H231145   3.608   4.532   3.583  0.4437 -0.1217  1.8956
 3244TIP3   OH231146   1.391   0.228  12.580 -0.3181 -0.3513  0.2797
 3244TIP3    H131147   1.400   0.191  12.668 -1.8510 -0.3492  0.4652
 3244TIP3    H231148   1.302   0.261  12.577  0.5205  1.9991 -0.4180
 3245TIP3   OH231149   5.695   1.026   4.100 -0.5389 -0.1785 -0.1165
 3245TIP3    H131150   5.724   1.118   4.100 -0.3371 -0.2359  0.5832
 3245TIP3    H231151   5.605   1.030   4.066 -0.7453  0.3571  0.4598
 3246TIP3   OH231152   2.158   2.721   5.182 -0.3943 -0.3031  0.0782
 3246TIP3    H131153   2.082   2.773   5.204  0.9104  1.3767  0.8668
 3246TIP3    H231154   2.151   2.642   5.236  0.1491  1.4202  2.8538
 3247TIP3   OH231155   4.657   1.113  13.007  0.0726 -0.2901  0.1930
 3247TIP3    H131156   4.750   1.118  13.028 -0.0836 -1.1710  1.1776
 3247TIP3    H231157   4.652   1.134  12.914  0.9995  2.0138  0.5977
 3248TIP3   OH231158   5.529   5.208  12.254  0.2648  0.4177  0.3108
 3248TIP3    H131159   5.448   5.260  12.260 -0.2292 -0.1155 -1.1744
 3248TIP3    H231160   5.500   5.122  12.225  1.1887 -0.3886  1.6938
 3249TIP3   OH231161   3.558   2.652  14.909 -0.0998  0.1367 -0.0415
 3249TIP3    H131162   3.634   2.705  14.932  0.3641 -0.1975 -0.7843
 3249TIP3    H231163   3.483   2.705  14.937  0.4007  0.3600  0.9230
 3250TIP3   OH231164   3.403   6.540   4.604  0.2983 -0.3948  0.2602
 3250TIP3    H131165   3.440   6.604   4.664 -0.2286  0.7533 -0.5907
 3250TIP3    H231166   3.406   6.457   4.652  1.6330  0.1200  1.1330
 3251TIP3   OH231167   2.166   3.234   0.568 -0.3705 -0.4922  0.6837
 3251TIP3    H131168   2.184   3.289   0.645  1.6019 -0.1121  0.0034
 3251TIP3    H231169   2.190   3.145   0.596 -2.8101 -0.9612  1.5253
 3252TIP3   OH231170   2.169   6.105   6.514 -0.0765 -0.0034  0.1938
 3252TIP3    H131171   2.088   6.116   6.564 -0.9056 -0.8750 -0.8927
 3252TIP3    H231172   2.146   6.043   6.445  1.6871 -0.7250  0.2051
 3253TIP3   OH231173   3.848   2.006   0.074  0.0712 -0.6551 -0.5158
 3253TIP3    H131174   3.933   1.966   0.088  0.1113 -0.9293 -1.4625
 3253TIP3    H231175   3.788   1.932   0.063  0.1130 -0.4997 -2.0999
 3254TIP3   OH231176   1.457   2.628   3.043  0.1330  0.2741  0.1789
 3254TIP3    H131177   1.440   2.565   2.973  0.1318  1.4339 -0.9184
 3254TIP3    H231178   1.425   2.586   3.123  2.0941 -1.9777 -0.1404
 3255TIP3   OH231179   1.085   5.774  14.712 -0.3913  0.4945 -0.1786
 3255TIP3    H131180   1.119   5.792  14.799  0.3292 -0.4634 -0.2433
 3255TIP3    H231181   1.162   5.751  14.660 -1.1038 -2.4510 -0.1437
 3256TIP3   OH231182   4.851   0.064  13.061 -0.2599  0.3594  0.1586
 3256TIP3    H131183   4.795   0.012  13.004  0.9181  0.0512 -0.7674
 3256TIP3    H231184   4.939   0.028  13.048  0.3651  1.6553  0.5784
 3257TIP3   OH231185   6.758   0.040   3.871  0.5332 -0.2062 -0.2665
 3257TIP3    H131186   6.832  -0.008   3.908 -1.1837 -1.3783  1.8737
 3257TIP3    H231187   6.724   0.092   3.943 -0.3361  0.8636 -1.4051
 3258TIP3   OH231188   2.573   3.350  13.364  0.5793 -0.6557 -0.0960
 3258TIP3    H131189   2.488   3.322  13.329 -1.2010  2.9216  0.8682
 3258TIP3    H231190   2.585   3.439  13.331  2.8052 -0.1717  1.7425
 3259TIP3   OH231191   0.207   4.002   6.562  0.1087  0.6217 -0.3858
 3259TIP3    H131192   0.138   4.067   6.544  0.4451  0.6232 -1.7479
 3259TIP3    H231193   0.169   3.919   6.536 -0.0255  0.3582  0.6014
 3260TIP3   OH231194   0.838   3.865  12.698  0.0317  0.5936  0.0859
 3260TIP3    H131195   0.873   3.867  12.609  0.2055  2.0847  0.1617
 3260TIP3    H231196   0.800   3.952  12.711  0.1245  0.4468  1.5172
 3261TIP3   OH231197   1.469   0.878   5.374  0.2183  0.5915  0.3338
 3261TIP3    H131198   1.468   0.969   5.344 -2.9686  0.5970  0.1058
 3261TIP3    H231199   1.447   0.884   5.467 -0.5659  0.0602  0.1916
 3262TIP3   OH231200   0.533   5.703  14.219 -0.0031 -1.0835  0.2143
 3262TIP3    H131201   0.629   5.699  14.222  0.1857 -0.6602 -2.5323
 3262TIP3    H231202   0.513   5.793  14.245  0.3303 -1.2078  0.9209
 3263TIP3   OH231203   6.482   3.371   4.074 -0.3028 -0.3944 -0.8432
 3263TIP3    H131204   6.551   3.322   4.119  0.0306  0.3198 -0.5692
 3263TIP3    H231205   6.405   3.313   4.077 -0.6029  0.0461  1.5779
 3264TIP3   OH231206   2.349   2.868   6.242 -0.6092  0.7175 -0.3996
 3264TIP3    H131207   2.378   2.823   6.321  2.1970  1.0625 -1.1199
 3264TIP3    H231208   2.339   2.960   6.269 -0.2936  0.7200 -0.2848
 3265TIP3   OH231209   1.297   1.025  12.227 -0.5729 -0.2758  0.4379
 3265TIP3    H131210   1.310   0.975  12.146 -0.5574  0.9199 -0.3147
 3265TIP3    H231211   1.331   0.968  12.296  0.1111 -1.0035 -0.4795
 3266TIP3   OH231212   2.437   0.476   1.452 -0.8524 -0.8057  0.5425
 3266TIP3    H131213   2.359   0.440   1.493 -0.0093 -2.6274  0.6769
 3266TIP3    H231214   2.431   0.571   1.466 -2.3034 -1.0459  1.7851
 3267TIP3   OH231215   2.420   2.808   4.645 -0.2272 -0.3145  0.0781
 3267TIP3    H131216   2.398   2.797   4.738 -0.5905 -0.4101 -0.0165
 3267TIP3    H231217   2.482   2.881   4.643 -1.3833  0.7100  0.2546
 3268TIP3   OH231218   5.782   3.858  12.299 -0.3763  0.2851 -0.2713
 3268TIP3    H131219   5.834   3.897  12.228  0.0304  0.7892  0.2983
 3268TIP3    H231220   5.723   3.797  12.254  0.1567  0.2942 -1.0037
 3269TIP3   OH231221   4.776   2.445   1.485  0.1803 -0.2587 -0.0659
 3269TIP3    H131222   4.781   2.400   1.401 -1.2658 -1.7337  0.5844
 3269TIP3    H231223   4.830   2.523   1.474  3.6740 -2.5711 -0.9478
 3270TIP3   OH231224   2.349   6.103  14.425  0.0203  0.1156  0.2132
 3270TIP3    H131225   2.432   6.055  14.425 -0.3862 -0.6001 -0.0119
 3270TIP3    H231226   2.364   6.175  14.487  0.5097 -0.5329  0.8810
 3271TIP3   OH231227   3.120   6.685  16.034  0.2602 -0.0397 -0.1409
 3271TIP3    H131228   3.201   6.658  15.991 -0.0246 -1.8751  0.4015
 3271TIP3    H231229   3.145   6.696  16.126  0.1213  0.4814 -0.1641
 3272TIP3   OH231230   3.882   5.755   3.177 -0.6926 -0.2584  0.1281
 3272TIP3    H131231   3.973   5.728   3.175  0.2594  2.0507  3.2943
 3272TIP3    H231232   3.833   5.675   3.193  0.5988 -1.6382 -2.2101
 3273TIP3   OH231233   6.376   2.264   1.397  0.1029  0.5578 -0.3258
 3273TIP3    H131234   6.432   2.253   1.321  2.2167  1.5486  0.9791
 3273TIP3    H231235   6.328   2.182   1.405  0.0335  0.3395 -2.5145
 3274TIP3   OH231236   5.065   0.511  11.582 -0.8906  0.7705  0.0356
 3274TIP3    H131237   5.037   0.517  11.491 -2.2335 -1.6020  0.1876
 3274TIP3    H231238   4.984   0.522  11.633 -0.5969 -0.2504  0.7795
 3275TIP3   OH231239   5.914   6.401  14.446 -0.3302 -0.4287  0.6463
 3275TIP3    H131240   5.934   6.488  14.411 -3.3356 -0.5019 -1.7029
 3275TIP3    H231241   5.988   6.380  14.503  1.9629  2.3650 -1.0456
 3276TIP3   OH231242   0.044   4.667   3.212  0.3516  0.1945  0.5229
 3276TIP3    H131243  -0.020   4.653   3.281  0.3445 -1.9241  0.1462
 3276TIP3    H231244  -0.003   4.650   3.131  0.7430  1.2160  0.0530
 3277TIP3   OH231245   2.913   1.280  11.167  0.1786  1.2363 -0.1055
 3277TIP3    H131246   2.974   1.326  11.109  0.6326  0.4712 -0.2391
 3277TIP3    H231247   2.968   1.219  11.217 -0.2809  1.5126  0.7617
 3278TIP3   OH231248   5.685   6.163  13.897 -0.4294 -0.7231 -0.6767
 3278TIP3    H131249   5.720   6.226  13.959 -0.3901 -1.0971 -0.3153
 3278TIP3    H231250   5.677   6.081  13.946 -1.6069 -0.7122 -0.8002
 3279TIP3   OH231251   4.427   2.937   3.653  0.7202  0.1144 -0.4458
 3279TIP3    H131252   4.426   3.026   3.618  1.5674  0.5761  0.6557
 3279TIP3    H231253   4.426   2.948   3.748  0.0567 -1.0785 -0.2941
 3280TIP3   OH231254   6.526   2.613   2.277 -0.1100 -0.2264  0.4684
 3280TIP3    H131255   6.557   2.569   2.356 -1.6731  1.4520  2.1196
 3280TIP3    H231256   6.434   2.586   2.270 -0.0435 -0.2027 -0.7099
 3281TIP3   OH231257   0.917   5.159  13.245 -0.5499 -0.2074 -0.3379
 3281TIP3    H131258   0.927   5.232  13.184 -0.3048 -1.9494 -2.5014
 3281TIP3    H231259   0.845   5.108  13.209 -1.5167 -0.4565  1.8055
 3282TIP3   OH231260   4.641   3.534   5.815  0.0530 -0.3987  0.0572
 3282TIP3    H131261   4.613   3.445   5.794  1.7313 -0.8688 -0.3668
 3282TIP3    H231262   4.701   3.524   5.888  0.0823  0.4136  0.1551
 3283TIP3   OH231263   5.612   5.691   6.187 -0.1964  0.1214 -0.3892
 3283TIP3    H131264   5.663   5.625   6.234 -1.5182 -0.9355 -0.3770
 3283TIP3    H231265   5.573   5.745   6.256 -1.9802 -1.3124 -0.2036
 3284TIP3   OH231266   6.265   6.706   2.766 -0.1385 -0.5563 -0.2314
 3284TIP3    H131267   6.230   6.793   2.784 -1.3660 -1.2028  0.6796
 3284TIP3    H231268   6.316   6.684   2.844  2.0374  0.2053 -1.3716
 3285TIP3   OH231269   3.371   3.191  14.394  0.4512  0.5263  0.5716
 3285TIP3    H131270   3.340   3.269  14.440 -1.6001 -0.8844  1.7266
 3285TIP3    H231271   3.410   3.225  14.313  0.4210  2.7851  1.4328
 3286TIP3   OH231272   2.673   6.450  15.182 -0.3054 -0.2504 -0.1949
 3286TIP3    H131273   2.718   6.366  15.194 -1.8008 -1.2398 -1.0502
 3286TIP3    H231274   2.712   6.488  15.103  0.4703 -0.0718  0.2707
 3287TIP3   OH231275   1.747   1.296   0.506  0.1428  0.8340 -0.1180
 3287TIP3    H131276   1.780   1.266   0.421 -0.9882  0.5678 -0.4810
 3287TIP3    H231277   1.796   1.376   0.523  1.0728  0.3771 -0.5597
 3288TIP3   OH231278   0.206   4.835  16.601 -0.5410 -0.3982 -0.0149
 3288TIP3    H131279   0.264   4.879  16.665 -0.2668 -1.6340  0.6179
 3288TIP3    H231280   0.239   4.745  16.598 -1.1411 -0.5862 -1.2305
 3289TIP3   OH231281   0.795   4.444   2.095  0.0186  0.1595  0.0453
 3289TIP3    H131282   0.866   4.508   2.107 -0.4700  0.8709 -0.7507
 3289TIP3    H231283   0.718   4.488   2.131 -0.2922 -0.0615 -0.3513
 3290TIP3   OH231284   4.626   3.279   3.796  0.3608  0.2685 -0.0620
 3290TIP3    H131285   4.649   3.323   3.878  0.3890  1.1129 -0.5133
 3290TIP3    H231286   4.565   3.339   3.752 -1.2124 -1.0545  0.2169
 3291TIP3   OH231287   3.942   1.098   1.883  0.4542 -0.3423 -0.0749
 3291TIP3    H131288   3.916   1.171   1.827  1.2808  0.6185  0.7510
 3291TIP3    H231289   3.984   1.035   1.824  0.1780  0.0717 -0.7226
 3292TIP3   OH231290   5.882   1.463  16.853 -0.3852  0.4337 -0.4473
 3292TIP3    H131291   5.913   1.377  16.824 -0.6534  0.3659 -0.5361
 3292TIP3    H231292   5.926   1.524  16.794 -1.1675  0.2753 -1.2214
 3293TIP3   OH231293   1.566   3.680   5.910 -0.8064 -0.4569 -0.5171
 3293TIP3    H131294   1.574   3.596   5.865 -1.1033 -1.3648  1.0420
 3293TIP3    H231295   1.475   3.707   5.895 -1.2473 -1.3277  0.4406
 3294TIP3   OH231296   4.486   0.803  12.430 -0.6899  0.3163 -0.4080
 3294TIP3    H131297   4.502   0.896  12.448  1.7285 -0.2022  0.4891
 3294TIP3    H231298   4.518   0.790  12.341  1.0060 -0.0236  0.2032
 3295TIP3   OH231299   4.411   1.597  13.129 -0.0838  0.2737  0.4182
 3295TIP3    H131300   4.384   1.575  13.218 -0.3971  0.4650  0.3716
 3295TIP3    H231301   4.472   1.528  13.104  1.4050  1.1594  1.4411
 3296TIP3   OH231302   0.748   2.221   0.476 -0.4186  0.0456  0.3291
 3296TIP3    H131303   0.714   2.211   0.387 -2.1779  2.8361  0.5512
 3296TIP3    H231304   0.779   2.312   0.479 -0.4745  0.0294  2.5663
 3297TIP3   OH231305   2.069   3.296   3.399  0.0495  0.4393  0.4612
 3297TIP3    H131306   2.002   3.354   3.437 -1.7848 -0.7468 -0.7751
 3297TIP3    H231307   2.140   3.355   3.373  0.5493  1.5079  3.8089
 3298TIP3   OH231308   6.104   6.805  15.310 -0.5834  0.3154  0.4011
 3298TIP3    H131309   6.009   6.813  15.307 -0.5580  0.7302  0.5963
 3298TIP3    H231310   6.126   6.818  15.402 -0.2663  1.1124  0.2164
 3299TIP3   OH231311   6.044   4.859  15.649  0.4476  0.4465 -0.2017
 3299TIP3    H131312   6.076   4.949  15.654  0.5554  0.3428  1.4926
 3299TIP3    H231313   5.997   4.855  15.566 -0.0138  2.2194 -0.0673
 3300TIP3   OH231314   1.098   6.153  15.958 -0.3175  0.1810  0.0537
 3300TIP3    H131315   1.060   6.202  16.031 -2.3146 -0.5321 -0.4319
 3300TIP3    H231316   1.077   6.061  15.977  1.7502 -0.3374  0.0372
 3301TIP3   OH231317   6.444   3.432   6.241  0.4398 -1.0743  0.3853
 3301TIP3    H131318   6.394   3.458   6.163  1.3299  2.0375  0.7048
 3301TIP3    H231319   6.379   3.393   6.299 -0.9115 -0.3891 -0.6103
 3302TIP3   OH231320   6.122   1.578   2.768 -0.3100  0.7505 -0.2753
 3302TIP3    H131321   6.116   1.652   2.829  0.7621  0.6152  0.0226
 3302TIP3    H231322   6.128   1.619   2.682  0.6299  1.0445 -0.0869
 3303TIP3   OH231323   0.805   1.418   1.040  0.1522  0.2340 -0.8420
 3303TIP3    H131324   0.848   1.447   1.121 -1.3934 -1.0649  0.5309
 3303TIP3    H231325   0.775   1.329   1.060 -1.9759  0.5872 -2.1673
 3304TIP3   OH231326   1.333   1.947  13.197 -1.0587 -0.2505 -0.1089
 3304TIP3    H131327   1.376   2.033  13.201  2.2635 -1.7664 -0.0777
 3304TIP3    H231328   1.255   1.957  13.251  0.2615  2.2066  1.5265
 3305TIP3   OH231329   5.584   0.802   0.234  0.5508 -0.2447 -0.2210
 3305TIP3    H131330   5.613   0.729   0.289  1.5766  0.6309  0.4379
 3305TIP3    H231331   5.665   0.843   0.204 -0.0023  1.2130  0.2134
 3306TIP3   OH231332   6.104   3.106  11.958 -0.0142  0.5017 -0.0309
 3306TIP3    H131333   6.175   3.151  11.911 -0.2443  0.1128 -0.7701
 3306TIP3    H231334   6.149   3.036  12.007  0.3181  1.3956  0.9635
 3307TIP3   OH231335   3.726   1.753   6.052 -0.6660 -0.1200  0.0013
 3307TIP3    H131336   3.699   1.680   6.108 -1.2890 -0.8553 -1.2157
 3307TIP3    H231337   3.821   1.759   6.064 -0.8861  0.3529  1.8199
 3308TIP3   OH231338   4.210   5.872  11.938  0.2419  0.3862  0.1950
 3308TIP3    H131339   4.186   5.828  12.020 -2.1964 -1.9982 -1.6280
 3308TIP3    H231340   4.278   5.815  11.901 -0.5043  0.0050 -0.6059
 3309TIP3   OH231341   5.562   5.131  10.737 -0.2398  0.4473  0.0948
 3309TIP3    H131342   5.630   5.095  10.680  1.1205 -0.4075  2.1521
 3309TIP3    H231343   5.545   5.218  10.701  1.1113  0.2425 -1.1524
 3310TIP3   OH231344   2.051   2.296  14.285  0.6278  0.0577 -0.9494
 3310TIP3    H131345   1.981   2.319  14.347  0.8545 -0.2698 -0.5673
 3310TIP3    H231346   2.049   2.366  14.220 -1.3563 -0.9288 -2.0402
 3311TIP3   OH231347   1.562   6.623   3.635  0.1498 -0.2894 -0.2161
 3311TIP3    H131348   1.645   6.652   3.672  0.6979 -3.0290  0.8992
 3311TIP3    H231349   1.498   6.685   3.670  1.5563  1.3465 -0.3781
 3312TIP3   OH231350   5.198   0.750  12.061 -0.1207  0.2671  0.5199
 3312TIP3    H131351   5.177   0.682  12.126  3.6273 -0.6130  1.0735
 3312TIP3    H231352   5.228   0.701  11.985  1.2212  1.2813  0.3748
 3313TIP3   OH231353   3.558   2.456  12.895 -0.5407  0.0369 -0.0280
 3313TIP3    H131354   3.623   2.407  12.845 -0.5074 -0.0425  0.0917
 3313TIP3    H231355   3.518   2.515  12.832  0.3858  0.8450  0.1063
 3314TIP3   OH231356   3.804   4.239  14.421  0.7075 -0.2364  0.0285
 3314TIP3    H131357   3.741   4.312  14.422  0.4923 -0.4158 -0.2859
 3314TIP3    H231358   3.889   4.282  14.417  0.6601  0.0379  1.3656
 3315TIP3   OH231359   1.907   1.139  16.961 -0.5090  0.1384  0.2149
 3315TIP3    H131360   1.914   1.148  17.056 -1.7388  0.7222  0.2708
 3315TIP3    H231361   1.998   1.129  16.931 -0.0962  0.0698  1.4287
 3316TIP3   OH231362   4.761   2.597   0.047 -0.2851  0.0390 -0.2213
 3316TIP3    H131363   4.795   2.686   0.047 -0.4206  0.0911 -0.1757
 3316TIP3    H231364   4.761   2.572  -0.046 -1.1749  0.4455 -0.3400
 3317TIP3   OH231365   4.038   3.818   0.085 -0.0086 -0.0041  0.0517
 3317TIP3    H131366   4.101   3.786   0.021  1.8509  3.3987 -0.0986
 3317TIP3    H231367   3.960   3.838   0.034 -0.0033 -1.0726 -0.3963
 3318TIP3   OH231368   1.120   1.541   3.115  0.3109  0.0807  0.1050
 3318TIP3    H131369   1.130   1.521   3.208  1.3578 -0.0814 -0.0273
 3318TIP3    H231370   1.151   1.631   3.107  1.2737 -0.2675 -0.2505
 3319TIP3   OH231371   6.316   4.607  16.601 -0.0875  0.4299  0.4295
 3319TIP3    H131372   6.275   4.627  16.685  1.0233  2.1897  0.5983
 3319TIP3    H231373   6.350   4.519  16.611 -4.3976 -1.5622  0.0025
 3320TIP3   OH231374   1.441   4.149  15.216 -0.6144  0.4314  0.5375
 3320TIP3    H131375   1.416   4.238  15.241 -2.1224  0.6527 -1.5298
 3320TIP3    H231376   1.484   4.159  15.132  0.0198 -0.7418  0.6965
 3321TIP3   OH231377   5.998   3.813  15.172  0.1579 -0.0280  0.3129
 3321TIP3    H131378   6.053   3.874  15.221 -1.3727  1.4877  0.2545
 3321TIP3    H231379   5.985   3.739  15.231  0.6161  0.4937  1.0913
 3322TIP3   OH231380   4.056   4.544   1.222  0.2832  0.0030 -0.0335
 3322TIP3    H131381   3.987   4.514   1.163  0.9124  0.8074 -1.2185
 3322TIP3    H231382   4.015   4.614   1.274 -0.1533 -0.4212  0.2015
 3323TIP3   OH231383   3.538   0.958   3.516 -0.0507 -0.1413  0.2570
 3323TIP3    H131384   3.553   0.964   3.610 -0.9108 -2.2423  0.5892
 3323TIP3    H231385   3.483   0.881   3.505  0.7556 -0.4890 -2.0417
 3324TIP3   OH231386   6.546   0.891  12.392 -0.6352 -0.1034 -0.3565
 3324TIP3    H131387   6.615   0.911  12.455  1.0983 -0.4493 -2.0434
 3324TIP3    H231388   6.486   0.965  12.398  0.1067  0.4255  0.8592
 3325TIP3   OH231389   2.501   2.455  14.203  0.1591 -0.0836  0.2588
 3325TIP3    H131390   2.522   2.386  14.267  0.8219  0.1630  0.3131
 3325TIP3    H231391   2.516   2.414  14.118  0.4469 -0.0447  0.2895
 3326TIP3   OH231392   3.608   5.412   6.110  0.0311  0.2990 -0.7366
 3326TIP3    H131393   3.553   5.441   6.037  0.9886  0.3859 -1.4455
 3326TIP3    H231394   3.614   5.318   6.099 -1.1786  0.0852  0.2184
 3327TIP3   OH231395   6.138   2.711   0.988  0.3723  0.0579 -0.4470
 3327TIP3    H131396   6.091   2.664   1.057  0.2359 -0.1180 -0.6590
 3327TIP3    H231397   6.171   2.643   0.930  0.1044  0.2239 -0.8024
 3328TIP3   OH231398   2.608   0.650   0.067 -0.0763  0.1097 -0.4947
 3328TIP3    H131399   2.619   0.738   0.103  0.2166  0.4499 -1.3845
 3328TIP3    H231400   2.594   0.664  -0.027 -2.1829 -0.6754 -0.3435
 3329TIP3   OH231401   5.249   2.910  14.410  0.4224  0.2225 -0.1785
 3329TIP3    H131402   5.221   2.885  14.499 -1.9478  0.9312 -0.6609
 3329TIP3    H231403   5.332   2.956  14.423  0.1703  0.2289  1.6714
 3330TIP3   OH231404   0.964   4.692   1.361  0.5672  0.0592  0.1020
 3330TIP3    H131405   0.991   4.755   1.294 -3.5848  0.9531 -1.0157
 3330TIP3    H231406   0.977   4.606   1.322  3.1242  0.2924  0.3235
 3331TIP3   OH231407   5.980   2.752   0.006 -0.3083 -0.1641  0.3023
 3331TIP3    H131408   5.885   2.746   0.012 -0.1818 -0.7969  2.0107
 3331TIP3    H231409   6.000   2.843   0.028 -0.4095 -0.4753  1.7232
 3332TIP3   OH231410   0.425   0.869  16.516 -0.1838  0.1131 -0.2102
 3332TIP3    H131411   0.357   0.936  16.527 -0.2301 -0.1837  1.8489
 3332TIP3    H231412   0.402   0.823  16.436 -2.6416 -0.2252  0.6117
 3333TIP3   OH231413   6.065   4.999   5.029  0.4575 -0.0359 -0.0515
 3333TIP3    H131414   6.050   5.088   4.996  1.7231  0.9663  1.9014
 3333TIP3    H231415   5.997   4.987   5.096  1.2789  0.1282  0.8348
 3334TIP3   OH231416   6.780   3.905   0.004 -0.2171 -0.6517  0.1339
 3334TIP3    H131417   6.861   3.955  -0.002 -0.6508  0.1793  1.0105
 3334TIP3    H231418   6.783   3.865   0.091 -0.9696 -0.1952  0.3804
 3335TIP3   OH231419   1.432   2.565  15.595  0.9063  0.0053 -0.1481
 3335TIP3    H131420   1.353   2.579  15.647 -0.6288 -3.7696 -1.1360
 3335TIP3    H231421   1.399   2.542  15.508  3.2547  1.1361 -1.4202
 3336TIP3   OH231422   3.222   5.571   3.723 -0.1198 -0.4497 -0.2807
 3336TIP3    H131423   3.297   5.511   3.722 -0.0671 -0.4226  0.8570
 3336TIP3    H231424   3.165   5.539   3.653  0.1069 -1.5770  0.0258
 3337TIP3   OH231425   2.666   0.461   3.482  0.4449 -0.0948 -0.3794
 3337TIP3    H131426   2.596   0.478   3.419  1.5403  0.6706 -1.4347
 3337TIP3    H231427   2.716   0.542   3.485  1.1991 -0.5684  0.4708
 3338TIP3   OH231428   1.656   4.808  17.038  0.1712 -0.7647 -0.0332
 3338TIP3    H131429   1.590   4.773  16.977  3.0153 -2.5368 -2.3479
 3338TIP3    H231430   1.718   4.855  16.981  0.5960  1.5303  2.1417
 3339TIP3   OH231431   3.296   4.596   6.731 -0.6527  0.6928 -0.7648
 3339TIP3    H131432   3.272   4.503   6.733  0.3004  0.4471 -0.1690
 3339TIP3    H231433   3.339   4.612   6.815  2.8289  0.6527 -2.3451
 3340TIP3   OH231434   6.374   3.769  17.028 -0.1964 -0.5616  0.2940
 3340TIP3    H131435   6.395   3.859  17.054  0.6772 -0.8942  0.7717
 3340TIP3    H231436   6.397   3.716  17.104 -1.7629 -1.0886  0.4428
 3341TIP3   OH231437   5.205   3.378  13.591 -0.2308 -0.2504 -0.7051
 3341TIP3    H131438   5.261   3.455  13.603 -0.5713 -0.1299  0.1712
 3341TIP3    H231439   5.261   3.315  13.546  0.1672  0.3763 -1.1000
 3342TIP3   OH231440   3.283   4.239   1.570  0.1937 -0.3954  0.2612
 3342TIP3    H131441   3.306   4.311   1.512  0.0237  1.4386  2.3298
 3342TIP3    H231442   3.188   4.230   1.562  0.3886 -1.5508 -1.1987
 3343TIP3   OH231443   3.003   4.988  14.395  0.3360  0.0509 -0.1606
 3343TIP3    H131444   2.945   5.063  14.410  0.4048  0.4456 -1.7582
 3343TIP3    H231445   3.091   5.022  14.415  0.1140 -0.4655  1.9708
 3344TIP3   OH231446   4.711   3.210   4.966 -0.1390  0.2951  0.0431
 3344TIP3    H131447   4.688   3.237   5.055 -0.4126 -1.5988  0.6039
 3344TIP3    H231448   4.627   3.203   4.921 -0.2922 -1.4717  0.5163
 3345TIP3   OH231449   3.591   5.991  13.983 -0.0985 -0.3980  0.2450
 3345TIP3    H131450   3.602   5.984  14.077 -2.3194 -0.3474  0.5552
 3345TIP3    H231451   3.536   5.916  13.959  1.3732 -1.0869 -1.2244
 3346TIP3   OH231452   3.710   5.532   1.719  0.0502  0.4482 -0.1854
 3346TIP3    H131453   3.773   5.597   1.752  0.0189  0.3800  0.0089
 3346TIP3    H231454   3.763   5.453   1.705 -0.0082  0.3703  0.0446
 3347TIP3   OH231455   1.778   0.545  11.275 -0.4228  0.4478  0.3216
 3347TIP3    H131456   1.733   0.462  11.263 -0.5239  0.5335  0.0977
 3347TIP3    H231457   1.739   0.582  11.354 -4.1339  2.6459 -2.1635
 3348TIP3   OH231458   3.725   3.861   6.568 -0.6450 -0.2205  0.1280
 3348TIP3    H131459   3.808   3.893   6.534  0.0130 -0.3362  1.5779
 3348TIP3    H231460   3.664   3.934   6.554 -0.8840 -0.8533 -2.8176
 3349TIP3   OH231461   1.652   6.688  13.856  0.0304  0.1949 -0.3609
 3349TIP3    H131462   1.610   6.624  13.914  0.2469  1.2513  1.0259
 3349TIP3    H231463   1.600   6.687  13.776  0.0396 -1.7040 -0.3800
 3350TIP3   OH231464   3.059   0.022   1.540  0.2659 -0.1456  0.5394
 3350TIP3    H131465   3.106  -0.031   1.475 -1.1094  0.5769 -1.1356
 3350TIP3    H231466   3.128   0.061   1.593  1.6526  1.0091 -1.9120
 3351TIP3   OH231467   0.730   4.473  13.172 -0.0667 -0.4858  0.0823
 3351TIP3    H131468   0.715   4.539  13.105 -1.4214 -1.1591 -0.3199
 3351TIP3    H231469   0.783   4.517  13.238  1.2714  0.2122 -1.3883
 3352TIP3   OH231470   6.578   1.734   5.430 -0.5929  0.2363 -0.2747
 3352TIP3    H131471   6.483   1.740   5.429 -0.5959  0.8278  1.2063
 3352TIP3    H231472   6.600   1.681   5.353 -2.0379  1.0049 -1.2477
 3353TIP3   OH231473   0.681   6.508   4.480  0.2206 -0.3898  0.0128
 3353TIP3    H131474   0.739   6.563   4.533 -1.2923  0.4451  0.8553
 3353TIP3    H231475   0.603   6.562   4.465  0.0066 -1.1407 -1.8681
 3354TIP3   OH231476   4.667   6.015   5.741 -0.0911 -0.3211 -0.3614
 3354TIP3    H131477   4.751   6.056   5.722 -0.1685  0.2246  0.4242
 3354TIP3    H231478   4.688   5.922   5.749  0.7098 -0.0602  1.1097
 3355TIP3   OH231479   3.418   4.394  15.056  0.3092  0.1881  0.5296
 3355TIP3    H131480   3.458   4.312  15.086  0.1137 -1.0278 -2.2044
 3355TIP3    H231481   3.489   4.458  15.057  0.8717 -0.4314  1.1343
 3356TIP3   OH231482   5.864   3.882  16.207  0.1411  0.9730  0.0422
 3356TIP3    H131483   5.930   3.814  16.197 -0.0606  0.5897  1.1268
 3356TIP3    H231484   5.886   3.948  16.141  0.2899 -0.1655 -1.0854
 3357TIP3   OH231485   4.216   0.813  12.536  0.3349  0.5812  0.0017
 3357TIP3    H131486   4.198   0.826  12.629 -0.0583  0.1633 -0.0115
 3357TIP3    H231487   4.311   0.804  12.531  0.1880 -2.2948  0.7622
 3358TIP3   OH231488   3.077   5.136  16.714 -0.8867 -0.4183  0.9517
 3358TIP3    H131489   2.999   5.136  16.659 -0.5764 -1.1531  0.4835
 3358TIP3    H231490   3.138   5.195  16.668  0.5954 -3.4676 -1.4086
 3359TIP3   OH231491   0.329   0.882  13.783  0.1772  0.1903  0.4256
 3359TIP3    H131492   0.244   0.924  13.799  0.2983  0.3306  0.7028
 3359TIP3    H231493   0.313   0.789  13.796  0.4948  0.3686  2.3745
 3360TIP3   OH231494   3.631   4.095   5.834  0.3287 -0.1655 -0.2677
 3360TIP3    H131495   3.575   4.167   5.804 -1.4051 -0.8631  1.1172
 3360TIP3    H231496   3.664   4.124   5.920  0.3159 -0.6666 -0.0886
 3361TIP3   OH231497   1.453   0.577  15.078 -0.3759 -0.0925 -0.0587
 3361TIP3    H131498   1.377   0.635  15.085 -0.4035  0.1281 -1.7389
 3361TIP3    H231499   1.512   0.621  15.018 -0.1567 -1.5233 -0.9497
 3362TIP3   OH231500   5.428   6.465   0.161  0.3903 -0.3188  0.0237
 3362TIP3    H131501   5.403   6.420   0.081 -0.5067  0.4148 -0.1198
 3362TIP3    H231502   5.357   6.446   0.223  0.3502  0.3173  0.1809
 3363TIP3   OH231503   1.873   6.503  11.958  0.0224  0.5321  0.7409
 3363TIP3    H131504   1.825   6.435  11.911  1.0674  0.8310 -0.8346
 3363TIP3    H231505   1.839   6.499  12.047 -0.9777 -1.0601  0.3295
 3364TIP3   OH231506   3.370   1.507  10.861  0.5082 -0.4245  0.0673
 3364TIP3    H131507   3.422   1.475  10.788 -0.2800  0.1428 -0.7608
 3364TIP3    H231508   3.424   1.574  10.903  0.6528 -0.2207 -0.4489
 3365TIP3   OH231509   1.728   3.373   1.908 -0.8170 -0.3000  0.5083
 3365TIP3    H131510   1.636   3.348   1.918 -0.8037 -0.3462  0.5115
 3365TIP3    H231511   1.732   3.462   1.944 -1.2938  0.5301 -1.3382
 3366TIP3   OH231512   1.256   3.763   2.509  0.0219  0.1762  0.2908
 3366TIP3    H131513   1.324   3.711   2.467  0.8077  0.5349  1.0939
 3366TIP3    H231514   1.261   3.741   2.601 -2.0261 -0.9817  0.1930
 3367TIP3   OH231515   4.869   0.118   3.955  0.6369 -0.2629  0.0853
 3367TIP3    H131516   4.783   0.111   3.997  0.8948 -0.0600  0.6543
 3367TIP3    H231517   4.919   0.177   4.012  1.0861 -0.2130 -0.3544
 3368TIP3   OH231518   1.727   0.763   0.795  0.2285 -0.2433 -0.6095
 3368TIP3    H131519   1.750   0.726   0.710 -1.4259 -0.9433 -0.7868
 3368TIP3    H231520   1.689   0.690   0.844 -0.1997  0.4943  0.1820
 3369TIP3   OH231521   2.627   1.095  14.320 -0.3610  0.0875 -0.1077
 3369TIP3    H131522   2.554   1.147  14.354 -1.7820 -2.5432  1.2076
 3369TIP3    H231523   2.598   1.068  14.233 -1.5577 -1.8407  0.8224
 3370TIP3   OH231524   5.034   2.805  16.588 -0.3990  0.1396 -0.4594
 3370TIP3    H131525   5.029   2.711  16.576  0.2002  0.0212  0.1883
 3370TIP3    H231526   5.092   2.817  16.663 -3.3232  0.8638  1.8729
 3371TIP3   OH231527   5.270   3.624  16.131  0.2832  0.3613  0.3396
 3371TIP3    H131528   5.204   3.687  16.159  0.2227 -0.2818  1.7385
 3371TIP3    H231529   5.239   3.591  16.047  0.4740  2.3924 -0.5762
 3372TIP3   OH231530   0.654   1.066   2.762 -0.2675  0.3088 -0.1870
 3372TIP3    H131531   0.581   1.120   2.790  0.0763  0.5872  0.1807
 3372TIP3    H231532   0.688   1.028   2.843  0.2784  0.5407 -0.3036
 3373TIP3   OH231533   4.516   1.175  11.050 -0.0857  0.9151 -0.1684
 3373TIP3    H131534   4.481   1.094  11.014  0.7109  0.8460 -0.8041
 3373TIP3    H231535   4.471   1.244  11.001  2.2516  0.8252 -2.6320
 3374TIP3   OH231536   0.332   1.620   4.385 -0.1641 -0.0904  0.0282
 3374TIP3    H131537   0.264   1.686   4.372 -1.1464 -0.7440  1.5406
 3374TIP3    H231538   0.368   1.604   4.298 -2.9863 -0.8053 -1.0920
 3375TIP3   OH231539   5.070   3.044   0.897 -0.5469  0.4017 -0.6178
 3375TIP3    H131540   5.132   3.022   0.828 -2.0060 -1.2393 -1.4802
 3375TIP3    H231541   5.086   2.979   0.965  1.6404  2.6488  1.2449
 3376TIP3   OH231542   4.467   4.426  12.534  0.0901  1.0713  0.2238
 3376TIP3    H131543   4.415   4.500  12.503  0.3260  0.5752 -1.4940
 3376TIP3    H231544   4.553   4.463  12.555 -0.6388  1.7401  2.2095
 3377TIP3   OH231545   1.157   2.832   5.193  0.2136 -1.4332 -0.1593
 3377TIP3    H131546   1.071   2.834   5.234  1.2357 -0.9904  2.1240
 3377TIP3    H231547   1.144   2.874   5.108 -1.6528 -0.5833  0.4841
 3378TIP3   OH231548   5.455   4.581   1.258 -0.2826 -0.2087  0.1680
 3378TIP3    H131549   5.399   4.503   1.253  0.0863 -0.4446 -0.4334
 3378TIP3    H231550   5.404   4.650   1.216 -0.6503 -0.0999  0.7887
 3379TIP3   OH231551   2.951   4.961  10.847  0.2153 -0.2277 -0.2437
 3379TIP3    H131552   2.956   4.920  10.934  0.6546  1.0460  0.3553
 3379TIP3    H231553   2.930   4.889  10.788 -0.3211 -1.0835  0.9525
 3380TIP3   OH231554   3.086   4.493  12.311 -0.1983 -0.1214 -0.6971
 3380TIP3    H131555   3.043   4.408  12.315  0.6153 -0.5154  0.2936
 3380TIP3    H231556   3.107   4.513  12.402 -0.1099  1.0042 -0.9514
 3381TIP3   OH231557   1.809   4.409  15.725  0.3154 -0.1716 -0.0154
 3381TIP3    H131558   1.777   4.498  15.741 -2.0109 -1.0429  0.6281
 3381TIP3    H231559   1.904   4.415  15.737  0.0556  1.8829  1.6805
 3382TIP3   OH231560   4.161   1.325   4.196 -0.6154  0.0592 -0.7226
 3382TIP3    H131561   4.069   1.351   4.194 -1.3436 -2.1472  0.8061
 3382TIP3    H231562   4.192   1.338   4.106 -2.2515  1.3500 -1.1260
 3383TIP3   OH231563   5.131   3.808  13.304 -0.2480  0.0911 -0.1525
 3383TIP3    H131564   5.168   3.871  13.241 -0.8072 -0.0256 -0.6038
 3383TIP3    H231565   5.055   3.853  13.341  0.0825  0.1636  0.4606
 3384TIP3   OH231566   0.688   1.697  12.192  0.3759 -0.2478  0.2770
 3384TIP3    H131567   0.617   1.722  12.132  1.7004  1.3198 -0.7072
 3384TIP3    H231568   0.644   1.678  12.275 -1.0822  2.1343  0.1241
 3385TIP3   OH231569   3.831   4.158   3.889 -0.3615  0.0229  0.2109
 3385TIP3    H131570   3.813   4.208   3.968 -0.1715  1.5099 -0.6532
 3385TIP3    H231571   3.747   4.117   3.867 -0.2073 -1.1637  1.6453
 3386TIP3   OH231572   6.370   0.572  13.415 -0.1124 -0.3220 -0.3042
 3386TIP3    H131573   6.457   0.539  13.395 -0.6927 -0.0900 -4.0358
 3386TIP3    H231574   6.377   0.667  13.404 -0.5268 -0.1606  0.7755
 3387TIP3   OH231575   0.766   5.816  11.191  0.2599  0.4928 -0.3415
 3387TIP3    H131576   0.822   5.850  11.261  0.8320  5.1059 -2.6595
 3387TIP3    H231577   0.826   5.767  11.135  0.1510 -1.6791  1.3228
 3388TIP3   OH231578   4.456   5.107   0.027  0.5254  0.3643 -0.3049
 3388TIP3    H131579   4.388   5.167   0.058  0.3959 -0.5419  1.2735
 3388TIP3    H231580   4.415   5.058  -0.044 -0.9853 -1.0851  1.4636
 3389TIP3   OH231581   3.952   2.168  16.571  0.2798  0.2446  0.9618
 3389TIP3    H131582   4.035   2.135  16.538 -0.0337 -2.5864  2.6810
 3389TIP3    H231583   3.890   2.156  16.500  0.7026 -0.7041  0.7401
 3390TIP3   OH231584   1.172   1.513   4.266 -0.3775 -0.4962 -0.0321
 3390TIP3    H131585   1.243   1.537   4.327  0.4579 -1.0424 -0.7718
 3390TIP3    H231586   1.092   1.528   4.317  0.3037 -1.4022  1.3894
 3391TIP3   OH231587   1.819   4.187   3.394  0.1756 -0.1724 -0.0246
 3391TIP3    H131588   1.730   4.168   3.423  0.7114  0.7390  2.5233
 3391TIP3    H231589   1.809   4.254   3.326 -1.1244 -1.0560 -0.7287
 3392TIP3   OH231590   6.358   0.752  15.431 -0.7690  0.4358 -0.1549
 3392TIP3    H131591   6.336   0.715  15.517  1.3968 -1.5988 -0.3873
 3392TIP3    H231592   6.286   0.723  15.374 -0.0790 -2.0367  0.0898
 3393TIP3   OH231593   1.120   4.120  15.805 -0.0850  0.5959  0.2840
 3393TIP3    H131594   1.148   4.154  15.721 -1.8821 -0.8065 -0.9577
 3393TIP3    H231595   1.104   4.027  15.790 -2.1857  0.6534  1.6542
 3394TIP3   OH231596   6.070   4.866  13.869 -0.5155  0.0249 -0.6571
 3394TIP3    H131597   6.160   4.897  13.865  0.0877 -1.5604 -0.2481
 3394TIP3    H231598   6.022   4.922  13.808  0.5748  1.3937 -0.3075
 3395TIP3   OH231599   5.481   0.621  15.847 -0.5348  0.4618  0.7164
 3395TIP3    H131600   5.544   0.647  15.779 -1.2312  0.7194  0.1552
 3395TIP3    H231601   5.520   0.544  15.888  0.3757  0.9063  0.7028
 3396TIP3   OH231602   5.585   4.511   2.620 -0.4883 -0.0642 -0.3216
 3396TIP3    H131603   5.642   4.436   2.640  0.3317  0.3509 -1.0541
 3396TIP3    H231604   5.641   4.588   2.631 -1.7816  0.6314  2.1980
 3397TIP3   OH231605   3.201   0.800  14.416  0.2308 -0.1229  0.2501
 3397TIP3    H131606   3.214   0.753  14.334  1.9701  0.7928 -0.0509
 3397TIP3    H231607   3.212   0.733  14.484  1.8074 -0.3711 -0.2026
 3398TIP3   OH231608   5.908   2.906  14.712  0.0981 -0.2751  0.2445
 3398TIP3    H131609   5.906   2.917  14.617  0.0083  0.3405  0.3108
 3398TIP3    H231610   5.815   2.906  14.738  0.1487  1.6147  0.5371
 3399TIP3   OH231611   5.476   2.853   4.531 -0.4019  0.7168  0.1455
 3399TIP3    H131612   5.533   2.793   4.579  0.1995  0.4206 -0.9098
 3399TIP3    H231613   5.525   2.876   4.452 -1.4737  0.9722 -0.4759
 3400TIP3   OH231614   4.287   6.107  15.102 -0.2458 -0.2663  0.3199
 3400TIP3    H131615   4.199   6.139  15.079  0.3879  0.5090 -1.1811
 3400TIP3    H231616   4.305   6.040  15.037 -0.0549 -1.0516  1.1668
 3401TIP3   OH231617   1.748   0.802   5.625  0.7712 -0.0700  0.7063
 3401TIP3    H131618   1.659   0.806   5.659  0.6923  1.7543  0.3776
 3401TIP3    H231619   1.737   0.774   5.534  0.5801 -0.3205  0.8050
 3402TIP3   OH231620   0.940   2.328  12.678 -1.0720 -0.4324  0.0433
 3402TIP3    H131621   0.923   2.388  12.606 -0.1132 -0.2074 -0.0095
 3402TIP3    H231622   0.875   2.351  12.744 -0.3476  1.0818  0.2675
 3403TIP3   OH231623   3.574   4.152  13.268 -0.4731 -0.0576  0.3171
 3403TIP3    H131624   3.614   4.168  13.182 -2.1949 -0.1866 -0.5524
 3403TIP3    H231625   3.648   4.147  13.328  0.8257 -0.4600 -1.2333
 3404TIP3   OH231626   5.483   2.571  14.569  0.0466  0.7910 -0.6102
 3404TIP3    H131627   5.442   2.561  14.484 -0.2915 -0.3694 -0.3322
 3404TIP3    H231628   5.556   2.508  14.569 -1.9707 -1.7942  1.1138
 3405TIP3   OH231629   3.410   3.033   1.490  0.5056  0.3406  0.3068
 3405TIP3    H131630   3.466   2.999   1.420  1.9022  0.7164  1.1879
 3405TIP3    H231631   3.395   3.125   1.466  1.3395  0.5904  0.6769
 3406TIP3   OH231632   5.047   5.199  12.973 -0.1000  0.1040  0.0971
 3406TIP3    H131633   5.028   5.292  12.962  2.1292  0.4850 -1.0270
 3406TIP3    H231634   5.096   5.174  12.895 -0.1393 -1.8837  0.6413
 3407TIP3   OH231635   2.293   5.001   5.234 -0.1818 -0.4777  0.0362
 3407TIP3    H131636   2.202   5.031   5.239  0.2408  0.6145  2.3572
 3407TIP3    H231637   2.313   4.971   5.322  1.9926  0.1306 -0.1912
 3408TIP3   OH231638   1.328   2.069   4.000  0.2080  0.3200 -0.0284
 3408TIP3    H131639   1.332   2.123   3.921  0.6304  0.2203 -0.0754
 3408TIP3    H231640   1.278   2.121   4.062 -0.3805  0.2843 -0.4545
 3409TIP3   OH231641   5.672   0.864  12.994  0.0371  0.2271  0.5496
 3409TIP3    H131642   5.733   0.841  13.065  0.6735 -0.4803 -0.2125
 3409TIP3    H231643   5.614   0.929  13.034 -1.1079 -1.8098  2.4206
 3410TIP3   OH231644   1.674   6.589  14.483  0.2255 -0.8460 -0.0065
 3410TIP3    H131645   1.728   6.602  14.405  0.7812 -2.2154  0.1213
 3410TIP3    H231646   1.726   6.628  14.554  0.8001 -1.6215  0.0191
 3411TIP3   OH231647   2.339   2.709  11.179 -0.7052  0.5269 -0.1684
 3411TIP3    H131648   2.257   2.706  11.227 -0.6981 -0.7524 -0.1959
 3411TIP3    H231649   2.357   2.802  11.167 -2.8345  0.8299 -1.3652
 3412TIP3   OH231650   6.551   2.032  14.269 -0.3556 -0.1512  0.0316
 3412TIP3    H131651   6.508   2.118  14.275 -0.4677 -0.2494  0.6534
 3412TIP3    H231652   6.645   2.053  14.265 -0.3284 -0.0351  1.1363
 3413TIP3   OH231653   1.778   5.571  14.596 -0.0674 -0.1336  0.5461
 3413TIP3    H131654   1.698   5.531  14.564  0.3671  0.2187 -1.0517
 3413TIP3    H231655   1.840   5.498  14.604  0.3666 -0.0046 -1.2325
 3414TIP3   OH231656   5.997   5.210  13.164  0.7072 -0.0230 -0.5422
 3414TIP3    H131657   6.043   5.126  13.176  0.2735 -0.3428 -1.0508
 3414TIP3    H231658   6.031   5.243  13.080  0.3910 -0.0109 -0.6664
 3415TIP3   OH231659   0.992   5.538   1.395 -0.8786 -0.3052  0.2536
 3415TIP3    H131660   0.929   5.600   1.358 -1.1393 -0.3372  0.6439
 3415TIP3    H231661   1.070   5.591   1.414 -0.1934 -0.5271 -1.6525
 3416TIP3   OH231662   1.988   0.958   4.136 -0.2229 -0.4411 -0.2437
 3416TIP3    H131663   2.060   0.930   4.192  0.9642  1.2634 -0.8335
 3416TIP3    H231664   1.916   0.976   4.197  0.8130  0.6804  0.7029
 3417TIP3   OH231665   5.770   1.447   4.629 -0.0433 -0.1531  0.1188
 3417TIP3    H131666   5.795   1.430   4.538 -0.2614  0.4249 -0.0519
 3417TIP3    H231667   5.782   1.541   4.640  1.0077 -0.3788  1.0072
 3418TIP3   OH231668   4.708   3.661  12.689 -0.2230 -0.0326  0.6271
 3418TIP3    H131669   4.638   3.621  12.638  0.7375 -1.2692  0.2391
 3418TIP3    H231670   4.788   3.618  12.659  0.3994 -0.8446  3.1572
 3419TIP3   OH231671   0.549   3.149   5.195  0.7109  0.2901 -0.1813
 3419TIP3    H131672   0.462   3.174   5.164  0.4586 -1.2933 -0.8642
 3419TIP3    H231673   0.608   3.171   5.123  0.5147 -0.8559 -0.7092
 3420TIP3   OH231674   2.320   4.098   6.840  0.7619 -0.3897  0.0638
 3420TIP3    H131675   2.376   4.039   6.892 -0.2356 -0.4792  1.0766
 3420TIP3    H231676   2.317   4.057   6.753 -1.2898 -2.8731  1.1656
 3421TIP3   OH231677   5.644   5.572   4.511 -1.0127 -0.0540 -0.3748
 3421TIP3    H131678   5.616   5.612   4.593  2.1416 -0.6528  1.1533
 3421TIP3    H231679   5.597   5.489   4.507 -1.3376  0.0681  0.7580
 3422TIP3   OH231680   6.763   0.580  12.218  0.7125 -0.4152 -0.1579
 3422TIP3    H131681   6.824   0.624  12.277  1.2591  0.3597 -1.2589
 3422TIP3    H231682   6.812   0.570  12.137 -0.5053 -0.0864 -0.9575
 3423TIP3   OH231683   4.112   3.703   1.087 -0.4889  0.5313  0.1030
 3423TIP3    H131684   4.186   3.704   1.147 -0.6347  0.0143  0.2975
 3423TIP3    H231685   4.054   3.636   1.122  0.3776 -1.3191 -1.7260
 3424TIP3   OH231686   0.855   0.651  13.810 -0.0496  0.0062 -0.1207
 3424TIP3    H131687   0.797   0.663  13.885 -0.2528 -1.5481 -0.0006
 3424TIP3    H231688   0.922   0.591  13.840  0.0405 -0.4024 -1.0828
 3425TIP3   OH231689   4.672   6.167   4.592 -0.7111 -0.8541 -0.2054
 3425TIP3    H131690   4.630   6.196   4.511  1.0134  0.5035 -0.6696
 3425TIP3    H231691   4.701   6.248   4.634 -1.1962 -1.5620  1.5813
 3426TIP3   OH231692   5.254   2.884  16.283 -0.0353  0.0815  0.5346
 3426TIP3    H131693   5.263   2.954  16.349 -0.3211 -0.5583  1.2729
 3426TIP3    H231694   5.317   2.818  16.311 -0.4333 -0.3637  0.3873
 3427TIP3   OH231695   5.348   1.301   0.440 -0.3321 -0.8190 -0.3000
 3427TIP3    H131696   5.329   1.210   0.420  1.9501 -1.4866  0.3711
 3427TIP3    H231697   5.442   1.311   0.426 -0.2383  1.0196  1.1809
 3428TIP3   OH231698   2.139   3.572  11.127 -0.1991  0.2804 -0.2697
 3428TIP3    H131699   2.085   3.537  11.198  0.0457 -1.0566 -0.7215
 3428TIP3    H231700   2.153   3.498  11.068  0.2892  1.1622 -1.3013
 3429TIP3   OH231701   0.335   3.724  10.898  0.5226 -0.5257  0.3432
 3429TIP3    H131702   0.369   3.725  10.809 -0.2769  1.1637  0.0110
 3429TIP3    H231703   0.323   3.631  10.919  2.4337 -1.0323 -0.6141
 3430TIP3   OH231704   1.815   2.122  15.728  0.2629 -0.0814  0.4150
 3430TIP3    H131705   1.737   2.067  15.727  0.4567 -0.4328  1.8597
 3430TIP3    H231706   1.868   2.086  15.800  2.6138 -1.0362 -1.6199
 3431TIP3   OH231707   6.621   5.458  10.582  0.1157  0.5264  0.1094
 3431TIP3    H131708   6.714   5.456  10.607 -0.5613 -1.0188  3.0248
 3431TIP3    H231709   6.586   5.535  10.627  0.1050  1.7632 -1.8857
 3432TIP3   OH231710   5.000   6.616  12.681  0.2387  0.1436 -0.4406
 3432TIP3    H131711   4.921   6.592  12.633 -1.6325  3.4072  0.7224
 3432TIP3    H231712   5.071   6.575  12.631 -2.0874 -3.5460 -1.1515
 3433TIP3   OH231713   1.132   4.565  16.619  0.2921  0.3613  0.4053
 3433TIP3    H131714   1.042   4.563  16.588  0.0855 -0.7573  1.0416
 3433TIP3    H231715   1.183   4.593  16.543 -0.4241 -0.3878 -0.3694
 3434TIP3   OH231716   2.508   5.270  11.739 -0.0421  0.4098 -0.2200
 3434TIP3    H131717   2.531   5.324  11.663  1.2162  0.8733  0.4504
 3434TIP3    H231718   2.565   5.193  11.731  1.1621  1.1340  0.9814
 3435TIP3   OH231719   3.311   5.405  13.895  0.5138  0.0499 -0.0139
 3435TIP3    H131720   3.302   5.347  13.819  0.4168 -1.2386  0.9412
 3435TIP3    H231721   3.222   5.421  13.924  0.5965 -0.5446  0.5984
 3436TIP3   OH231722   5.839   2.194  13.983 -0.2090 -0.3880 -0.1622
 3436TIP3    H131723   5.862   2.101  13.988  0.2445 -0.3689 -1.5312
 3436TIP3    H231724   5.763   2.196  13.925 -0.6570  0.0546  0.4197
 3437TIP3   OH231725   6.675   1.888  12.634 -0.0992  0.5135 -0.1927
 3437TIP3    H131726   6.613   1.845  12.575 -2.6280  2.5038  0.8044
 3437TIP3    H231727   6.699   1.968  12.587  1.2313  0.1013 -0.2544
 3438TIP3   OH231728   3.186   2.714  12.218 -0.1056 -0.5640 -0.5314
 3438TIP3    H131729   3.098   2.752  12.224  0.6654  1.1634  1.1788
 3438TIP3    H231730   3.225   2.754  12.141 -0.0916  0.4164 -0.0312
 3439TIP3   OH231731   4.491   1.225   0.909 -0.1963 -0.1501 -0.3139
 3439TIP3    H131732   4.513   1.317   0.893 -0.7947 -0.1054 -0.9493
 3439TIP3    H231733   4.398   1.226   0.931  0.1949 -0.4250  1.4633
 3440TIP3   OH231734   1.174   1.313  13.870  0.0512  0.0840 -0.3118
 3440TIP3    H131735   1.093   1.359  13.889  0.0505  0.0299 -0.1852
 3440TIP3    H231736   1.154   1.260  13.792 -0.3834 -0.8197  0.3929
 3441TIP3   OH231737   0.327   0.096   3.372 -0.1646  0.3056  0.1097
 3441TIP3    H131738   0.403   0.041   3.353  1.8396  1.9663  2.5674
 3441TIP3    H231739   0.267   0.038   3.419 -0.2956 -0.9317 -1.5023
 3442TIP3   OH231740   3.736   3.816  16.465 -0.4963  0.6205 -0.2709
 3442TIP3    H131741   3.735   3.724  16.493 -0.4944  0.5081 -0.6363
 3442TIP3    H231742   3.644   3.841  16.461 -0.5575  0.2900 -1.2730
 3443TIP3   OH231743   4.553   2.466   0.221  0.4655  0.6612  0.2030
 3443TIP3    H131744   4.535   2.547   0.269  0.4723  1.7394 -1.5368
 3443TIP3    H231745   4.631   2.485   0.169 -0.9031  0.4425 -2.1002
 3444TIP3   OH231746   3.118   3.197   4.881  0.2289  0.6322  0.0600
 3444TIP3    H131747   3.168   3.148   4.816 -1.0998  0.4134 -0.8343
 3444TIP3    H231748   3.081   3.271   4.833 -0.0001  0.9959  0.7794
 3445TIP3   OH231749   5.638   5.994   4.913 -0.1924  0.4960  0.1053
 3445TIP3    H131750   5.655   5.905   4.944  1.4944  0.2139 -1.4089
 3445TIP3    H231751   5.722   6.040   4.925  0.0909  0.7851 -2.4496
 3446TIP3   OH231752   5.412   5.952  11.963  0.0938 -0.1276  0.1613
 3446TIP3    H131753   5.417   5.911  11.877  2.0575 -1.1516  0.6894
 3446TIP3    H231754   5.332   5.918  12.002 -0.7826  0.2983 -1.2236
 3447TIP3   OH231755   6.094   4.813   1.351 -0.0438  0.4348 -0.1432
 3447TIP3    H131756   6.031   4.884   1.364 -0.7033 -0.3233  0.9513
 3447TIP3    H231757   6.090   4.762   1.431  1.4132 -0.0841 -0.3680
 3448TIP3   OH231758   2.693   0.060  12.999 -0.0182 -0.1194 -0.0066
 3448TIP3    H131759   2.648   0.007  13.065  1.3678 -0.5975  0.5933
 3448TIP3    H231760   2.770   0.008  12.975  1.1610  1.4310  0.2801
 3449TIP3   OH231761   5.920   6.043   3.966 -0.0152 -0.3579 -1.0071
 3449TIP3    H131762   6.011   6.020   3.951  0.1491 -0.4784  0.0843
 3449TIP3    H231763   5.920   6.138   3.976  0.7540 -0.6113  3.3339
 3450TIP3   OH231764   5.481   5.678  13.031 -0.2573  0.5148 -0.5605
 3450TIP3    H131765   5.567   5.721  13.035  0.6843 -1.2999  2.9497
 3450TIP3    H231766   5.429   5.724  13.097 -1.2679  0.2121 -1.1392
 3451TIP3   OH231767   3.832   2.090   4.653  0.0680  0.2466  0.0231
 3451TIP3    H131768   3.806   2.181   4.639 -1.1603  0.1028  1.1340
 3451TIP3    H231769   3.805   2.044   4.574  0.2209  0.7386 -0.3233
 3452TIP3   OH231770   5.363   5.309  11.523 -0.0010 -0.1542 -0.5374
 3452TIP3    H131771   5.458   5.320  11.525  0.0602 -0.6771  1.0291
 3452TIP3    H231772   5.350   5.214  11.519 -0.4148 -0.2274  1.4467
 3453TIP3   OH231773   2.776   2.601   2.130 -0.0188 -0.1226 -0.3839
 3453TIP3    H131774   2.801   2.685   2.091  1.6244 -0.7102 -0.6536
 3453TIP3    H231775   2.688   2.616   2.164  0.0722  1.5781 -0.8166
 3454TIP3   OH231776   1.735   1.817  14.592  0.0563  0.2564 -0.2605
 3454TIP3    H131777   1.697   1.732  14.614 -0.6016  0.7336  0.5027
 3454TIP3    H231778   1.686   1.846  14.515 -0.3767  0.3670  0.0517
 3455TIP3   OH231779   3.598   0.667  16.015  0.4293 -0.4332  0.3017
 3455TIP3    H131780   3.679   0.705  15.981 -0.2762  1.7028  0.8961
 3455TIP3    H231781   3.562   0.734  16.074 -1.4475 -1.5851  0.5492
 3456TIP3   OH231782   6.067   6.423  16.788  0.5736  0.3462 -0.2513
 3456TIP3    H131783   6.028   6.380  16.864 -1.2019 -0.1995 -1.4136
 3456TIP3    H231784   6.113   6.352  16.742  0.8107  0.4690 -0.2038
 3457TIP3   OH231785   5.653   5.025   5.628  0.2906  0.0823  0.4027
 3457TIP3    H131786   5.652   4.993   5.718  1.2785 -2.4284 -0.4092
 3457TIP3    H231787   5.744   5.012   5.599 -0.0353  0.7554 -1.0058
 3458TIP3   OH231788   1.487   5.903   4.913 -0.5191  0.0132  0.0476
 3458TIP3    H131789   1.574   5.887   4.877  0.6987 -0.1068  2.8291
 3458TIP3    H231790   1.437   5.823   4.893  0.3675 -0.4199 -0.4802
 3459TIP3   OH231791   2.673   3.571  11.667 -0.0412 -0.3514 -0.0119
 3459TIP3    H131792   2.599   3.564  11.607  0.2884 -1.3986 -0.3244
 3459TIP3    H231793   2.737   3.508  11.633  0.2206 -0.8418  1.3520
 3460TIP3   OH231794   4.388   2.587  11.466 -0.3041 -0.1442  0.2192
 3460TIP3    H131795   4.454   2.640  11.422 -0.7902 -0.2631 -0.6814
 3460TIP3    H231796   4.316   2.581  11.403  0.1308 -2.7354 -0.1425
 3461TIP3   OH231797   1.754   4.711   3.386  0.3557  0.1703  0.1388
 3461TIP3    H131798   1.729   4.640   3.445  0.0578  0.9890  1.0494
 3461TIP3    H231799   1.703   4.696   3.307  0.9912 -1.1260 -0.0453
 3462TIP3   OH231800   3.957   6.435  10.500  0.1151  0.1192 -0.1792
 3462TIP3    H131801   3.877   6.487  10.493  0.4028  0.6782  0.5591
 3462TIP3    H231802   4.028   6.500  10.500  0.4456 -0.1994  1.5203
 3463TIP3   OH231803   0.207   0.817   3.198 -0.4402 -0.4866 -0.1457
 3463TIP3    H131804   0.199   0.830   3.293 -2.1261 -0.5896 -0.2567
 3463TIP3    H231805   0.210   0.906   3.162  0.1483 -0.4479 -0.0182
 3464TIP3   OH231806   3.822   3.088  15.918 -0.6385 -0.4665 -0.2210
 3464TIP3    H131807   3.772   3.010  15.941  1.0475 -1.1756  1.2936
 3464TIP3    H231808   3.870   3.110  15.998  2.3825 -0.5493 -1.8984
 3465TIP3   OH231809   0.136   3.600  10.622 -0.6336 -0.2950 -0.1577
 3465TIP3    H131810   0.197   3.569  10.690  0.3152  0.5632 -0.5851
 3465TIP3    H231811   0.058   3.545  10.632  0.5397 -2.0433 -0.1587
 3466TIP3   OH231812   3.093   0.783   6.895  0.0714  0.0641  0.0330
 3466TIP3    H131813   3.011   0.802   6.849  0.0854 -0.3290 -0.1500
 3466TIP3    H231814   3.087   0.690   6.918  0.8194 -0.1645 -0.6880
 3467TIP3   OH231815   4.603   3.442  12.369  0.0924 -0.0936 -0.1463
 3467TIP3    H131816   4.622   3.431  12.462 -2.3367 -0.0277  0.4175
 3467TIP3    H231817   4.668   3.507  12.339  0.1692  0.7751  1.7739
 3468TIP3   OH231818   5.403   4.781   5.162 -0.0004 -0.4030  0.0742
 3468TIP3    H131819   5.380   4.692   5.186 -1.0445 -0.3339 -0.6547
 3468TIP3    H231820   5.358   4.836   5.227 -0.8754 -0.3263 -0.5899
 3469TIP3   OH231821   6.587   1.407  11.682  0.4505  0.3045 -0.2429
 3469TIP3    H131822   6.655   1.350  11.719  0.8768  1.4138  0.7244
 3469TIP3    H231823   6.506   1.357  11.692  0.9387 -0.5108 -0.2511
 3470TIP3   OH231824   4.005   0.924  16.315 -0.2705 -0.0226  0.2697
 3470TIP3    H131825   3.952   0.916  16.394 -2.1254  0.9880 -0.8095
 3470TIP3    H231826   4.054   0.842  16.310 -1.2288 -0.7070  1.6714
 3471TIP3   OH231827   2.905   5.972  11.225  0.7987 -0.6223 -0.4044
 3471TIP3    H131828   2.980   5.995  11.280 -0.5927 -0.8595  1.6710
 3471TIP3    H231829   2.836   6.033  11.252 -0.5961 -2.2062 -0.2736
 3472TIP3   OH231830   6.376   5.264   0.779  0.1049 -0.6561 -0.1094
 3472TIP3    H131831   6.427   5.184   0.774 -0.3733 -0.9039 -1.5037
 3472TIP3    H231832   6.303   5.243   0.837  0.3949 -0.9971  0.1298
 3473TIP3   OH231833   6.224   4.893   4.213 -0.8326 -0.8229 -0.1012
 3473TIP3    H131834   6.157   4.844   4.165 -2.7795  0.0487  1.5698
 3473TIP3    H231835   6.175   4.961   4.260  1.2345 -0.1528  1.2276
 3474TIP3   OH231836   3.777   0.645   0.713  0.1555  0.1894  0.2278
 3474TIP3    H131837   3.815   0.572   0.762 -0.6396 -2.9890 -3.3725
 3474TIP3    H231838   3.841   0.664   0.645 -0.8399  0.9176 -0.5442
 3475TIP3   OH231839   5.388   4.406  16.602 -0.3807  0.4221  0.0260
 3475TIP3    H131840   5.393   4.314  16.627  0.8853  0.9724  2.0017
 3475TIP3    H231841   5.374   4.404  16.507  1.0437 -1.8159 -0.2115
 3476TIP3   OH231842   1.847   3.774   0.356  0.0840 -0.0382  0.0793
 3476TIP3    H131843   1.860   3.820   0.273  0.8101  1.0955  0.8037
 3476TIP3    H231844   1.879   3.685   0.339  1.7319  0.6224 -0.3988
 3477TIP3   OH231845   5.335   5.024  11.478 -0.0971 -0.2211  0.3081
 3477TIP3    H131846   5.369   4.940  11.508  1.1512  1.0399  2.7264
 3477TIP3    H231847   5.259   5.001  11.425  0.5064 -2.8733  0.4240
 3478TIP3   OH231848   5.587   3.075   0.256 -0.1285  0.1933 -0.3135
 3478TIP3    H131849   5.615   3.084   0.347  1.6880 -1.0525 -0.7018
 3478TIP3    H231850   5.630   3.147   0.210  1.4244 -0.9108 -0.6659
 3479TIP3   OH231851   0.024   6.802   1.645  0.0967  0.4053 -0.1779
 3479TIP3    H131852  -0.071   6.812   1.648 -0.4522 -2.3588 -3.0026
 3479TIP3    H231853   0.052   6.859   1.573  0.6815  1.2445  0.6692
 3480TIP3   OH231854   2.004   5.280   4.360  0.0319  0.1606 -0.4641
 3480TIP3    H131855   2.054   5.273   4.442 -0.5500  0.4523 -0.0789
 3480TIP3    H231856   1.921   5.236   4.378 -0.0250  0.0587 -0.9614
 3481TIP3   OH231857   1.274   2.665   3.544 -0.3834 -0.7687 -0.0999
 3481TIP3    H131858   1.270   2.750   3.499 -1.8546 -0.9647 -0.3987
 3481TIP3    H231859   1.191   2.660   3.592 -1.4978 -3.0994 -2.0876
 3482TIP3   OH231860   1.739   5.179  15.181  0.7844 -0.1271 -0.1022
 3482TIP3    H131861   1.759   5.256  15.234  0.3246  0.7749 -1.1939
 3482TIP3    H231862   1.824   5.138  15.166  0.9495 -0.2516  1.0994
 3483TIP3   OH231863   5.012   6.078  11.035 -0.2681  0.5151 -0.1057
 3483TIP3    H131864   4.930   6.082  11.084 -0.5689 -0.7409 -0.4728
 3483TIP3    H231865   5.039   5.987  11.041 -0.5995  0.1621 -2.6789
 3484TIP3   OH231866   5.248   6.397  15.385  0.0500 -0.3954 -0.1108
 3484TIP3    H131867   5.246   6.359  15.297  0.0630 -0.8351  0.0741
 3484TIP3    H231868   5.322   6.354  15.428  0.5753  0.4408 -0.1566
 3485TIP3   OH231869   2.616   1.647  12.638 -0.6217 -0.0887 -0.0454
 3485TIP3    H131870   2.521   1.646  12.641 -0.6593  1.0070 -0.5095
 3485TIP3    H231871   2.643   1.638  12.730 -1.1600 -0.3798  0.0909
 3486TIP3   OH231872   6.181   2.131   3.862 -0.6239 -0.1114 -0.7394
 3486TIP3    H131873   6.171   2.157   3.954  1.3327 -1.0765 -0.2109
 3486TIP3    H231874   6.155   2.208   3.812  0.1865  1.1066  0.6711
 3487TIP3   OH231875   1.467   3.452  15.510 -0.3842 -0.5547 -0.0480
 3487TIP3    H131876   1.511   3.536  15.525  0.1525 -1.0635  1.4546
 3487TIP3    H231877   1.401   3.471  15.443  0.2259  0.8848 -0.2881
 3488TIP3   OH231878   6.158   4.469   3.640 -0.3813  0.1302 -0.5514
 3488TIP3    H131879   6.186   4.403   3.577 -0.8267 -1.2823  0.6799
 3488TIP3    H231880   6.230   4.474   3.703 -0.3546  0.8467 -0.6231
 3489TIP3   OH231881   6.439   1.054   3.442 -0.1095 -0.0095 -0.2894
 3489TIP3    H131882   6.425   1.148   3.426 -0.4419 -0.2821 -1.7006
 3489TIP3    H231883   6.406   1.011   3.363  0.3723 -1.2963  0.1908
 3490TIP3   OH231884   3.761   5.803  12.651 -0.8109 -0.4202 -0.3268
 3490TIP3    H131885   3.802   5.813  12.565 -0.8843  0.4326 -0.2713
 3490TIP3    H231886   3.830   5.825  12.713 -0.9583 -0.3581 -0.1866
 3491TIP3   OH231887   4.123   2.966   6.273  0.2360 -0.3717 -0.1790
 3491TIP3    H131888   4.109   3.052   6.312 -1.0390 -0.4281 -0.4603
 3491TIP3    H231889   4.208   2.937   6.307 -0.2731  0.0989  1.5758
 3492TIP3   OH231890   3.080   4.570   2.259  0.0566 -0.3223 -0.3844
 3492TIP3    H131891   3.041   4.580   2.173 -0.1653 -0.4082 -0.2948
 3492TIP3    H231892   3.032   4.497   2.299  0.6568 -0.7761 -0.4711
 3493TIP3   OH231893   3.265   0.750   5.935 -0.3941 -0.0721 -0.1962
 3493TIP3    H131894   3.206   0.698   5.880 -0.4894 -0.5151  0.3168
 3493TIP3    H231895   3.217   0.763   6.016  0.4105 -0.9013  0.4408
 3494TIP3   OH231896   5.022   1.571  14.697  0.2435 -0.1788 -0.5222
 3494TIP3    H131897   5.002   1.576  14.603 -0.6069  1.5330 -0.2767
 3494TIP3    H231898   4.994   1.483  14.722 -0.8853 -0.1492 -1.5748
 3495TIP3   OH231899   5.443   2.882   0.994 -0.3014  0.6848  0.8245
 3495TIP3    H131900   5.467   2.790   0.979  1.7682  1.0454  1.5111
 3495TIP3    H231901   5.501   2.931   0.936 -1.6059  1.5708  0.2355
 3496TIP3   OH231902   2.892   0.229   0.103 -0.6360  0.3286  0.4370
 3496TIP3    H131903   2.935   0.280   0.172  0.8602  0.2900 -0.4296
 3496TIP3    H231904   2.827   0.288   0.066  0.6397  1.4451 -0.1224
 3497TIP3   OH231905   1.202   6.818  16.198  0.4229  0.6072  0.0798
 3497TIP3    H131906   1.239   6.734  16.171 -0.4243  0.8469 -2.1018
 3497TIP3    H231907   1.186   6.864  16.115 -0.3861  2.3670  1.1590
 3498TIP3   OH231908   4.278   2.499   5.662 -0.0638 -0.5797 -0.4305
 3498TIP3    H131909   4.325   2.416   5.669 -0.1996 -0.7428 -1.3261
 3498TIP3    H231910   4.304   2.549   5.740  1.3165 -0.8057 -0.7288
 3499TIP3   OH231911   0.878   2.506  13.609  0.1933 -0.2262 -0.0427
 3499TIP3    H131912   0.891   2.591  13.650 -2.0956 -0.3335  1.0871
 3499TIP3    H231913   0.830   2.455  13.674  1.5582 -2.4331 -0.6746
 3500TIP3   OH231914   3.009   3.400   6.566  0.1839  0.1390 -0.4465
 3500TIP3    H131915   3.027   3.484   6.524 -0.5082  0.4901 -0.0609
 3500TIP3    H231916   3.091   3.351   6.559  0.0991  0.1720 -2.2089
 3501TIP3   OH231917   0.702   1.604  11.409 -0.2364 -0.2415  0.0863
 3501TIP3    H131918   0.675   1.695  11.425 -1.4856 -0.7300  0.8691
 3501TIP3    H231919   0.777   1.591  11.467  1.2734  0.8741 -1.5041
 3502TIP3   OH231920   0.379   6.381  15.940  0.3997  0.5432 -0.2023
 3502TIP3    H131921   0.290   6.413  15.929 -0.0953  0.2912  2.3037
 3502TIP3    H231922   0.430   6.423  15.871 -1.5409  1.1344 -1.3303
 3503TIP3   OH231923   2.019   4.793  11.297  0.2627  0.3161  0.5336
 3503TIP3    H131924   2.097   4.849  11.305 -0.3051  1.3022 -0.4483
 3503TIP3    H231925   1.959   4.844  11.242 -0.1615 -1.4116 -0.6787
 3504TIP3   OH231926   3.873   1.135   3.872 -0.4164 -0.3904  0.5178
 3504TIP3    H131927   3.861   1.228   3.891  0.4797 -0.4145  1.2577
 3504TIP3    H231928   3.895   1.096   3.956  1.3243 -0.8994 -0.1274
 3505TIP3   OH231929   0.073   5.142   3.446 -0.0024  0.1648 -0.0928
 3505TIP3    H131930   0.095   5.081   3.376  0.5851  0.4538 -0.1601
 3505TIP3    H231931  -0.005   5.104   3.487 -0.8498  0.4104 -1.4161
 3506TIP3   OH231932   6.210   5.559   6.188  0.1040  0.1912  0.4716
 3506TIP3    H131933   6.301   5.556   6.217  0.4732  1.9321 -0.3235
 3506TIP3    H231934   6.163   5.604   6.259  0.3442  1.3676 -0.0852
 3507TIP3   OH231935   1.846   1.136   5.072 -0.1024 -0.6581  0.4644
 3507TIP3    H131936   1.915   1.070   5.076 -1.7023 -2.3808  1.5248
 3507TIP3    H231937   1.867   1.188   4.995  2.8536 -0.5018  1.2506
 3508TIP3   OH231938   2.347   3.034  12.539 -0.2318  0.1250 -0.0064
 3508TIP3    H131939   2.389   3.119  12.538  1.1837 -0.5470 -0.4800
 3508TIP3    H231940   2.264   3.048  12.585 -0.4677  1.9371 -0.9231
 3509TIP3   OH231941   4.678   4.353  13.989 -0.3396  0.4394 -0.5232
 3509TIP3    H131942   4.657   4.440  14.023 -2.4920  0.0793 -0.7736
 3509TIP3    H231943   4.605   4.298  14.018  0.3354 -1.0069 -1.4537
 3510TIP3   OH231944   4.196   5.117  16.750 -0.3259  0.4500 -0.1753
 3510TIP3    H131945   4.206   5.061  16.827 -0.6932 -0.0373 -0.4790
 3510TIP3    H231946   4.160   5.199  16.785 -0.3165  0.2999  0.1961
 3511TIP3   OH231947   3.141   3.180  10.963 -0.2048 -0.6062 -0.0294
 3511TIP3    H131948   3.152   3.179  10.868 -0.4650  2.4619 -0.1858
 3511TIP3    H231949   3.203   3.247  10.994 -2.4741  0.9378  1.5281
 3512TIP3   OH231950   3.801   3.035   5.954  0.1215 -0.4044  0.6971
 3512TIP3    H131951   3.775   3.101   5.891  0.4154  0.8599  1.8501
 3512TIP3    H231952   3.882   3.070   5.993 -0.0208 -1.1724  1.7140
 3513TIP3   OH231953   5.916   0.950  16.300 -0.3747 -0.1597  0.0803
 3513TIP3    H131954   5.835   0.900  16.296  0.3211 -1.2643 -1.1788
 3513TIP3    H231955   5.952   0.932  16.387 -0.3439 -1.5531 -0.2003
 3514TIP3   OH231956   1.800   0.718  13.211  0.0148  0.1525 -0.4645
 3514TIP3    H131957   1.708   0.712  13.187  0.1943 -0.9726 -0.9063
 3514TIP3    H231958   1.832   0.796  13.165 -0.6832  0.5173 -0.3516
 3515TIP3   OH231959   4.587   1.394   1.154 -0.1872  0.5177  0.4775
 3515TIP3    H131960   4.519   1.338   1.192  0.4327 -0.8841 -0.3797
 3515TIP3    H231961   4.664   1.337   1.151  0.1787  1.0693 -1.4489
 3516TIP3   OH231962   6.804   1.570   6.175 -0.1158 -0.2908 -0.0194
 3516TIP3    H131963   6.881   1.516   6.158  1.0071  0.8532  1.2261
 3516TIP3    H231964   6.838   1.659   6.183 -1.3134  0.0551  2.0711
 3517TIP3   OH231965   0.943   2.010  11.442 -0.4450  0.4324 -0.0099
 3517TIP3    H131966   0.997   1.975  11.513 -1.5486 -0.7630  0.2759
 3517TIP3    H231967   0.934   2.103  11.463  1.4655  0.6831 -0.0703
 3518TIP3   OH231968   6.144   5.181   5.955 -0.5741  0.0798  0.2710
 3518TIP3    H131969   6.106   5.212   6.038  0.5587  0.6443  0.5984
 3518TIP3    H231970   6.204   5.250   5.929 -1.4273  0.2325 -1.4145
 3519TIP3   OH231971   1.241   0.144  12.973  0.1537  0.2166  0.2073
 3519TIP3    H131972   1.150   0.163  12.997  0.5494  0.7715  1.3191
 3519TIP3    H231973   1.291   0.215  13.010  1.3047 -1.2363  1.5549
 3520TIP3   OH231974   2.242   2.468  10.688  0.4361  0.5898 -0.1984
 3520TIP3    H131975   2.167   2.434  10.736  0.8872  0.5772  0.5212
 3520TIP3    H231976   2.269   2.546  10.737 -0.0698  1.5066 -1.3503
 3521TIP3   OH231977   4.470   4.195   5.089 -0.0477 -0.4398 -0.1791
 3521TIP3    H131978   4.486   4.248   5.166 -1.1115  0.7153 -0.7188
 3521TIP3    H231979   4.423   4.253   5.029  0.8872 -1.2483 -1.7603
 3522TIP3   OH231980   3.809   1.059  10.923 -0.2570  0.3153 -0.4288
 3522TIP3    H131981   3.782   0.988  10.980 -1.5591  1.0851 -0.0202
 3522TIP3    H231982   3.802   1.023  10.834 -0.6476 -0.1426 -0.2164
 3523TIP3   OH231983   4.264   4.710   5.881 -0.1313 -0.6829 -0.0752
 3523TIP3    H131984   4.215   4.792   5.883  1.6502  0.4280  0.0791
 3523TIP3    H231985   4.224   4.656   5.948  0.6163  1.2602  2.0520
 3524TIP3   OH231986   3.951   0.261   3.365  0.2692 -0.2095 -0.8656
 3524TIP3    H131987   3.985   0.261   3.276  0.3875  1.5322 -0.8604
 3524TIP3    H231988   4.016   0.310   3.416 -0.3699 -0.1492 -0.0772
 3525TIP3   OH231989   0.659   5.860  12.866 -0.0908 -0.4611  0.4593
 3525TIP3    H131990   0.603   5.818  12.931  0.5391  0.1548  1.4182
 3525TIP3    H231991   0.599   5.911  12.812 -0.5579 -0.5071  0.9288
 3526TIP3   OH231992   2.884   5.208   5.530 -0.1637  0.0007 -0.4692
 3526TIP3    H131993   2.978   5.201   5.550 -0.0596  2.4160  0.1948
 3526TIP3    H231994   2.881   5.227   5.436 -0.0461 -0.7644 -0.6344
 3527TIP3   OH231995   0.447   1.560  16.101 -0.0771 -0.1085 -0.1590
 3527TIP3    H131996   0.491   1.503  16.038  0.1811  1.5383 -1.5328
 3527TIP3    H231997   0.354   1.550  16.082  0.0461  1.5570 -1.9708
 3528TIP3   OH231998   4.303   6.780   4.613  0.1052 -0.1506 -0.1733
 3528TIP3    H131999   4.335   6.795   4.702 -0.3216 -0.3607  0.0186
 3528TIP3    H232000   4.378   6.744   4.566  0.1824 -0.5454  0.2484
 3529TIP3   OH232001   0.202   0.542   4.815  0.3587 -0.2476 -0.4722
 3529TIP3    H132002   0.227   0.622   4.861  0.1003 -0.7235  0.5183
 3529TIP3    H232003   0.267   0.532   4.746  0.3614  0.8438 -0.6378
 3530TIP3   OH232004   5.045   2.981   2.187 -0.1498 -0.0704 -0.2905
 3530TIP3    H132005   5.102   2.921   2.235  0.5296  0.0550 -0.9310
 3530TIP3    H232006   5.104   3.035   2.135 -0.7821  0.8357 -0.1022
 3531TIP3   OH232007   5.543   6.689   3.832  0.4892 -0.3850 -0.4738
 3531TIP3    H132008   5.624   6.685   3.881  0.4301 -0.6077 -0.3917
 3531TIP3    H232009   5.564   6.649   3.747  0.4530 -0.4941 -0.4324
 3532TIP3   OH232010   1.274   1.858   4.172  0.3625 -0.5610  0.5422
 3532TIP3    H132011   1.267   1.934   4.115 -0.1022 -0.2077  1.0526
 3532TIP3    H232012   1.190   1.813   4.161  0.3242 -0.5641  0.8385
 3533TIP3   OH232013   6.615   2.576   3.032  0.5799  0.4534  0.3023
 3533TIP3    H132014   6.534   2.529   3.052  0.4695  0.7907  0.6661
 3533TIP3    H232015   6.610   2.595   2.938  0.6989 -0.3896  0.1218
 3534TIP3   OH232016   3.277   0.722   5.129  0.1027 -0.6439 -0.5045
 3534TIP3    H132017   3.227   0.724   5.211 -0.6030  0.7887 -0.9380
 3534TIP3    H232018   3.368   0.731   5.156  0.0276 -1.8410  0.2099
 3535TIP3   OH232019   2.593   4.060  11.515 -0.2522  0.4310  0.1567
 3535TIP3    H132020   2.679   4.079  11.554  0.5931 -1.8397 -0.4494
 3535TIP3    H232021   2.532   4.064  11.589  0.6694  0.2972  0.9541
 3536TIP3   OH232022   0.854   5.722  11.752 -0.1179  0.0583 -0.5386
 3536TIP3    H132023   0.863   5.667  11.674  2.3378  0.9569 -0.9499
 3536TIP3    H232024   0.941   5.723  11.792 -1.2148 -0.1220  2.0990
 3537TIP3   OH232025   3.953   3.050  11.310 -0.1566 -0.1364 -0.1711
 3537TIP3    H132026   3.887   3.008  11.255  0.2681 -0.6359 -0.2979
 3537TIP3    H232027   3.970   3.134  11.267 -0.2414 -0.2792 -0.4864
 3538TIP3   OH232028   3.542   6.800  13.835 -0.2012 -0.0627  0.1866
 3538TIP3    H132029   3.455   6.827  13.865 -0.4353  2.4031 -2.3354
 3538TIP3    H232030   3.601   6.866  13.869 -0.0946  1.1526 -2.1714
 3539TIP3   OH232031   5.830   3.281   3.952  0.0147 -0.1392 -0.2094
 3539TIP3    H132032   5.778   3.362   3.947 -0.4011 -0.3886  0.0311
 3539TIP3    H232033   5.889   3.295   4.026  0.0113 -0.0200 -0.2282
 3540TIP3   OH232034   5.379   2.208  12.437 -0.2858  0.0139 -0.2352
 3540TIP3    H132035   5.458   2.190  12.385 -0.2978  0.2232 -0.3292
 3540TIP3    H232036   5.306   2.193  12.376 -0.3323 -0.4812 -0.0587
 3541TIP3   OH232037   4.892   1.349  14.194  0.1916  0.4666 -0.3278
 3541TIP3    H132038   4.940   1.267  14.183  1.1160  0.8282  0.7949
 3541TIP3    H232039   4.957   1.410  14.229 -1.3833  0.5302  2.8292
 3542TIP3   OH232040   3.571   1.679  14.217  0.4395 -0.0091  0.1973
 3542TIP3    H132041   3.484   1.645  14.237  0.8776 -1.0918  0.3127
 3542TIP3    H232042   3.561   1.721  14.132 -0.7689  2.1217  1.2890
 3543TIP3   OH232043   3.617   2.252   3.544  0.4041 -0.2347  0.1513
 3543TIP3    H132044   3.712   2.257   3.554  0.6858 -0.5180 -2.0131
 3543TIP3    H232045   3.584   2.328   3.591  1.7587  0.2967  0.2857
 3544TIP3   OH232046   5.430   0.158  12.547 -0.4272 -0.3744 -0.4871
 3544TIP3    H132047   5.338   0.133  12.552  0.0349 -2.2690 -0.7746
 3544TIP3    H232048   5.473   0.107  12.615  0.5004  0.0183 -0.7616
 3545TIP3   OH232049   1.380   2.242   6.116  0.0499  0.0318  0.2542
 3545TIP3    H132050   1.422   2.167   6.158  1.1217  0.8553  0.6996
 3545TIP3    H232051   1.447   2.278   6.058 -0.7690  0.0810 -0.6781
 3546TIP3   OH232052   3.726   0.882  11.108  0.2247 -0.0094 -0.2558
 3546TIP3    H132053   3.693   0.937  11.179  0.2654 -0.2190 -0.0724
 3546TIP3    H232054   3.665   0.808  11.106  0.7716 -0.4829  0.1929
 3547TIP3   OH232055   6.742   0.939   5.738  0.1365  0.3921  0.6725
 3547TIP3    H132056   6.829   0.957   5.701  1.1363 -1.6314  1.8345
 3547TIP3    H232057   6.720   0.852   5.707 -1.3081  0.6973  0.7692
 3548TIP3   OH232058   4.854   1.806  15.075 -0.5227 -0.1078  0.1412
 3548TIP3    H132059   4.902   1.889  15.081 -0.3123 -0.2118 -0.0818
 3548TIP3    H232060   4.776   1.820  15.128 -0.6522  0.3477 -0.1632
 3549TIP3   OH232061   0.863   1.838   6.406  0.3930 -0.3379  0.1609
 3549TIP3    H132062   0.913   1.866   6.482  2.6041  0.2739 -1.4455
 3549TIP3    H232063   0.856   1.915   6.351 -1.1279 -0.7812 -0.3293
 3550TIP3   OH232064   0.497   2.618   6.141 -0.2168  0.6368 -0.5169
 3550TIP3    H132065   0.453   2.577   6.216  1.8735  1.1320  1.0696
 3550TIP3    H232066   0.454   2.579   6.065 -0.1519 -2.5712  0.8969
 3551TIP3   OH232067   4.715   1.068   3.511 -0.4675  0.5072 -0.0888
 3551TIP3    H132068   4.748   1.134   3.451 -0.1688 -0.5257 -1.1028
 3551TIP3    H232069   4.724   1.107   3.598 -3.3078  3.0965 -0.7757
 3552TIP3   OH232070   6.639   5.936   0.270  0.0891  0.6372 -0.1245
 3552TIP3    H132071   6.596   6.020   0.287  0.9648  0.8887  0.9857
 3552TIP3    H232072   6.611   5.880   0.343  3.0608  1.3878  1.7627
 3553TIP3   OH232073   4.029   0.237  12.925  0.1207 -0.2466 -0.3482
 3553TIP3    H132074   3.962   0.287  12.880  1.0071  1.5010  0.1660
 3553TIP3    H232075   4.106   0.244  12.868  1.2644  2.0138  1.2992
 3554TIP3   OH232076   5.972   0.918  13.163 -0.3658 -0.2149 -0.4503
 3554TIP3    H132077   6.009   0.837  13.128 -0.5018  0.1725 -1.5326
 3554TIP3    H232078   6.041   0.983  13.150 -0.6569  0.0676 -0.5824
 3555TIP3   OH232079   0.677   2.567   1.713  0.6619  0.0230  0.0093
 3555TIP3    H132080   0.769   2.552   1.692  1.1297  1.9090  0.5812
 3555TIP3    H232081   0.642   2.613   1.637 -0.1956 -1.7972 -0.7739
 3556TIP3   OH232082   4.763   3.919  14.330 -0.1295 -0.1781 -0.4514
 3556TIP3    H132083   4.765   4.012  14.305 -1.4173 -0.1637 -0.5858
 3556TIP3    H232084   4.672   3.904  14.356  0.4855 -0.9547  1.3528
 3557TIP3   OH232085   0.591   0.384  16.898 -0.2693 -0.2553  0.6394
 3557TIP3    H132086   0.529   0.351  16.962 -0.4307 -0.2300  0.4954
 3557TIP3    H232087   0.659   0.316  16.893 -1.6794 -1.6298 -1.2355
 3558TIP3   OH232088   3.798   6.382   1.493  0.3521 -0.1991 -0.1567
 3558TIP3    H132089   3.882   6.424   1.473 -0.3919  1.6885  0.4264
 3558TIP3    H232090   3.757   6.369   1.408 -0.1555  1.9993 -0.3035
 3559TIP3   OH232091   0.662   0.636  16.419  0.4150  0.2616  0.1761
 3559TIP3    H132092   0.567   0.636  16.430  0.4944 -1.4584  1.2842
 3559TIP3    H232093   0.697   0.658  16.506  0.9977 -3.6243  1.0952
 3560TIP3   OH232094   4.028   1.069   3.665 -0.3806  0.2014 -0.1583
 3560TIP3    H132095   3.957   1.094   3.724 -2.3460 -0.1583 -2.2344
 3560TIP3    H232096   4.073   1.152   3.645 -2.4127  1.0772 -1.4474
 3561TIP3   OH232097   5.413   2.749  13.737 -0.5416  0.0409 -0.0181
 3561TIP3    H132098   5.379   2.659  13.738  0.0047 -0.2146 -1.5646
 3561TIP3    H232099   5.506   2.739  13.757 -1.1406  0.6922  3.7174
 3562TIP3   OH232100   5.123   1.077  16.316  0.4220 -0.3619 -0.6366
 3562TIP3    H132101   5.035   1.051  16.342  0.7885 -1.9791 -0.9066
 3562TIP3    H232102   5.154   1.003  16.263  1.8929  0.2405 -0.6336
 3563TIP3   OH232103   3.745   3.076  12.261  0.2868 -0.1761  0.3957
 3563TIP3    H132104   3.768   3.036  12.177  0.1451  1.0645 -0.2700
 3563TIP3    H232105   3.819   3.133  12.281 -0.5734  1.1259  0.0273
 3564TIP3   OH232106   5.550   6.480   4.123  0.3553 -0.1024  0.2116
 3564TIP3    H132107   5.552   6.385   4.124  1.7704 -0.0985 -0.6395
 3564TIP3    H232108   5.486   6.503   4.191 -0.3989 -1.6491  0.0703
 3565TIP3   OH232109   3.222   5.695  15.098 -0.5119 -0.7452  0.5486
 3565TIP3    H132110   3.161   5.768  15.113  1.4635  1.4120 -1.2062
 3565TIP3    H232111   3.281   5.698  15.173 -0.4902 -0.6034  0.5269
 3566TIP3   OH232112   1.464   0.908  16.127 -0.5803  0.0673 -0.2927
 3566TIP3    H132113   1.513   0.989  16.113 -0.2497 -0.2659 -1.1127
 3566TIP3    H232114   1.405   0.903  16.052  0.3149 -1.1053 -0.9453
 3567TIP3   OH232115   0.587   3.823   5.167 -0.1676  0.1279 -0.2824
 3567TIP3    H132116   0.577   3.832   5.072 -0.8806 -0.2290 -0.2511
 3567TIP3    H232117   0.603   3.913   5.198 -1.4572  0.4870 -0.5823
 3568TIP3   OH232118   2.357   0.149   0.449  0.4119  0.6812  0.2333
 3568TIP3    H132119   2.452   0.148   0.436  0.3180  0.9719 -0.5105
 3568TIP3    H232120   2.340   0.236   0.487  0.2757  1.2539 -1.0767
 3569TIP3   OH232121   4.407   5.387   2.787  0.2386  0.0945 -0.7204
 3569TIP3    H132122   4.483   5.335   2.760 -1.2331 -1.7942 -1.4927
 3569TIP3    H232123   4.372   5.341   2.863  0.1779  1.2543 -0.0390
 3570TIP3   OH232124   3.006   0.052  10.620 -0.1084 -0.3423  0.3903
 3570TIP3    H132125   3.050   0.086  10.543  0.8704 -0.7811  0.7418
 3570TIP3    H232126   2.955   0.126  10.653  0.0112  0.0422 -0.2726
 3571TIP3   OH232127   0.487   6.155  15.491 -0.5569 -0.4904  0.1486
 3571TIP3    H132128   0.448   6.113  15.568 -1.4915 -0.0825 -0.0966
 3571TIP3    H232129   0.536   6.084  15.448 -0.4475 -0.8416  0.8326
 3572TIP3   OH232130   0.517   5.540  16.940 -0.0066 -0.4226 -1.1981
 3572TIP3    H132131   0.496   5.507  17.027  0.7870  1.9072 -0.0394
 3572TIP3    H232132   0.432   5.555  16.899 -0.4169 -0.2493 -0.2994
 3573TIP3   OH232133   1.874   3.710   5.714  0.0915  0.2695 -0.3749
 3573TIP3    H132134   1.808   3.683   5.649 -0.0479  0.9140 -0.5115
 3573TIP3    H232135   1.957   3.680   5.677 -0.0730 -0.0842 -0.4605
 3574TIP3   OH232136   0.608   5.298   5.963  0.2010 -0.1216  0.2048
 3574TIP3    H132137   0.534   5.239   5.974  0.3704 -1.1003 -3.0773
 3574TIP3    H232138   0.685   5.242   5.964  0.8724  0.7329  2.1964
 3575TIP3   OH232139   3.142   6.101  15.713  0.7226  0.2139 -0.5639
 3575TIP3    H132140   3.226   6.055  15.709  1.1203  0.9399 -0.7616
 3575TIP3    H232141   3.150   6.171  15.648  0.3142  0.8539  0.0610
 3576TIP3   OH232142   0.249   3.072  15.389 -0.0883 -0.5557 -0.8466
 3576TIP3    H132143   0.207   3.002  15.439 -2.0474  0.5213 -0.8765
 3576TIP3    H232144   0.191   3.086  15.314  0.2657  1.0557 -0.8619
 3577TIP3   OH232145   0.557   3.131   0.887  0.1917 -0.3606  0.1384
 3577TIP3    H132146   0.562   3.124   0.983  0.7778  0.0038  0.1409
 3577TIP3    H232147   0.646   3.156   0.861  0.4277 -1.8854 -0.6306
 3578TIP3   OH232148   3.412   5.165  12.525  0.0674 -0.3376  0.6090
 3578TIP3    H132149   3.489   5.139  12.474  0.2848  0.1951  0.6572
 3578TIP3    H232150   3.407   5.260  12.514 -0.6213 -0.3799  0.5612
 3579TIP3   OH232151   1.169   0.156  11.291 -0.0373 -0.1021  0.5120
 3579TIP3    H132152   1.217   0.091  11.342  0.0474 -0.2005  0.3061
 3579TIP3    H232153   1.119   0.104  11.227 -0.2333  0.0131  0.5717
 3580TIP3   OH232154   2.862   6.677   5.286 -0.3402 -0.1595 -0.1511
 3580TIP3    H132155   2.769   6.661   5.299  0.0853 -1.4806  1.7693
 3580TIP3    H232156   2.899   6.676   5.375  1.1034  3.4729 -0.5369
 3581TIP3   OH232157   4.388   3.751   0.955  0.3874 -0.0943 -0.2642
 3581TIP3    H132158   4.295   3.748   0.931  0.2562  1.6884 -0.1800
 3581TIP3    H232159   4.398   3.836   0.999  1.7054 -1.0133  1.3162
 3582TIP3   OH232160   1.425   5.533  14.775  0.1121  0.2202 -0.4177
 3582TIP3    H132161   1.483   5.467  14.737 -0.8415  0.4324 -2.3645
 3582TIP3    H232162   1.341   5.488  14.785  0.5625 -0.1780  2.6617
 3583TIP3   OH232163   1.733   1.030  14.979  0.5658 -0.1385 -0.1378
 3583TIP3    H132164   1.665   0.975  14.939 -2.8068  2.5727  1.3153
 3583TIP3    H232165   1.735   1.109  14.925  1.6249  0.3731  0.6156
 3584TIP3   OH232166   0.091   5.727  16.771 -0.3713 -0.1160  0.3861
 3584TIP3    H132167   0.113   5.810  16.813  1.1097 -0.4576  0.3223
 3584TIP3    H232168   0.110   5.661  16.837  0.7031 -0.5608 -0.3305
 3585TIP3   OH232169   4.704   1.532   3.496  0.3998 -0.3994  0.0941
 3585TIP3    H132170   4.748   1.521   3.412  2.1898 -1.6618  1.1170
 3585TIP3    H232171   4.619   1.490   3.485 -0.0989  0.9249 -1.5431
 3586TIP3   OH232172   2.658   1.251   1.544  0.2854  0.2714  0.3775
 3586TIP3    H132173   2.630   1.295   1.464  0.1479 -0.9715 -0.2728
 3586TIP3    H232174   2.583   1.199   1.571  0.5614  0.1613  0.9536
 3587TIP3   OH232175   6.094   5.676   6.391  0.3441  0.4595  0.1629
 3587TIP3    H132176   6.087   5.750   6.451  0.3598  2.3801 -2.0861
 3587TIP3    H232177   6.067   5.600   6.443  0.0456  2.0667  2.4636
 3588TIP3   OH232178   2.846   3.557   6.342 -1.0632 -0.2299  0.2014
 3588TIP3    H132179   2.808   3.532   6.426  0.0394 -1.5743  0.3313
 3588TIP3    H232180   2.932   3.591   6.364 -1.0810  0.1738 -0.3265
 3589TIP3   OH232181   2.336   0.072   5.066 -0.3669  0.2958 -0.6393
 3589TIP3    H132182   2.259   0.016   5.078  0.4232 -0.5297  0.7999
 3589TIP3    H232183   2.299   0.157   5.040 -1.9991  0.6226  2.3041
 3590TIP3   OH232184   0.416   4.484  11.326  0.4462  0.1789  0.1979
 3590TIP3    H132185   0.509   4.487  11.349  0.4367 -2.4321  0.8242
 3590TIP3    H232186   0.380   4.563  11.366  2.3909  1.3642 -0.2256
 3591TIP3   OH232187   4.614   0.844  16.057  0.0667  0.0816 -0.2188
 3591TIP3    H132188   4.532   0.849  16.105 -1.3793  2.3500 -2.6464
 3591TIP3    H232189   4.620   0.753  16.027 -2.3464  0.1634 -1.1503
 3592TIP3   OH232190   5.924   1.645  16.279  0.5470 -0.2555 -0.7914
 3592TIP3    H132191   5.987   1.688  16.220  0.3981 -0.0198 -0.7834
 3592TIP3    H232192   5.937   1.552  16.265  1.5489 -0.2326 -0.0979
 3593TIP3   OH232193   4.417   1.975   0.770 -0.4868  0.1372 -0.0821
 3593TIP3    H132194   4.333   1.968   0.816 -0.2456 -1.1638  0.1799
 3593TIP3    H232195   4.402   1.931   0.687  0.4775 -1.8964  0.7622
 3594TIP3   OH232196   0.478   5.256  15.910  0.2322 -0.2668 -0.1341
 3594TIP3    H132197   0.449   5.217  15.992 -0.6574  2.2869  0.8431
 3594TIP3    H232198   0.405   5.240  15.849 -1.1090  1.6187  0.8700
 3595TIP3   OH232199   3.971   4.895   4.364  0.3620  0.9209 -0.2138
 3595TIP3    H132200   3.956   4.812   4.410  1.4415  0.1573 -1.1764
 3595TIP3    H232201   4.011   4.952   4.430 -1.5656  1.1802  0.8365
 3596TIP3   OH232202   4.804   3.103  13.517  0.3719  0.4191 -0.1109
 3596TIP3    H132203   4.861   3.181  13.515  0.9030  0.0216 -1.9758
 3596TIP3    H232204   4.847   3.041  13.458  0.1432 -1.4632  1.6064
 3597TIP3   OH232205   1.763   5.348   1.849 -0.0950  0.5508 -0.0377
 3597TIP3    H132206   1.793   5.297   1.774 -2.1280  0.6726 -1.0054
 3597TIP3    H232207   1.799   5.436   1.835  1.4564  0.0149  0.3978
 3598TIP3   OH232208   0.317   6.294  15.023  0.2954 -0.4884 -0.1227
 3598TIP3    H132209   0.331   6.351  14.947  0.7261  0.2564  0.5068
 3598TIP3    H232210   0.397   6.240  15.026  0.0486 -0.8834 -0.4999
 3599TIP3   OH232211   1.398   0.616   0.072  0.3816 -0.0904 -0.2154
 3599TIP3    H132212   1.424   0.661   0.152 -0.1937  0.7990 -0.5169
 3599TIP3    H232213   1.303   0.622   0.070  0.4150  0.4569 -1.2708
 3600TIP3   OH232214   5.923   6.728  15.718 -0.2002 -0.0268 -0.0334
 3600TIP3    H132215   5.960   6.640  15.710 -2.1227 -1.0794  1.5106
 3600TIP3    H232216   5.830   6.712  15.738 -0.3540  2.3142  1.4587
 3601TIP3   OH232217   1.858   2.025   5.389  0.3530 -0.1380  0.1146
 3601TIP3    H132218   1.804   1.969   5.333 -2.3135  0.3839  2.0126
 3601TIP3    H232219   1.870   2.105   5.337  0.1764 -0.6442 -0.7357
 3602TIP3   OH232220   3.033   6.457  16.206 -0.1661  0.6551  0.3649
 3602TIP3    H132221   3.093   6.526  16.236  1.5764 -1.2802  1.6687
 3602TIP3    H232222   2.957   6.504  16.173  0.9572  3.1892  1.1099
 3603TIP3   OH232223   0.582   4.742   1.363 -1.1381 -0.0755  0.1676
 3603TIP3    H132224   0.494   4.718   1.334 -0.9259 -0.2972 -0.3032
 3603TIP3    H232225   0.640   4.692   1.307 -0.6779  1.4343 -0.7546
 3604TIP3   OH232226   3.862   0.107   2.804 -0.3033  0.3868 -0.2883
 3604TIP3    H132227   3.782   0.159   2.801  1.2786  2.9821 -1.9631
 3604TIP3    H232228   3.888   0.096   2.712  1.3411 -0.2127  0.2056
 3605TIP3   OH232229   2.537   3.576   3.545 -0.1191  0.2449 -0.4113
 3605TIP3    H132230   2.521   3.487   3.513  0.1098 -0.6271  1.7707
 3605TIP3    H232231   2.575   3.622   3.470  1.3599 -1.9815 -1.1061
 3606TIP3   OH232232   0.771   5.529   5.970 -0.1774 -0.0527  0.2623
 3606TIP3    H132233   0.707   5.581   6.018 -0.2400  0.0220  0.0978
 3606TIP3    H232234   0.752   5.439   5.996 -1.0791 -0.1417 -0.6251
 3607TIP3   OH232235   6.328   3.789  11.142  0.0389  0.3867  0.0253
 3607TIP3    H132236   6.244   3.833  11.126  0.9096  2.5932  1.0928
 3607TIP3    H232237   6.379   3.852  11.193  1.8567 -1.4393  0.6226
 3608TIP3   OH232238   1.907   3.977  12.214  0.3424  0.0554  0.5081
 3608TIP3    H132239   1.952   3.899  12.182 -0.9066 -0.9119  1.0527
 3608TIP3    H232240   1.840   3.995  12.148  0.8223  0.8680  0.2249
 3609TIP3   OH232241   2.011   2.535  13.082 -0.5924  0.2251  0.1459
 3609TIP3    H132242   1.956   2.485  13.142 -1.6621 -0.6137 -1.4619
 3609TIP3    H232243   2.053   2.468  13.027 -0.2921  0.9920 -0.5739
 3610TIP3   OH232244   5.475   5.335   4.459  0.3078 -0.2463 -0.1292
 3610TIP3    H132245   5.455   5.286   4.539  0.1221 -2.4803 -1.4775
 3610TIP3    H232246   5.403   5.315   4.400 -1.0491  3.5536 -0.0731
 3611TIP3   OH232247   1.314   6.377   2.871  0.2625 -0.5819 -0.5019
 3611TIP3    H132248   1.264   6.421   2.802  0.3059  1.0607  0.4686
 3611TIP3    H232249   1.287   6.285   2.865 -1.2053 -0.1310 -1.4256
 3612TIP3   OH232250   3.018   6.100  12.324  0.0261  0.1149 -0.0143
 3612TIP3    H132251   2.966   6.153  12.264  0.0265 -0.1595 -0.2605
 3612TIP3    H232252   3.098   6.081  12.276 -0.6252 -1.4302 -0.5589
 3613TIP3   OH232253   3.310   6.379   2.068 -0.7808  0.1886 -0.0027
 3613TIP3    H132254   3.352   6.393   1.983 -1.7952  0.9897 -0.3825
 3613TIP3    H232255   3.218   6.365   2.047 -0.7743 -1.2545  0.8465
 3614TIP3   OH232256   4.201   5.083   1.478 -0.0734  0.6792 -0.3145
 3614TIP3    H132257   4.162   5.153   1.426 -0.6339  0.1091 -0.6791
 3614TIP3    H232258   4.219   5.123   1.563  0.4052  1.4937 -0.7816
 3615TIP3   OH232259   4.692   3.684  14.992  0.4729 -0.2772  0.2424
 3615TIP3    H132260   4.648   3.708  14.911  3.7114 -0.8585 -1.9068
 3615TIP3    H232261   4.683   3.760  15.048 -0.0954  1.0088 -1.5029
 3616TIP3   OH232262   4.556   0.994   4.035  0.3384 -0.0042 -0.1928
 3616TIP3    H132263   4.532   0.919   3.981 -0.1739  0.0813 -0.0899
 3616TIP3    H232264   4.510   1.068   3.994 -1.1428 -0.1500  1.1180
 3617TIP3   OH232265   5.523   6.081   2.599  0.3040  0.0009  0.2197
 3617TIP3    H132266   5.536   6.169   2.565 -2.3986  1.1811  1.8952
 3617TIP3    H232267   5.429   6.066   2.592  0.6916 -2.8150 -0.0558
 3618TIP3   OH232268   5.769   4.410   0.273  0.4270 -0.0497 -0.5503
 3618TIP3    H132269   5.847   4.465   0.260 -0.3101  1.2336  0.2525
 3618TIP3    H232270   5.712   4.430   0.199 -0.3387  1.1869  0.3430
 3619TIP3   OH232271   1.603   3.122   3.872 -0.0268  0.4796  0.6159
 3619TIP3    H132272   1.544   3.050   3.850  1.6781 -0.5524 -0.7986
 3619TIP3    H232273   1.561   3.200   3.834 -0.1296 -0.3434 -1.0371
 3620TIP3   OH232274   2.765   2.614   2.974 -0.0521 -0.1724  0.5944
 3620TIP3    H132275   2.689   2.665   2.944  0.4289  0.4781  0.4672
 3620TIP3    H232276   2.779   2.550   2.904 -0.7846 -0.6273  0.8496
 3621TIP3   OH232277   6.299   4.308   4.163  0.0453 -0.0813  0.2864
 3621TIP3    H132278   6.270   4.220   4.141 -1.4366  0.7996 -1.5230
 3621TIP3    H232279   6.314   4.305   4.258 -2.8435 -1.5355  0.8219
 3622TIP3   OH232280   4.776   4.493   4.852  0.1854  0.1947 -1.0413
 3622TIP3    H132281   4.761   4.577   4.896  0.1549  0.0200 -0.7123
 3622TIP3    H232282   4.703   4.484   4.791 -0.4462 -0.1263 -0.2574
 3623TIP3   OH232283   3.454   6.247   5.689  0.1000  0.1938 -0.4205
 3623TIP3    H132284   3.431   6.279   5.776 -1.3020 -2.3813  0.2693
 3623TIP3    H232285   3.417   6.311   5.628 -0.9438  0.8192  0.8407
 3624TIP3   OH232286   5.094   6.225   3.854  0.1214  0.0303 -0.5202
 3624TIP3    H132287   5.174   6.269   3.826  0.5242 -0.0356  0.4824
 3624TIP3    H232288   5.118   6.182   3.936 -0.8381 -0.3096 -0.4091
 3625TIP3   OH232289   4.091   1.148   0.962  0.0297 -0.3369 -0.4991
 3625TIP3    H132290   4.122   1.062   0.934  0.6100 -0.2584 -0.1180
 3625TIP3    H232291   4.139   1.210   0.906 -0.6501 -0.2697 -1.0154
 3626TIP3   OH232292   5.166   1.504   1.610 -0.1305  0.3988  0.2198
 3626TIP3    H132293   5.262   1.504   1.617  0.0102  5.2623  1.3820
 3626TIP3    H232294   5.135   1.510   1.700 -1.5969 -0.4401 -0.1814
 3627TIP3   OH232295   1.885   2.600  14.901  0.3519 -0.0932  1.1736
 3627TIP3    H132296   1.936   2.598  14.820  0.9730 -1.1538  1.5754
 3627TIP3    H232297   1.824   2.528  14.894 -1.2395  1.2439  0.6444
 3628TIP3   OH232298   6.165   2.060  10.901 -0.2237  0.1356 -0.3934
 3628TIP3    H132299   6.210   2.044  10.984 -0.8455 -1.6533 -0.3627
 3628TIP3    H232300   6.074   2.035  10.918 -0.4663  0.2563 -1.4755
 3629TIP3   OH232301   1.547   1.153  12.342 -0.1084 -0.2594  0.5253
 3629TIP3    H132302   1.472   1.100  12.315 -0.0116 -0.7939  1.2520
 3629TIP3    H232303   1.508   1.236  12.371 -0.2694  0.0500 -0.5403
 3630TIP3   OH232304   1.687   0.882   4.730  0.0964 -0.3234 -0.6224
 3630TIP3    H132305   1.675   0.862   4.637 -0.8061 -0.6624 -0.4464
 3630TIP3    H232306   1.631   0.957   4.746 -0.0340 -0.4937 -0.2735
 3631TIP3   OH232307   4.117   1.148  15.100 -0.2349  0.4740  0.4453
 3631TIP3    H132308   4.107   1.068  15.049  2.2592  0.1143  0.4279
 3631TIP3    H232309   4.118   1.118  15.191  0.8388  0.4313  0.4327
 3632TIP3   OH232310   1.716   5.170  12.158 -0.0755  0.5309 -0.5299
 3632TIP3    H132311   1.739   5.206  12.072  1.4987  0.6883 -0.0567
 3632TIP3    H232312   1.798   5.137  12.194 -0.5393  1.2294  1.2845
 3633TIP3   OH232313   4.139   4.451  12.549  0.0097 -1.0356 -0.2146
 3633TIP3    H132314   4.150   4.511  12.475 -1.5222 -0.6680 -0.1885
 3633TIP3    H232315   4.201   4.482  12.615  0.2513 -0.3643 -0.7497
 3634TIP3   OH232316   3.113   4.071  12.443  0.0235  0.2821  0.1662
 3634TIP3    H132317   3.111   4.143  12.506 -1.3675  0.5236 -0.1115
 3634TIP3    H232318   3.045   4.094  12.379  0.7026 -0.4631 -0.8553
 3635TIP3   OH232319   6.679   2.279   3.364  0.6844 -0.2477 -0.1237
 3635TIP3    H132320   6.667   2.288   3.269 -1.7306 -0.9110  0.0431
 3635TIP3    H232321   6.597   2.239   3.394  1.6321 -0.5803  2.1778
 3636TIP3   OH232322   2.192   0.876   4.324  0.0124  0.1405 -0.8788
 3636TIP3    H132323   2.224   0.791   4.294 -1.3840 -1.7222  2.4086
 3636TIP3    H232324   2.260   0.907   4.384 -0.4884  0.2528 -0.3634
 3637TIP3   OH232325   3.181   1.019  13.043  0.2021  0.8580  0.7157
 3637TIP3    H132326   3.117   0.987  12.980 -0.3616 -1.1570  2.2243
 3637TIP3    H232327   3.176   1.115  13.035 -0.9082  0.6888 -1.2054
 3638TIP3   OH232328   2.678   0.203  14.695 -0.0054  0.6731  0.0761
 3638TIP3    H132329   2.649   0.133  14.636 -0.0317  0.9802 -0.2808
 3638TIP3    H232330   2.608   0.268  14.692 -0.4815  0.2391  1.2361
 3639TIP3   OH232331   2.853   3.925  12.205  0.4990 -0.2381 -0.0277
 3639TIP3    H132332   2.802   3.991  12.252  0.3956  0.0784 -0.5649
 3639TIP3    H232333   2.850   3.847  12.260  2.3130  0.7814  1.6394
 3640TIP3   OH232334   2.324   0.474   4.656 -0.3599 -0.3297 -0.6936
 3640TIP3    H132335   2.388   0.424   4.707 -0.0904  1.3954  0.7357
 3640TIP3    H232336   2.247   0.417   4.653 -0.3729 -0.5358  1.6336
 3641TIP3   OH232337   0.729   3.620  12.563 -0.1988  0.1639  0.6787
 3641TIP3    H132338   0.714   3.549  12.626  1.1678 -0.7698  0.0070
 3641TIP3    H232339   0.755   3.694  12.617 -0.6505 -0.1316  1.3251
 3642TIP3   OH232340   1.225   3.186   2.833  0.1922  0.1096 -0.1489
 3642TIP3    H132341   1.207   3.170   2.925  0.0345  0.9263 -0.0347
 3642TIP3    H232342   1.148   3.233   2.801  1.0689  1.5587 -0.2211
 3643TIP3   OH232343   6.042   3.445  11.655 -0.1776 -0.8309  0.0900
 3643TIP3    H132344   6.058   3.482  11.742  0.6239 -2.3595  0.6237
 3643TIP3    H232345   6.125   3.457  11.609 -0.6818  0.2276 -0.6055
 3644TIP3   OH232346   3.288   0.403   4.613  0.3668  0.1278  0.8211
 3644TIP3    H132347   3.239   0.470   4.661  0.1076 -0.7124  1.7638
 3644TIP3    H232348   3.376   0.406   4.652  0.3196 -0.1476  0.9566
 3645TIP3   OH232349   2.094   0.477   2.350  0.4232 -0.0781 -0.2495
 3645TIP3    H132350   2.173   0.465   2.403  1.1082 -0.8288 -1.3893
 3645TIP3    H232351   2.087   0.396   2.299  1.0841  1.4759 -2.9678
 3646TIP3   OH232352   2.830   5.421   1.013  0.3566 -0.0554  0.3214
 3646TIP3    H132353   2.808   5.507   1.048  0.0695  0.2372 -0.5464
 3646TIP3    H232354   2.904   5.391   1.065  1.3236  1.2999 -0.2488
 3647TIP3   OH232355   2.392   5.866   1.349 -0.5045 -0.0869 -0.0719
 3647TIP3    H132356   2.437   5.939   1.391  1.0156 -0.6255 -0.6907
 3647TIP3    H232357   2.357   5.902   1.268  0.6022 -0.1231 -0.5778
 3648TIP3   OH232358   2.794   4.252  16.411  0.7740 -0.2748 -0.3073
 3648TIP3    H132359   2.755   4.297  16.486  0.3177 -0.6454 -0.3187
 3648TIP3    H232360   2.887   4.273  16.417  0.5130  1.0021 -0.5476
 3649TIP3   OH232361   2.662   4.152   5.458  0.2474 -0.5161 -0.1152
 3649TIP3    H132362   2.693   4.138   5.548  0.5782 -2.0283 -0.4451
 3649TIP3    H232363   2.735   4.196   5.414  0.0987  0.1957  0.3367
 3650TIP3   OH232364   0.481   4.803   1.042 -0.4133 -0.1815 -0.0552
 3650TIP3    H132365   0.467   4.886   1.088 -1.4443 -0.1564 -0.3829
 3650TIP3    H232366   0.525   4.827   0.961 -1.7425  0.2157 -0.6968
 3651TIP3   OH232367   6.283   1.963  15.494  0.2458 -0.2751 -0.5739
 3651TIP3    H132368   6.262   1.950  15.587 -1.4781  1.5580 -0.6287
 3651TIP3    H232369   6.205   2.006  15.458  1.4341  0.3458 -2.5566
 3652TIP3   OH232370   4.035   6.802  11.071  0.0631  0.2400 -0.6534
 3652TIP3    H132371   4.004   6.823  11.158  1.4066  0.5574 -0.2288
 3652TIP3    H232372   4.062   6.710  11.076 -0.5687  0.0322 -0.9539
 3653TIP3   OH232373   6.314   5.249  10.380  0.0745  0.5219  0.3628
 3653TIP3    H132374   6.305   5.344  10.387  0.7361  0.5172  1.7551
 3653TIP3    H232375   6.371   5.226  10.453 -0.6160 -1.0306  0.4422
 3654TIP3   OH232376   1.411   0.542  12.653  0.7030  0.2152 -0.2681
 3654TIP3    H132377   1.462   0.622  12.639 -0.0660  0.6703 -0.5275
 3654TIP3    H232378   1.455   0.476  12.598  0.1655  0.9633 -1.6519
 3655TIP3   OH232379   1.294   0.242   1.458  0.3793  0.5113 -0.1294
 3655TIP3    H132380   1.203   0.217   1.445  0.2472  1.0161 -0.2083
 3655TIP3    H232381   1.322   0.275   1.372  1.2261 -1.4423 -0.6362
 3656TIP3   OH232382   2.802   5.265  13.141 -0.1634 -0.4286  0.2065
 3656TIP3    H132383   2.774   5.218  13.063  2.0486 -2.6279  0.5867
 3656TIP3    H232384   2.854   5.200  13.190 -2.2991  0.4697  4.0450
 3657TIP3   OH232385   4.461   1.263  16.233 -0.4274 -0.0325 -0.0929
 3657TIP3    H132386   4.423   1.201  16.171 -0.0958 -0.6470  0.3110
 3657TIP3    H232387   4.546   1.226  16.256 -1.1061 -0.5375  1.7738
 3658TIP3   OH232388   0.059   1.645  15.501  0.5342 -0.4123 -0.5110
 3658TIP3    H132389   0.083   1.664  15.591 -1.3910  0.2813 -0.0920
 3658TIP3    H232390   0.122   1.578  15.473  1.5666 -0.1762  1.1141
 3659TIP3   OH232391   4.904   0.644   0.745 -0.0664 -0.1410 -0.3491
 3659TIP3    H132392   4.933   0.606   0.829 -0.7160  0.3512  0.1074
 3659TIP3    H232393   4.872   0.569   0.695  0.5426 -0.4740 -0.2565
 3660TIP3   OH232394   0.704   2.192  15.077 -0.0254  0.5470  0.0994
 3660TIP3    H132395   0.706   2.283  15.046  0.3471  0.4724 -0.1100
 3660TIP3    H232396   0.614   2.178  15.107 -1.7185 -0.5710 -4.5911
 3661TIP3   OH232397   2.574   0.719  14.430  0.3333 -0.0509  0.4119
 3661TIP3    H132398   2.565   0.784  14.360 -0.3404 -0.7472 -0.1570
 3661TIP3    H232399   2.659   0.737  14.469  0.3149  0.9406  0.0198
 3662TIP3   OH232400   1.057   4.877  11.153  0.4164 -0.2357  0.2821
 3662TIP3    H132401   1.055   4.795  11.105  0.7931  0.1714 -0.4473
 3662TIP3    H232402   1.121   4.862  11.223  1.2964 -0.2343 -0.4914
 3663TIP3   OH232403   4.410   5.315  15.155  0.1576  0.2850 -0.5618
 3663TIP3    H132404   4.494   5.348  15.122 -0.2972  2.1861  0.0253
 3663TIP3    H232405   4.420   5.316  15.250  0.0526 -1.2123 -0.5084
 3664TIP3   OH232406   0.941   6.734  15.967  0.1876 -0.4064  0.3025
 3664TIP3    H132407   0.877   6.789  16.012  0.8133  0.6354 -0.0529
 3664TIP3    H232408   0.981   6.682  16.037 -0.1608 -0.1545  0.6933
 3665TIP3   OH232409   5.363   1.539   3.570 -0.4731  0.1775  0.0597
 3665TIP3    H132410   5.347   1.447   3.590  0.7746 -0.1878 -0.5447
 3665TIP3    H232411   5.316   1.554   3.488 -0.3280 -0.0428 -0.0657
 3666TIP3   OH232412   0.887   0.256  13.586  0.0228 -0.3922 -0.4297
 3666TIP3    H132413   0.823   0.189  13.612 -0.4539  0.4408  0.6392
 3666TIP3    H232414   0.837   0.338  13.587  0.3920 -0.0913 -2.4846
 3667TIP3   OH232415   6.368   6.812   4.891 -0.1344 -0.2718  0.6396
 3667TIP3    H132416   6.299   6.878   4.893 -0.2490 -0.3976  0.8237
 3667TIP3    H232417   6.371   6.777   4.980 -0.0806 -0.5217  0.5407
 3668TIP3   OH232418   1.211   2.330   5.352  0.1364  0.0567  0.1719
 3668TIP3    H132419   1.153   2.379   5.410  1.0970 -0.1304  1.3260
 3668TIP3    H232420   1.295   2.377   5.356  0.1235  0.3033 -1.4352
 3669TIP3   OH232421   0.293   3.771  13.454 -0.1942 -0.3198  0.5068
 3669TIP3    H132422   0.380   3.809  13.461 -0.7732  1.2759 -0.2429
 3669TIP3    H232423   0.290   3.733  13.366 -0.4638  0.2557  0.2591
 3670TIP3   OH232424   2.331   0.310   0.686  0.3185  0.9800  0.8313
 3670TIP3    H132425   2.386   0.379   0.723 -2.1949  1.6232  3.8815
 3670TIP3    H232426   2.263   0.358   0.638 -0.0124  0.4892  0.8050
 3671TIP3   OH232427   5.638   6.368  11.354  0.0567 -0.1132 -0.5653
 3671TIP3    H132428   5.561   6.420  11.375 -0.1286 -0.2631 -0.8519
 3671TIP3    H232429   5.693   6.371  11.432 -0.9643 -1.2943  0.2295
 3672TIP3   OH232430   3.897   0.172  13.709  0.1328  0.3146  0.5209
 3672TIP3    H132431   3.883   0.266  13.716 -0.8445  0.2485 -0.2576
 3672TIP3    H232432   3.895   0.154  13.615 -0.0634 -0.5350  0.6767
 3673TIP3   OH232433   3.161   3.704   5.341 -0.3121 -0.0097 -0.4454
 3673TIP3    H132434   3.094   3.641   5.366 -0.9617  0.8668  0.0703
 3673TIP3    H232435   3.206   3.726   5.422  0.5830 -0.5395 -0.7747
 3674TIP3   OH232436   2.338   3.108   5.471 -0.8033 -0.0130  0.0453
 3674TIP3    H132437   2.286   3.029   5.484  0.3232 -0.5698  1.4730
 3674TIP3    H232438   2.402   3.083   5.403 -1.0385 -0.0192 -0.1749
 3675TIP3   OH232439   4.456   3.381   0.143  0.3199 -0.0558  0.5996
 3675TIP3    H132440   4.530   3.324   0.121 -0.3311 -1.7617  2.5105
 3675TIP3    H232441   4.383   3.345   0.093  0.3622  0.5095  0.1156
 3676TIP3   OH232442   0.766   0.605   6.369 -0.3792 -0.1452 -0.0287
 3676TIP3    H132443   0.686   0.554   6.378 -0.9569  0.9424  1.2663
 3676TIP3    H232444   0.821   0.577   6.442  0.2836 -0.6163 -0.6957
 3677TIP3   OH232445   2.220   2.884  15.150  0.1758  0.4523  0.0835
 3677TIP3    H132446   2.215   2.865  15.056  1.6139  0.1739  0.0307
 3677TIP3    H232447   2.247   2.976  15.154  3.7267 -0.4249  0.0649
 3678TIP3   OH232448   2.793   3.353   0.915  0.0769  0.4866 -0.0210
 3678TIP3    H132449   2.714   3.312   0.879 -0.0591  1.9906 -1.5411
 3678TIP3    H232450   2.822   3.293   0.984 -1.0536 -1.2938 -1.0210
 3679TIP3   OH232451   6.124   2.319  17.040  0.6392  0.1536  0.3523
 3679TIP3    H132452   6.169   2.378  17.102  1.2866  1.2341 -1.0863
 3679TIP3    H232453   6.077   2.378  16.981  0.8335 -0.7912 -0.7811
 3680TIP3   OH232454   5.116   2.119  13.708  0.1445  0.5302 -0.1863
 3680TIP3    H132455   5.201   2.083  13.682  0.3012  0.1771  0.7737
 3680TIP3    H232456   5.052   2.066  13.660  0.4393  0.1715 -0.1901
 3681TIP3   OH232457   2.857   1.746  10.854 -0.6675  0.1146  0.6920
 3681TIP3    H132458   2.853   1.652  10.838 -0.0209  0.1961  0.0167
 3681TIP3    H232459   2.826   1.785  10.773  1.1802  0.5123  0.1351
 3682TIP3   OH232460   1.098   5.498   0.097 -0.3022  0.2743 -0.1321
 3682TIP3    H132461   1.168   5.494   0.163 -0.6125  0.9581  0.2562
 3682TIP3    H232462   1.118   5.428   0.035  0.9533  0.7186 -0.2498
 3683TIP3   OH232463   4.275   3.460   5.901  0.4671 -0.4569  0.1091
 3683TIP3    H132464   4.189   3.418   5.908  0.2243  0.0986  0.5395
 3683TIP3    H232465   4.299   3.450   5.809 -1.0115  1.2163 -0.5039
 3684TIP3   OH232466   1.933   1.373  11.441  0.4029  0.4053 -0.1183
 3684TIP3    H132467   2.008   1.316  11.427  0.3031  0.1682  0.3141
 3684TIP3    H232468   1.929   1.426  11.361  0.1940 -0.5275 -0.7428
 3685TIP3   OH232469   0.086   1.945  15.914  0.5248  0.3793  0.1716
 3685TIP3    H132470   0.049   1.928  16.000  0.5968  0.0142  0.1311
 3685TIP3    H232471   0.157   2.007  15.930  0.4466  0.4221  0.3571
 3686TIP3   OH232472   6.225   1.084  13.854 -0.3948  0.7646  0.4019
 3686TIP3    H132473   6.146   1.125  13.890 -0.4790  0.3668  0.6739
 3686TIP3    H232474   6.193   1.032  13.780 -0.8745 -1.8933  2.3494
 3687TIP3   OH232475   4.053   6.251  15.520  0.4082  0.1589 -0.1122
 3687TIP3    H132476   4.033   6.328  15.574 -1.6485 -0.9245  0.7550
 3687TIP3    H232477   3.989   6.254  15.449 -0.9605 -1.7126  0.9655
 3688TIP3   OH232478   4.960   1.793   1.770  0.1052 -0.2314  0.2049
 3688TIP3    H132479   4.981   1.884   1.753  0.3961 -0.2777  0.3101
 3688TIP3    H232480   4.997   1.776   1.857 -0.8627 -0.1513  0.6539
 3689TIP3   OH232481   1.507   4.902  11.658  0.8107  0.4041  0.1763
 3689TIP3    H132482   1.531   4.995  11.666  1.1921  0.3316 -0.1063
 3689TIP3    H232483   1.518   4.882  11.565  3.6579 -0.6928  0.6641
 3690TIP3   OH232484   5.808   5.358   5.996 -0.2537 -0.5332  0.0359
 3690TIP3    H132485   5.876   5.327   6.055 -0.1884 -1.1089 -0.3348
 3690TIP3    H232486   5.820   5.307   5.916 -1.3579 -0.9120  0.0928
 3691TIP3   OH232487   6.585   2.076   5.376 -0.1662  0.6125  0.3357
 3691TIP3    H132488   6.563   2.155   5.326 -0.4906  0.1260 -0.3165
 3691TIP3    H232489   6.544   2.089   5.461 -0.4806  1.0157  0.1242
 3692TIP3   OH232490   1.334   0.159  12.111  0.2224  0.4509  0.0613
 3692TIP3    H132491   1.268   0.130  12.048  0.4241  0.0757  0.0216
 3692TIP3    H232492   1.299   0.241  12.146  0.6923  1.3272 -1.4393
 3693TIP3   OH232493   2.738   1.666   3.719  0.5670 -0.2893 -0.0290
 3693TIP3    H132494   2.826   1.700   3.735  0.4932  0.4409 -1.1246
 3693TIP3    H232495   2.680   1.737   3.746  0.3297 -0.5143  0.0547
 3694TIP3   OH232496   2.885   1.644   0.159 -0.7508  0.4088 -0.0940
 3694TIP3    H132497   2.915   1.709   0.222  2.3062  0.1127 -1.0809
 3694TIP3    H232498   2.896   1.560   0.204  1.3634  0.2031 -0.8742
 3695TIP3   OH232499   6.565   3.930   5.708 -0.2107  0.0079  0.3922
 3695TIP3    H132500   6.488   3.982   5.684 -0.9733 -1.4034 -0.3414
 3695TIP3    H232501   6.634   3.994   5.724 -1.6546  1.3477  1.5488
 3696TIP3   OH232502   3.823   3.659   1.244  0.5664  0.5500  0.0370
 3696TIP3    H132503   3.860   3.747   1.247  0.0216  0.9070 -2.0438
 3696TIP3    H232504   3.863   3.614   1.318  2.4671  1.9339 -0.0659
 3697TIP3   OH232505   4.503   0.140   5.444 -0.0145  0.6692  0.4185
 3697TIP3    H132506   4.516   0.183   5.359  0.7142 -0.4923 -0.0830
 3697TIP3    H232507   4.569   0.071   5.446 -1.7234 -1.0274  0.8026
 3698TIP3   OH232508   0.132   1.725  15.762  0.3681 -0.8965  0.1321
 3698TIP3    H132509   0.215   1.771  15.751  1.3853 -2.5441  0.5810
 3698TIP3    H232510   0.089   1.771  15.834  1.9149 -1.3873  1.4115
 3699TIP3   OH232511   5.969   3.245   1.958 -0.3990 -0.0230  0.1020
 3699TIP3    H132512   5.918   3.324   1.942 -0.3443 -0.2360 -1.3304
 3699TIP3    H232513   6.045   3.254   1.900 -0.4081 -1.1223 -0.1015
 3700TIP3   OH232514   3.371   0.000   4.467 -0.2004 -0.7130 -0.4693
 3700TIP3    H132515   3.331  -0.079   4.431 -2.6291  0.9372 -1.6854
 3700TIP3    H232516   3.401   0.049   4.389 -0.0117  0.1990  0.1562
 3701TIP3   OH232517   4.973   1.507  12.168 -0.4050 -0.1893 -0.5539
 3701TIP3    H132518   5.062   1.541  12.175 -0.4071 -0.4722  1.4204
 3701TIP3    H232519   4.978   1.418  12.203 -1.3804 -0.3371 -0.7530
 3702TIP3   OH232520   0.330   5.232   3.045  0.5709  0.3958  0.2427
 3702TIP3    H132521   0.408   5.288   3.040  0.1555  0.9662  0.0148
 3702TIP3    H232522   0.270   5.280   3.103 -0.5399  1.1261 -1.4449
 3703TIP3   OH232523   3.491   2.641  10.541  0.2743  0.2930 -0.4453
 3703TIP3    H132524   3.484   2.713  10.603  0.2091 -1.4018  1.6019
 3703TIP3    H232525   3.584   2.616  10.543 -0.0055 -0.7473  0.1449
 3704TIP3   OH232526   1.976   1.476   5.546  0.1190 -0.0948 -0.1995
 3704TIP3    H132527   1.950   1.406   5.605  1.1243 -0.4728 -0.1831
 3704TIP3    H232528   2.017   1.542   5.602  0.6355 -0.2363 -0.3990
 3705TIP3   OH232529   5.903   1.423  12.160  0.2623 -0.4266 -0.2187
 3705TIP3    H132530   5.831   1.380  12.205 -0.1118  0.1045 -0.3025
 3705TIP3    H232531   5.977   1.416  12.221 -0.4572  1.0247  0.8871
 3706TIP3   OH232532   3.144   4.509  11.516  0.0648 -0.4038  0.4298
 3706TIP3    H132533   3.062   4.458  11.516  0.1526 -0.5957  1.7363
 3706TIP3    H232534   3.210   4.447  11.548  0.6641 -0.1622 -0.3305
 3707TIP3   OH232535   6.137   0.234  16.136 -0.0772 -0.1008  0.0235
 3707TIP3    H132536   6.069   0.182  16.093  0.5246 -0.1046 -0.9519
 3707TIP3    H232537   6.211   0.173  16.144  0.0601  0.1158  0.4307
 3708TIP3   OH232538   1.291   3.727   0.542 -0.1110  0.1664 -0.3871
 3708TIP3    H132539   1.230   3.678   0.488 -1.2371  0.5820  0.4755
 3708TIP3    H232540   1.375   3.720   0.496 -0.5560 -1.3296 -1.0213
 3709TIP3   OH232541   3.334   1.131   5.138 -0.2819 -0.3457 -0.6967
 3709TIP3    H132542   3.390   1.132   5.060  2.1509 -0.2183  0.9206
 3709TIP3    H232543   3.364   1.207   5.189 -0.6211 -1.3620  1.0980
 3710TIP3   OH232544   5.399   2.799  12.499 -0.2569 -0.0714  0.0394
 3710TIP3    H132545   5.476   2.777  12.551 -0.2943  2.2281  1.1702
 3710TIP3    H232546   5.333   2.735  12.527  1.3585 -2.5935 -1.5346
 3711TIP3   OH232547   0.700   2.794   6.173  0.0342 -0.2541  0.5667
 3711TIP3    H132548   0.781   2.744   6.182 -0.0918 -0.7959 -1.0572
 3711TIP3    H232549   0.632   2.728   6.162 -0.5146  0.2231  1.0491
 3712TIP3   OH232550   3.234   5.533   1.790  0.1418 -0.3318 -0.1298
 3712TIP3    H132551   3.306   5.526   1.728 -1.0630  1.8331 -1.9017
 3712TIP3    H232552   3.227   5.627   1.808  0.0647 -0.8231  2.8936
 3713TIP3   OH232553   0.813   5.857   4.903  0.3136  0.0599  0.4160
 3713TIP3    H132554   0.738   5.818   4.948  0.3545  1.3933  1.6884
 3713TIP3    H232555   0.880   5.865   4.970  1.5481 -0.8779 -0.6512
 3714TIP3   OH232556   6.413   4.737   0.293  0.5088  0.5700  0.1220
 3714TIP3    H132557   6.492   4.729   0.345  0.2259  1.8523  0.8039
 3714TIP3    H232558   6.390   4.648   0.269  0.9065 -0.0164  1.8238
 3715TIP3   OH232559   0.850   0.417  14.190 -0.0355  0.0889  0.3608
 3715TIP3    H132560   0.759   0.392  14.178 -0.1526 -0.0098  1.4330
 3715TIP3    H232561   0.852   0.511  14.174 -0.5437  0.3011  1.5028
 3716TIP3   OH232562   4.536   3.529  12.000 -0.3760 -0.0895 -0.0877
 3716TIP3    H132563   4.632   3.537  12.000 -0.2862 -0.8558  1.7002
 3716TIP3    H232564   4.504   3.618  12.011  0.1745  0.0213  0.6830
 3717TIP3   OH232565   0.221   4.562  12.433 -0.1909  0.2250 -0.0717
 3717TIP3    H132566   0.238   4.532  12.344 -0.2592  0.3477 -0.1263
 3717TIP3    H232567   0.140   4.613  12.427 -0.6371 -0.4348  0.2075
 3718TIP3   OH232568   0.735   1.647   2.738  0.2356 -0.2974  0.2765
 3718TIP3    H132569   0.704   1.664   2.649 -0.6286  2.0122  0.9260
 3718TIP3    H232570   0.694   1.564   2.763 -1.3026  0.1195 -0.7341
 3719TIP3   OH232571   2.141   5.053  13.313  0.1918 -0.0557 -0.7777
 3719TIP3    H132572   2.209   5.025  13.252  0.9058  0.0210 -0.0332
 3719TIP3    H232573   2.102   5.130  13.272  0.0793 -0.5021 -1.5346
 3720TIP3   OH232574   2.792   4.549  14.613  0.2721 -0.1887  0.2084
 3720TIP3    H132575   2.860   4.522  14.675  0.3999 -1.2405 -0.3580
 3720TIP3    H232576   2.831   4.537  14.527  0.3022  1.8277 -0.0997
 3721TIP3   OH232577   6.723   5.855  11.844 -0.0857  0.4654 -0.2552
 3721TIP3    H132578   6.646   5.865  11.900 -0.1412 -0.4439 -0.1458
 3721TIP3    H232579   6.688   5.847  11.756 -0.3623 -2.3069 -0.0056
 3722TIP3   OH232580   3.917   6.695  13.041 -0.8648  0.7327  0.1205
 3722TIP3    H132581   3.862   6.620  13.018 -0.0343 -0.7135  2.5144
 3722TIP3    H232582   4.006   6.666  13.025 -0.5383  1.2348  0.9414
 3723TIP3   OH232583   4.083   2.893   3.336  0.6775 -0.0330 -0.8961
 3723TIP3    H132584   4.120   2.836   3.403  0.3902  0.8590  0.0398
 3723TIP3    H232585   4.002   2.850   3.309  0.4390 -0.0509 -0.1606
 3724TIP3   OH232586   4.057   5.474   2.166  0.0707  0.2692  0.1385
 3724TIP3    H132587   4.007   5.510   2.239  1.2395  0.8577  0.6700
 3724TIP3    H232588   4.120   5.543   2.143  0.3317 -0.2632 -0.8250
 3725TIP3   OH232589   0.249   6.285   0.459  0.3047  0.3008 -0.2252
 3725TIP3    H132590   0.274   6.319   0.545 -1.9581  0.1427  0.5438
 3725TIP3    H232591   0.241   6.191   0.472  0.3024  0.2307 -0.7172
 3726TIP3   OH232592   6.443   4.574  11.857  0.2043  0.3779  0.5258
 3726TIP3    H132593   6.525   4.619  11.838  0.3871 -0.5257 -0.9297
 3726TIP3    H232594   6.440   4.501  11.795 -0.9400 -0.5534  1.6234
 3727TIP3   OH232595   0.703   2.450  15.007  0.0039  0.1627  0.0368
 3727TIP3    H132596   0.662   2.494  14.932 -0.1330 -0.1038 -0.0463
 3727TIP3    H232597   0.716   2.520  15.071 -1.3293  0.1131  0.3929
 3728TIP3   OH232598   6.818   2.937   4.838 -0.6096  0.3345 -0.3627
 3728TIP3    H132599   6.829   2.931   4.933  0.5603 -0.1018 -0.5120
 3728TIP3    H232600   6.776   3.023   4.825  0.4919  1.0285  0.4594
 3729TIP3   OH232601   0.682   0.944  14.441 -0.0121 -0.3454  0.0304
 3729TIP3    H132602   0.701   1.000  14.517  0.5155 -0.9559  0.3616
 3729TIP3    H232603   0.696   1.000  14.365  0.8849 -0.1272  0.3452
 3730TIP3   OH232604   5.253   3.458  11.763 -0.0571  0.7972 -0.2735
 3730TIP3    H132605   5.336   3.435  11.720 -0.5434 -1.9621  0.0868
 3730TIP3    H232606   5.188   3.404  11.718 -1.5261  2.1533  0.1527
 3731TIP3   OH232607   5.674   1.121   0.888 -0.3552 -0.4769  0.2200
 3731TIP3    H132608   5.629   1.117   0.972  1.9908 -0.0332  1.5725
 3731TIP3    H232609   5.647   1.205   0.850 -2.2687 -1.1631 -0.0251
 3732TIP3   OH232610   4.974   5.538   0.627 -0.3747 -0.8780 -0.6526
 3732TIP3    H132611   4.884   5.509   0.646 -0.5171 -0.6732 -1.0075
 3732TIP3    H232612   5.023   5.516   0.706 -1.0790  0.4901  0.2174
 3733TIP3   OH232613   5.966   6.137  14.961 -0.2191  0.2458 -0.0141
 3733TIP3    H132614   6.003   6.180  14.884  2.2798 -0.0227  0.9408
 3733TIP3    H232615   5.878   6.173  14.969 -0.5762  0.2659 -2.9711
 3734TIP3   OH232616   2.711   3.579  14.157 -0.9003  0.0322 -0.1810
 3734TIP3    H132617   2.637   3.631  14.188 -0.8498 -0.1843  0.3129
 3734TIP3    H232618   2.782   3.602  14.217 -0.7805 -0.3411 -0.1778
 3735TIP3   OH232619   1.042   1.792   0.697  0.1686 -0.1039  0.6488
 3735TIP3    H132620   1.113   1.779   0.634 -1.1025  1.0627 -1.0938
 3735TIP3    H232621   1.061   1.729   0.767  2.2818 -0.6100 -0.2889
 3736TIP3   OH232622   4.041   2.275   1.129  0.2316  0.1067  0.2645
 3736TIP3    H132623   4.042   2.252   1.222  1.2069 -1.1536 -0.0308
 3736TIP3    H232624   3.989   2.205   1.088  2.5029 -1.2278 -0.5349
 3737TIP3   OH232625   0.395   2.047   4.430 -0.5174 -0.5111 -0.0901
 3737TIP3    H132626   0.482   2.024   4.462  0.2607  4.2809  2.0841
 3737TIP3    H232627   0.337   1.982   4.470  1.6428 -1.0753  2.3870
 3738TIP3   OH232628   3.131   4.971   0.170 -0.1496  0.2692  0.1758
 3738TIP3    H132629   3.134   5.044   0.231  0.4850  0.4856 -0.0993
 3738TIP3    H232630   3.130   4.893   0.225  0.5549  0.4581  0.4693
 3739TIP3   OH232631   3.720   2.367  15.341 -0.2981  0.2670 -0.1619
 3739TIP3    H132632   3.745   2.358  15.249  0.1543 -1.3073  0.0849
 3739TIP3    H232633   3.642   2.423  15.339 -0.8860 -0.5369 -1.6025
 3740TIP3   OH232634   2.001   1.847  16.659  0.3641 -0.4906 -0.0423
 3740TIP3    H132635   2.089   1.811  16.647  0.3961 -0.7163  0.8300
 3740TIP3    H232636   2.005   1.893  16.742 -0.1214  0.2002 -0.3854
 3741TIP3   OH232637   4.605   2.394  15.694  0.0483 -0.1640  0.1829
 3741TIP3    H132638   4.678   2.357  15.645 -0.7174 -1.8861  0.2792
 3741TIP3    H232639   4.598   2.484  15.663  2.5539  0.2440  0.5979
 3742TIP3   OH232640   2.109   3.795   1.864 -0.0240  0.1758 -0.5429
 3742TIP3    H132641   2.100   3.824   1.955 -0.5331  2.3029 -1.1949
 3742TIP3    H232642   2.144   3.872   1.818  0.6346 -0.9852 -2.0765
 3743TIP3   OH232643   1.518   1.563   0.491  0.2059  0.1250  0.2625
 3743TIP3    H132644   1.541   1.473   0.515 -2.5447 -1.2078 -1.5218
 3743TIP3    H232645   1.536   1.569   0.398 -1.5565  0.6715 -0.0917
 3744TIP3   OH232646   5.882   1.655   2.989 -0.1746 -0.2930 -0.4375
 3744TIP3    H132647   5.897   1.718   3.059 -0.9641 -1.4397  0.8123
 3744TIP3    H232648   5.899   1.570   3.028  2.2643 -0.8532 -2.4838
 3745TIP3   OH232649   1.177   6.675   3.737 -0.2206 -0.0525 -0.4499
 3745TIP3    H132650   1.086   6.706   3.745 -0.0669  0.4472 -0.5870
 3745TIP3    H232651   1.212   6.681   3.826 -0.4681 -0.7324 -0.2972
 3746TIP3   OH232652   3.522   6.543   3.253  0.8240 -0.1743 -0.3669
 3746TIP3    H132653   3.603   6.534   3.304  0.4856 -1.3605  0.0051
 3746TIP3    H232654   3.467   6.601   3.305  1.7576  1.3774 -1.0620
 3747TIP3   OH232655   5.528   2.420   2.891 -0.2480  0.0408  0.2225
 3747TIP3    H132656   5.574   2.502   2.909 -0.9806  0.6741 -0.6844
 3747TIP3    H232657   5.579   2.353   2.937  1.5783  0.6884 -0.7588
 3748TIP3   OH232658   4.533   2.379   5.836  0.5964 -0.0105  0.2540
 3748TIP3    H132659   4.585   2.455   5.807 -1.4572  2.0018  1.5021
 3748TIP3    H232660   4.550   2.374   5.930 -0.1397 -0.4112  0.3668
 3749TIP3   OH232661   2.471   6.354   1.980  1.2382  0.1757  0.5715
 3749TIP3    H132662   2.431   6.404   1.909  0.6078 -1.4153 -0.2274
 3749TIP3    H232663   2.467   6.413   2.056 -0.6590  0.8584 -0.0013
 3750TIP3   OH232664   3.479   3.396  16.795  0.4422  0.1091  0.4091
 3750TIP3    H132665   3.506   3.488  16.786 -1.1980  0.4490 -1.9462
 3750TIP3    H232666   3.404   3.398  16.854 -0.2054  0.4290 -0.4187
 3751TIP3   OH232667   1.770   5.952  12.054  0.2572 -0.6091 -0.4426
 3751TIP3    H132668   1.697   6.009  12.029  1.2899  0.5807 -0.8261
 3751TIP3    H232669   1.728   5.874  12.090 -1.2302 -0.7190 -2.2747
 3752TIP3   OH232670   3.106   2.741  11.276 -0.3480 -0.8435 -0.6210
 3752TIP3    H132671   3.144   2.825  11.252 -2.6344  0.1408 -1.0885
 3752TIP3    H232672   3.175   2.677  11.259  1.3200  0.8732 -0.6215
 3753TIP3   OH232673   0.921   3.841  11.930 -0.5153 -0.3231  0.5940
 3753TIP3    H132674   1.001   3.883  11.899 -1.3838  0.6995 -0.3481
 3753TIP3    H232675   0.873   3.910  11.976 -2.1082 -0.1275 -1.2421
 3754TIP3   OH232676   1.254   1.335  14.341  0.0066  0.4680 -0.2898
 3754TIP3    H132677   1.239   1.426  14.317 -2.0551  0.4617  0.8236
 3754TIP3    H232678   1.330   1.337  14.399  0.6421  1.3121 -1.1245
 3755TIP3   OH232679   4.773   5.032  14.579 -0.0935 -1.1267 -0.0948
 3755TIP3    H132680   4.792   5.100  14.644 -1.0248  0.0795 -1.0345
 3755TIP3    H232681   4.706   4.978  14.621 -2.3261  0.9194 -0.7648
 3756TIP3   OH232682   1.765   0.484   4.694 -0.0196 -0.3790  0.4755
 3756TIP3    H132683   1.688   0.532   4.665  0.5494 -0.4217 -1.2497
 3756TIP3    H232684   1.780   0.513   4.784 -0.2035  2.0204 -0.2145
 3757TIP3   OH232685   4.380   2.169   5.727 -1.3864 -0.1879 -0.5044
 3757TIP3    H132686   4.402   2.094   5.782  1.1162 -0.1190 -1.2800
 3757TIP3    H232687   4.425   2.243   5.767 -2.2642  0.5393 -0.8217
 3758TIP3   OH232688   2.418   4.376  13.005 -0.0132  0.0877 -0.0581
 3758TIP3    H132689   2.417   4.283  12.981  1.6265 -0.0403  0.2584
 3758TIP3    H232690   2.336   4.411  12.970  0.5980 -0.8693 -2.6123
 3759TIP3   OH232691   0.734   1.642  14.949 -0.0082  0.8507 -0.1168
 3759TIP3    H132692   0.779   1.717  14.910 -1.1684  1.5457 -0.1638
 3759TIP3    H232693   0.669   1.680  15.008  0.8689 -0.1662  1.5849
 3760TIP3   OH232694   6.234   0.596   6.241  0.3037 -0.3119  0.2196
 3760TIP3    H132695   6.267   0.507   6.227 -0.2097 -0.6468  1.0241
 3760TIP3    H232696   6.287   0.630   6.313  1.4316  0.5608 -0.9965
 3761TIP3   OH232697   2.447   6.649  15.567  0.0620 -0.1499  0.5806
 3761TIP3    H132698   2.372   6.608  15.611 -0.5050 -0.4168 -0.5857
 3761TIP3    H232699   2.465   6.591  15.492  0.7382  0.5050  0.2280
 3762TIP3   OH232700   3.122   0.106   5.879  0.1712  0.1041 -0.0838
 3762TIP3    H132701   3.037   0.148   5.887 -0.1323 -0.5926  0.4746
 3762TIP3    H232702   3.103   0.012   5.883  0.7124 -0.1768 -2.3085
 3763TIP3   OH232703   4.643   2.201  15.299  0.2638 -0.0083 -0.0546
 3763TIP3    H132704   4.552   2.220  15.321 -0.4160 -0.0554 -2.4861
 3763TIP3    H232705   4.682   2.287  15.284 -0.3760 -0.0301 -2.3001
 3764TIP3   OH232706   2.474   0.649   4.951 -0.4606 -0.7783 -0.0476
 3764TIP3    H132707   2.505   0.640   4.861 -0.9029 -0.0830 -0.2761
 3764TIP3    H232708   2.409   0.719   4.947  0.0841 -0.1912  0.9426
 3765TIP3   OH232709   0.245   5.533   3.444  0.0267 -0.2659  0.0494
 3765TIP3    H132710   0.295   5.601   3.399  0.3191 -0.5878 -0.1132
 3765TIP3    H232711   0.205   5.578   3.519 -1.5823  0.5953 -1.2673
 3766TIP3   OH232712   1.934   3.969  16.162  0.1156 -0.0833 -0.0871
 3766TIP3    H132713   1.972   4.057  16.170  0.6269 -0.3754  0.8695
 3766TIP3    H232714   1.998   3.920  16.110 -1.3713  0.7579 -2.9274
 3767TIP3   OH232715   4.173   3.043  13.996  0.2180  0.3573  0.4156
 3767TIP3    H132716   4.182   3.012  13.905  0.8074 -1.5918  1.0925
 3767TIP3    H232717   4.127   3.127  13.988 -2.3731 -1.1014 -1.5121
 3768TIP3   OH232718   4.472   1.289  11.370  0.3476  0.0521 -0.3044
 3768TIP3    H132719   4.482   1.309  11.277  2.5316  1.2416  0.1111
 3768TIP3    H232720   4.456   1.373  11.411 -0.5292 -0.4526  0.4165
 3769TIP3   OH232721   4.866   3.431  16.705 -0.6162 -0.2492 -0.4514
 3769TIP3    H132722   4.935   3.414  16.768  0.7184  0.0324 -1.7835
 3769TIP3    H232723   4.907   3.487  16.638 -2.0680 -0.2272 -1.3769
 3770TIP3   OH232724   2.876   1.791  11.602 -0.3936  0.0250  0.4436
 3770TIP3    H132725   2.965   1.824  11.616 -0.1759  0.0655 -0.8386
 3770TIP3    H232726   2.888   1.716  11.543 -1.0682 -1.0372  1.6149
 3771TIP3   OH232727   1.841   1.435   2.618  0.7197  1.2825 -0.3449
 3771TIP3    H132728   1.868   1.514   2.666  0.8789  0.4421  0.9923
 3771TIP3    H232729   1.805   1.377   2.685  2.3539 -0.5693 -0.9744
 3772TIP3   OH232730   5.031   0.399  14.795 -0.1457 -0.2778 -0.1171
 3772TIP3    H132731   4.962   0.447  14.839 -0.2991 -1.1805  0.6758
 3772TIP3    H232732   4.993   0.373  14.711 -0.5616 -0.2529  0.0607
 3773TIP3   OH232733   0.571   3.820  11.376  0.3690 -0.0221  0.0371
 3773TIP3    H132734   0.651   3.844  11.329  0.3326  0.2569  0.1164
 3773TIP3    H232735   0.500   3.850  11.319  0.3246  0.8132  0.5143
 3774TIP3   OH232736   4.079   1.569   2.856 -0.0990  0.3618  0.4751
 3774TIP3    H132737   4.117   1.645   2.899 -1.5087  0.9714  0.7214
 3774TIP3    H232738   3.999   1.552   2.906 -0.8011 -0.0805 -0.7585
 3775TIP3   OH232739   2.909   2.248  12.089 -0.0236  0.0409  0.4092
 3775TIP3    H132740   2.830   2.207  12.126  0.5601 -0.3690  1.2299
 3775TIP3    H232741   2.878   2.293  12.011 -0.8323 -1.2821 -0.0555
 3776TIP3   OH232742   0.037   5.540  15.791 -0.0703 -0.3711  0.3607
 3776TIP3    H132743   0.122   5.497  15.792 -0.4870 -1.2316  1.5759
 3776TIP3    H232744  -0.013   5.491  15.726 -0.0327 -0.7180  0.5860
 3777TIP3   OH232745   1.249   4.257   1.087 -0.7110 -1.0201  0.0385
 3777TIP3    H132746   1.247   4.347   1.054  0.1149 -0.3040  1.8033
 3777TIP3    H232747   1.322   4.216   1.041 -1.0958 -0.8046 -0.7777
 3778TIP3   OH232748   2.177   5.121   5.748  0.0274  0.3753 -0.0505
 3778TIP3    H132749   2.173   5.036   5.793 -0.6819  0.8928  0.8883
 3778TIP3    H232750   2.138   5.183   5.809  0.9377  1.4708 -0.5429
 3779TIP3   OH232751   6.444   2.704  11.579 -0.5058  0.7893  0.2934
 3779TIP3    H132752   6.522   2.694  11.525  0.7229  0.9795  1.9763
 3779TIP3    H232753   6.422   2.797  11.574  0.2089  0.9977  0.9074
 3780TIP3   OH232754   2.493   4.444   1.193 -0.1169 -0.7158 -0.5538
 3780TIP3    H132755   2.522   4.524   1.238  1.1850 -0.5288 -1.6615
 3780TIP3    H232756   2.406   4.426   1.229  0.6753 -0.3446  1.7178
 3781TIP3   OH232757   4.784   3.425  14.880  0.5504  0.6206 -0.1537
 3781TIP3    H132758   4.814   3.512  14.852  2.3875  0.7605  1.9305
 3781TIP3    H232759   4.740   3.440  14.963  0.2920 -0.3627 -0.1005
 3782TIP3   OH232760   2.729   3.313   5.613 -0.2870 -0.3804  0.8569
 3782TIP3    H132761   2.823   3.299   5.612 -0.3877 -1.3029 -1.3333
 3782TIP3    H232762   2.715   3.384   5.676  1.5818 -1.8946  3.1238
 3783TIP3   OH232763   3.681   1.953  13.036 -0.0532 -0.3429  0.1884
 3783TIP3    H132764   3.623   1.979  13.107 -0.2583  0.8319 -0.3720
 3783TIP3    H232765   3.741   1.890  13.075  0.1212  0.6052  1.5187
 3784TIP3   OH232766   0.259   2.715   4.423  0.2643  0.2097 -0.1670
 3784TIP3    H132767   0.272   2.807   4.400  1.3569  0.2717  0.5925
 3784TIP3    H232768   0.165   2.700   4.411 -0.2269  1.8694  1.2170
 3785TIP3   OH232769   3.311   1.084  12.766 -0.4791  0.0156  0.2509
 3785TIP3    H132770   3.320   0.989  12.762 -1.3055 -0.0694  0.1441
 3785TIP3    H232771   3.310   1.104  12.860 -0.0394 -0.0489  0.2711
 3786TIP3   OH232772   5.277   0.270  15.138 -0.7644  0.6756 -0.7983
 3786TIP3    H132773   5.336   0.341  15.115  1.2192 -0.3327  0.7970
 3786TIP3    H232774   5.294   0.202  15.072 -0.3547  0.5129 -0.5303
 3787TIP3   OH232775   3.191   6.783  14.108  0.5087 -0.4961 -0.3089
 3787TIP3    H132776   3.252   6.711  14.092 -0.3396 -1.2576 -0.1672
 3787TIP3    H232777   3.216   6.817  14.194  0.7598 -0.7679 -0.2748
 3788TIP3   OH232778   4.673   0.923  12.659 -0.5214  0.2160 -0.6531
 3788TIP3    H132779   4.658   1.014  12.685 -0.2583 -0.1652  0.9215
 3788TIP3    H232780   4.585   0.885  12.649 -0.7266 -0.2304  2.0398
 3789TIP3   OH232781   1.992   5.892  14.473 -1.1133  0.4793  0.2618
 3789TIP3    H132782   2.027   5.937  14.397 -0.3177  0.2817  0.5033
 3789TIP3    H232783   1.932   5.826  14.437  1.0867 -1.3071 -0.3842
 3790TIP3   OH232784   0.917   3.509   4.235  0.1934  0.0288 -0.3563
 3790TIP3    H132785   0.935   3.603   4.240 -0.2048  0.0302  2.7797
 3790TIP3    H232786   1.002   3.467   4.247  0.1327  0.0166  0.0568
 3791TIP3   OH232787   3.699   6.039  16.637 -0.2642 -0.3144  0.0291
 3791TIP3    H132788   3.707   6.095  16.714 -1.0410 -1.9050  1.3231
 3791TIP3    H232789   3.612   6.058  16.603 -0.9832 -1.4930  1.1344
 3792TIP3   OH232790   1.204   5.742   0.192 -0.3899  0.0046 -0.1437
 3792TIP3    H132791   1.152   5.671   0.155 -1.3360  0.5999  0.0078
 3792TIP3    H232792   1.208   5.808   0.123 -0.1926  0.1400 -0.0042
 3793TIP3   OH232793   4.112   5.506  15.985  0.4300  0.1099 -0.5637
 3793TIP3    H132794   4.189   5.496  16.041 -0.6904 -1.8458  0.7475
 3793TIP3    H232795   4.065   5.580  16.022 -0.9326 -1.8970  2.0502
 3794TIP3   OH232796   1.196   0.667   5.731  0.3818 -0.5476  0.5382
 3794TIP3    H132797   1.251   0.681   5.654 -2.1008 -1.8441 -1.6718
 3794TIP3    H232798   1.219   0.579   5.761 -1.2658 -1.6597 -1.2304
 3795TIP3   OH232799   0.645   0.139   0.190  0.4775 -0.0354 -0.2151
 3795TIP3    H132800   0.663   0.048   0.213 -1.9389 -0.5368 -0.0977
 3795TIP3    H232801   0.571   0.163   0.245 -1.6704  0.6229 -3.1809
 3796TIP3   OH232802   2.918   3.242  16.986 -0.3917 -0.2936  0.1495
 3796TIP3    H132803   3.000   3.270  16.946  0.0226 -1.7852 -0.0949
 3796TIP3    H232804   2.938   3.230  17.078 -0.2620 -0.8568  0.0542
 3797TIP3   OH232805   4.019   1.181  16.220 -0.6372  0.3419 -0.0403
 3797TIP3    H132806   3.931   1.190  16.185 -0.3473 -0.7202 -1.1423
 3797TIP3    H232807   4.032   1.086  16.229  0.2173  0.5008  0.5448
 3798TIP3   OH232808   0.001   2.368  15.446  0.4986 -0.3692  0.1759
 3798TIP3    H132809  -0.063   2.358  15.375 -0.1783  0.1272  0.7039
 3798TIP3    H232810  -0.034   2.439  15.499  0.0303 -1.8805  2.0102
 3799TIP3   OH232811   2.996   6.658   3.337  0.1876 -0.3741  0.6360
 3799TIP3    H132812   3.046   6.723   3.287  1.1752 -1.2013  0.4982
 3799TIP3    H232813   2.995   6.692   3.427 -1.3366  0.9700  0.1417
 3800TIP3   OH232814   1.976   0.076   4.478 -0.3860  0.0570  0.4242
 3800TIP3    H132815   1.985   0.123   4.394 -3.1228  2.5147  1.3421
 3800TIP3    H232816   1.910   0.010   4.461  0.6675 -0.9603  0.1416
 3801TIP3   OH232817   3.903   4.666  15.259  0.3362  0.2265  0.3461
 3801TIP3    H132818   3.987   4.644  15.300 -0.2252  0.1309  1.4761
 3801TIP3    H232819   3.854   4.584  15.259 -0.2078  0.5386  0.8183
 3802TIP3   OH232820   4.692   0.725  16.410  0.4262  0.0174 -0.0898
 3802TIP3    H132821   4.656   0.714  16.321 -0.4334 -0.1899  0.2683
 3802TIP3    H232822   4.627   0.780  16.455  0.5174 -0.4402  0.6107
 3803TIP3   OH232823   5.040   3.040   0.010 -0.8387  0.3151 -0.1169
 3803TIP3    H132824   5.089   3.106   0.059 -1.6288  0.1165  0.9701
 3803TIP3    H232825   5.037   3.074  -0.080  0.2560  0.8968  0.0610
 3804TIP3   OH232826   4.114   2.261  15.355  0.0856 -0.6968  0.4243
 3804TIP3    H132827   4.059   2.205  15.410 -2.0662  0.1191 -0.7533
 3804TIP3    H232828   4.069   2.346  15.356  1.0802 -0.1247 -1.0001
 3805TIP3   OH232829   0.017   2.758  14.881 -0.1314 -0.3146 -0.3699
 3805TIP3    H132830  -0.065   2.734  14.926 -0.2188  1.4866  0.5059
 3805TIP3    H232831  -0.011   2.790  14.796 -0.4319  0.8660  0.1483
 3806TIP3   OH232832   1.085   2.463   4.238 -0.0422 -0.3552  0.0586
 3806TIP3    H132833   1.142   2.540   4.242 -0.8105  0.3412 -1.4641
 3806TIP3    H232834   1.007   2.489   4.287 -0.6651  0.2125 -1.1738
 3807TIP3   OH232835   3.704   6.620  14.091 -0.0733  0.1042 -0.5561
 3807TIP3    H132836   3.786   6.590  14.050 -0.6691 -0.3795 -1.4288
 3807TIP3    H232837   3.667   6.541  14.131  0.2839  0.4855  0.5795
 3808TIP3   OH232838   6.618   0.043   6.180  0.5071 -0.0906  0.1093
 3808TIP3    H132839   6.671   0.088   6.246 -1.2852  1.9036  0.3135
 3808TIP3    H232840   6.575   0.114   6.131 -1.9987 -1.5585  0.0108
 3809TIP3   OH232841   1.310   4.411  15.187  0.2263 -0.1604 -0.1376
 3809TIP3    H132842   1.345   4.491  15.227  1.4603  0.1023 -1.6635
 3809TIP3    H232843   1.379   4.382  15.128 -0.5797 -1.8676 -0.2905
 3810TIP3   OH232844   3.344   4.573   6.059  0.1691 -0.4996 -0.3266
 3810TIP3    H132845   3.413   4.599   6.119  0.1045  0.3523 -0.6074
 3810TIP3    H232846   3.372   4.607   5.974 -1.6963  1.9636 -0.0498
 3811TIP3   OH232847   6.398   4.852  16.513 -0.6634  0.0164  0.3912
 3811TIP3    H132848   6.359   4.766  16.531  0.5814 -0.5722  0.3531
 3811TIP3    H232849   6.329   4.900  16.468 -1.8191 -0.5180  1.5091
 3812TIP3   OH232850   6.494   1.627  11.477  0.0567 -0.2053  0.3280
 3812TIP3    H132851   6.399   1.632  11.490  0.1796  0.7439  0.9977
 3812TIP3    H232852   6.529   1.702  11.526  1.2685 -1.2762  1.1823
 3813TIP3   OH232853   1.164   6.299   3.739  0.7033  0.4982  0.6104
 3813TIP3    H132854   1.229   6.251   3.791  0.1670  0.9187  1.7005
 3813TIP3    H232855   1.212   6.326   3.661  0.7061 -2.8939 -0.7214
 3814TIP3   OH232856   4.216   5.575  16.595  0.0539  0.3628 -1.0414
 3814TIP3    H132857   4.173   5.543  16.516 -0.0350 -2.2023 -0.0515
 3814TIP3    H232858   4.308   5.586  16.569  0.2090 -1.3458 -1.3005
 3815TIP3   OH232859   2.477   3.725  14.243  0.2754  0.4589 -0.4317
 3815TIP3    H132860   2.482   3.812  14.282  0.2841  0.6200 -0.7829
 3815TIP3    H232861   2.393   3.725  14.196  0.9695  0.8424 -1.7357
 3816TIP3   OH232862   3.927   6.290   5.716 -0.6878 -0.3065 -0.0665
 3816TIP3    H132863   3.845   6.335   5.699 -0.2012  0.8172  0.4181
 3816TIP3    H232864   3.973   6.346   5.779 -0.3632 -1.8650  1.1565
 3817TIP3   OH232865   5.139   4.572  16.076 -0.2925  0.0545  0.0282
 3817TIP3    H132866   5.070   4.611  16.022  0.3671 -0.5128 -1.2683
 3817TIP3    H232867   5.220   4.609  16.041  0.2333 -1.2775 -0.2169
 3818TIP3   OH232868   4.727   2.493  11.359  0.2979  0.1807  0.5110
 3818TIP3    H132869   4.686   2.532  11.282  1.2536 -0.8466 -0.5552
 3818TIP3    H232870   4.782   2.563  11.395 -0.4543  0.7878  0.5211
 3819TIP3   OH232871   5.165   0.925   5.108 -0.0862  0.2937  0.3809
 3819TIP3    H132872   5.252   0.964   5.102  0.1823 -0.1673  1.1204
 3819TIP3    H232873   5.153   0.907   5.202 -0.7157 -0.2350  0.2099
 3820TIP3   OH232874   4.549   2.764   4.670 -0.4715  0.3064 -0.5231
 3820TIP3    H132875   4.547   2.847   4.623  2.1197  0.8780  0.1981
 3820TIP3    H232876   4.633   2.765   4.717  0.2174 -3.2161 -1.3813
 3821TIP3   OH232877   3.178   1.353  11.331 -0.4765  0.4439  0.2487
 3821TIP3    H132878   3.169   1.395  11.246  0.4727  0.1483 -0.0094
 3821TIP3    H232879   3.269   1.370  11.357 -0.3430 -0.6543  0.5633
 3822TIP3   OH232880   1.502   1.842   3.917 -1.1521  0.4653  0.1959
 3822TIP3    H132881   1.412   1.833   3.886 -0.6964 -2.5812 -0.5862
 3822TIP3    H232882   1.494   1.856   4.012 -2.4200  4.5821 -0.3060
 3823TIP3   OH232883   3.486   5.604  14.269  0.3572  0.4954 -0.2770
 3823TIP3    H132884   3.491   5.691  14.230  1.7058  0.8004  0.5019
 3823TIP3    H232885   3.531   5.614  14.354  1.6379 -1.2338 -0.6972
 3824TIP3   OH232886   5.700   4.831  13.919 -0.2881  0.5508  0.0463
 3824TIP3    H132887   5.697   4.901  13.854 -1.6754  0.3742 -0.1127
 3824TIP3    H232888   5.692   4.876  14.003  2.6474  0.8898  0.2576
 3825TIP3   OH232889   1.354   5.024   1.518 -0.6337 -0.3744  0.1524
 3825TIP3    H132890   1.320   5.002   1.431 -3.1371 -1.1469  1.2232
 3825TIP3    H232891   1.311   5.107   1.539 -0.7948 -0.6675  1.0101
 3826TIP3   OH232892   0.172   3.231  14.249 -0.1673  0.1271 -0.0225
 3826TIP3    H132893   0.154   3.138  14.258 -0.4984  0.0874 -0.9797
 3826TIP3    H232894   0.259   3.235  14.208 -0.2869  0.2289 -0.2691
 3827TIP3   OH232895   3.103   1.480   2.897 -0.2459  1.0246  0.0001
 3827TIP3    H132896   3.130   1.560   2.853  1.2133  0.0896 -0.9023
 3827TIP3    H232897   3.092   1.416   2.827  1.1670 -0.2306  0.8400
 3828TIP3   OH232898   2.903   2.502   5.569 -0.0752  0.1823  0.2523
 3828TIP3    H132899   2.831   2.501   5.506  0.2277  0.8470 -0.1145
 3828TIP3    H232900   2.921   2.595   5.583  0.4184  0.0237  0.6795
 3829TIP3   OH232901   4.692   5.751   1.280  0.0191  0.2947 -0.2354
 3829TIP3    H132902   4.782   5.726   1.258  0.2240 -0.6909  1.5788
 3829TIP3    H232903   4.638   5.691   1.229  0.4620 -1.0938  0.8720
 3830TIP3   OH232904   3.684   5.994   2.781 -0.0838 -0.4219 -0.4796
 3830TIP3    H132905   3.700   6.074   2.732  1.3470 -0.5003 -0.1783
 3830TIP3    H232906   3.705   6.016   2.872  1.7511 -1.4965 -0.6022
 3831TIP3   OH232907   3.124   6.767   2.482  0.4900  0.3846  0.3198
 3831TIP3    H132908   3.177   6.809   2.413  3.3147 -1.6570  1.0468
 3831TIP3    H232909   3.123   6.831   2.553 -0.2486  1.4737 -0.6271
 3832TIP3   OH232910   1.034   2.597  10.836  0.5034  0.1628 -0.4533
 3832TIP3    H132911   1.030   2.595  10.931 -1.3283 -1.1814 -0.5011
 3832TIP3    H232912   1.124   2.569  10.815  0.7322 -0.1419  0.8651
 3833TIP3   OH232913   3.867   5.382  16.904 -0.0448 -0.6726  0.0437
 3833TIP3    H132914   3.906   5.390  16.991 -2.6795  0.7799  1.2019
 3833TIP3    H232915   3.856   5.473  16.875  0.8860 -1.1375 -1.8935
 3834TIP3   OH232916   2.602   4.222   4.067 -0.1033  0.8582 -0.6971
 3834TIP3    H132917   2.518   4.236   4.021 -1.3853 -0.1945  1.1893
 3834TIP3    H232918   2.618   4.128   4.059 -0.4195  0.6350  1.0551
 3835TIP3   OH232919   1.903   1.833   0.470  0.6591  0.3444  0.2473
 3835TIP3    H132920   1.864   1.900   0.526 -0.8285 -0.4675  0.2421
 3835TIP3    H232921   1.835   1.814   0.405  2.2094  0.9942 -1.6307
 3836TIP3   OH232922   6.455   3.481  13.356 -0.0343 -0.1654 -0.2345
 3836TIP3    H132923   6.434   3.402  13.306 -1.3246 -0.7089  1.0690
 3836TIP3    H232924   6.550   3.490  13.349 -0.0576 -0.8452 -1.8162
 3837TIP3   OH232925   5.257   3.722  10.909  0.6871  0.7452  0.0692
 3837TIP3    H132926   5.165   3.723  10.935  0.7058 -1.5333  0.3848
 3837TIP3    H232927   5.256   3.732  10.814  0.0813  0.3750  0.0372
 3838TIP3   OH232928   2.026   5.662  16.929 -0.1817 -0.6543  0.3504
 3838TIP3    H132929   2.004   5.674  17.022  0.3136  1.9538  0.2054
 3838TIP3    H232930   1.946   5.687  16.883  0.7069  1.9167  0.0354
 3839TIP3   OH232931   4.344   6.264  15.871 -0.5115  0.1069  0.6507
 3839TIP3    H132932   4.266   6.219  15.840 -1.1612  1.4008  0.3962
 3839TIP3    H232933   4.365   6.328  15.804 -0.1942  0.8934  1.4746
 3840TIP3   OH232934   1.179   6.255  16.931  0.1355  0.2822 -0.1780
 3840TIP3    H132935   1.138   6.244  17.018 -0.5231 -0.8802 -0.6067
 3840TIP3    H232936   1.121   6.315  16.885  1.0476  1.7408  0.5120
 3841TIP3   OH232937   3.300   5.599  16.494 -0.1593  0.4358 -0.4701
 3841TIP3    H132938   3.246   5.677  16.508  0.0696  0.6399 -0.7084
 3841TIP3    H232939   3.366   5.603  16.563  1.4050  1.8229 -1.9731
 3842TIP3   OH232940   5.469   3.737   3.352 -0.0034  0.5304  0.2531
 3842TIP3    H132941   5.445   3.748   3.260  0.1067 -2.1093 -0.1657
 3842TIP3    H232942   5.420   3.805   3.398 -1.9180  0.4258 -1.5077
 3843TIP3   OH232943   4.485   5.628   4.821 -0.2241  0.3682  0.9047
 3843TIP3    H132944   4.473   5.720   4.847  1.5694  1.1513 -0.7767
 3843TIP3    H232945   4.580   5.614   4.824 -0.2383 -0.6097 -1.3510
 3844TIP3   OH232946   1.427   3.093   1.343  0.3419  0.3397 -0.1843
 3844TIP3    H132947   1.342   3.096   1.387  1.5370  0.4300  2.2847
 3844TIP3    H232948   1.443   3.000   1.328 -0.4736  0.3624 -1.3332
 3845TIP3   OH232949   5.230   6.634  12.134 -0.2333  0.2309  0.6650
 3845TIP3    H132950   5.305   6.694  12.136  1.1778 -1.4451  1.1135
 3845TIP3    H232951   5.198   6.638  12.044  1.5826 -0.3601 -0.0473
 3846TIP3   OH232952   6.345   5.730   2.702  0.4600  0.4246 -1.0661
 3846TIP3    H132953   6.370   5.820   2.681  0.5401  0.1673 -2.1231
 3846TIP3    H232954   6.277   5.709   2.639  1.7197 -0.8676 -2.0646
 3847TIP3   OH232955   2.440   5.737  13.770  0.4223 -0.2557 -0.0436
 3847TIP3    H132956   2.515   5.741  13.711  0.8268 -2.8245  0.1533
 3847TIP3    H232957   2.403   5.650  13.754 -1.5796  0.3606  0.9887
 3848TIP3   OH232958   4.436   3.667  13.131 -0.0659 -0.4080  0.3468
 3848TIP3    H132959   4.445   3.736  13.066  0.3462 -1.3153 -0.5872
 3848TIP3    H232960   4.411   3.713  13.212  0.1225  0.8067 -0.2640
 3849TIP3   OH232961   6.017   5.183   2.945 -0.7557  0.6002  0.0428
 3849TIP3    H132962   6.042   5.181   3.037  0.5431  1.8688 -0.2454
 3849TIP3    H232963   5.930   5.222   2.945 -1.2464 -0.4305  0.7889
 3850TIP3   OH232964   0.984   5.443  15.791  0.1756 -0.4871 -0.3239
 3850TIP3    H132965   0.958   5.435  15.699 -0.2425  2.5251 -0.5550
 3850TIP3    H232966   0.908   5.413  15.840 -0.7014  0.5702 -0.9966
 3851TIP3   OH232967   3.288   1.865  14.725  0.6517 -0.5005 -0.6587
 3851TIP3    H132968   3.379   1.884  14.749  0.6080  1.6237 -1.9125
 3851TIP3    H232969   3.248   1.834  14.806  1.5343  2.3537  0.9971
 3852TIP3   OH232970   6.635   3.311  15.229 -0.2260  0.0495  0.2677
 3852TIP3    H132971   6.603   3.260  15.304 -0.9807  1.5498  1.0100
 3852TIP3    H232972   6.720   3.344  15.257  0.5469 -1.2598 -0.4505
 3853TIP3   OH232973   4.776   5.617  10.678  0.0975 -0.1177  0.0553
 3853TIP3    H132974   4.711   5.682  10.653  0.9059  1.0679  0.9314
 3853TIP3    H232975   4.841   5.619  10.608  1.1888  1.5605  1.0561
 3854TIP3   OH232976   2.570   0.632  12.126 -0.0600  0.3210 -0.7224
 3854TIP3    H132977   2.637   0.564  12.138  0.6106  0.8471 -1.3464
 3854TIP3    H232978   2.526   0.607  12.044 -0.1939  0.3277 -0.6515
 3855TIP3   OH232979   3.868   3.437   4.411  0.3791  0.1995 -0.3478
 3855TIP3    H132980   3.911   3.447   4.326 -0.4411  0.2165 -0.7731
 3855TIP3    H232981   3.807   3.364   4.398 -0.4109  0.7889 -0.0572
 3856TIP3   OH232982   1.705   2.299   0.582 -0.1625 -0.2069 -0.0170
 3856TIP3    H132983   1.780   2.336   0.629 -1.5726 -0.2442  2.4329
 3856TIP3    H232984   1.734   2.293   0.491  2.8482 -0.3918  0.8509
 3857TIP3   OH232985   3.183   1.414  11.058 -0.4129  0.5556 -0.2444
 3857TIP3    H132986   3.254   1.439  10.999 -0.7509 -0.6433 -1.2119
 3857TIP3    H232987   3.121   1.487  11.054 -0.0814  0.8131 -0.8029
 3858TIP3   OH232988   5.814   1.395   0.068  0.0030 -0.1271  0.2656
 3858TIP3    H132989   5.837   1.413  -0.023 -1.8690  0.9678 -0.0528
 3858TIP3    H232990   5.860   1.314   0.089  2.2572  0.7561 -0.9114
 3859TIP3   OH232991   2.695   3.704   3.306 -0.5482 -0.3247  0.0769
 3859TIP3    H132992   2.608   3.741   3.320 -0.4624 -0.0793 -0.0190
 3859TIP3    H232993   2.737   3.765   3.244  0.7748  1.3133  2.4088
 3860TIP3   OH232994   0.889   0.283   6.183 -0.2974  0.2962  0.1288
 3860TIP3    H132995   0.966   0.339   6.171 -0.7631  0.6821 -1.2708
 3860TIP3    H232996   0.922   0.206   6.229  0.8753  0.5767 -0.2199
 3861TIP3   OH232997   0.724   2.358   4.800  0.2037  0.0657 -0.3432
 3861TIP3    H132998   0.808   2.402   4.787  0.6274 -0.9277 -1.1454
 3861TIP3    H232999   0.681   2.362   4.715 -0.6756  0.7639  0.1200
 3862TIP3   OH233000   1.857   6.679  16.585  0.0901  0.6763  0.1884
 3862TIP3    H133001   1.791   6.656  16.519 -1.5627  1.2464  1.5637
 3862TIP3    H233002   1.881   6.769  16.564  0.9460  0.2559 -0.7035
 3863TIP3   OH233003   1.772   3.799  15.227  0.2902 -0.7644  0.3372
 3863TIP3    H133004   1.709   3.830  15.163  0.5101  0.6799  0.7831
 3863TIP3    H233005   1.857   3.824  15.192  0.4264 -0.1469  1.0788
 3864TIP3   OH233006   3.417   5.858  14.811  0.0747  0.4911 -0.1450
 3864TIP3    H133007   3.378   5.785  14.762 -0.3422 -0.1986  1.1544
 3864TIP3    H233008   3.460   5.816  14.886 -0.3063  1.5813  0.7200
 3865TIP3   OH233009   0.190   6.580   4.583 -0.2177 -0.3167 -0.1072
 3865TIP3    H133010   0.113   6.614   4.537 -0.1417  0.2058  0.1453
 3865TIP3    H233011   0.155   6.542   4.663 -0.1416  0.6540  0.4045
 3866TIP3   OH233012   4.934   1.868   5.003 -0.1973  0.3141  0.6871
 3866TIP3    H133013   4.843   1.897   4.997 -0.5999 -0.9341  0.5046
 3866TIP3    H233014   4.963   1.860   4.912 -0.0235  0.3341  0.7398
 3867TIP3   OH233015   4.781   0.163   1.708 -0.5619  0.1251 -0.0438
 3867TIP3    H133016   4.779   0.150   1.803 -0.9114 -3.7266 -0.3995
 3867TIP3    H233017   4.836   0.240   1.695  0.6064 -0.0096  3.2259
 3868TIP3   OH233018   6.476   6.780   1.014 -0.4703  0.1554  0.4744
 3868TIP3    H133019   6.502   6.856   1.066  1.1100  0.8518 -1.1924
 3868TIP3    H233020   6.439   6.817   0.934  1.3198 -0.7158 -0.8508
 3869TIP3   OH233021   5.929   4.017   0.008  0.3130  0.4189 -0.7483
 3869TIP3    H133022   5.843   4.053   0.027  0.2538  0.9233 -1.9248
 3869TIP3    H233023   5.985   4.094  -0.006  1.0177  0.1063  0.2365
 3870TIP3   OH233024   2.403   4.397  13.484 -0.0286  0.7299 -0.3031
 3870TIP3    H133025   2.433   4.367  13.570  1.1302 -1.0786 -1.2614
 3870TIP3    H233026   2.406   4.492  13.489  0.7790  0.6462  1.4056
 3871TIP3   OH233027   5.434   6.342  14.330 -0.0334 -0.5855 -0.2694
 3871TIP3    H133028   5.510   6.375  14.282 -0.4414 -0.0078 -0.5262
 3871TIP3    H233029   5.432   6.394  14.410 -0.7567  0.1141 -0.7368
 3872TIP3   OH233030   3.620   1.698   2.005 -0.2688  0.8601 -0.3752
 3872TIP3    H133031   3.714   1.703   2.021 -0.0595 -0.2846 -1.1204
 3872TIP3    H233032   3.603   1.606   1.987 -1.5486  1.0384 -0.1983
 3873TIP3   OH233033   1.750   6.752   1.126  0.0041  0.2015 -0.0587
 3873TIP3    H133034   1.672   6.763   1.180 -0.4450 -0.1744 -0.6084
 3873TIP3    H233035   1.799   6.682   1.168 -1.4906 -1.7626 -1.3543
 3874TIP3   OH233036   5.154   5.615   4.379 -0.1350 -0.6297 -0.5793
 3874TIP3    H133037   5.068   5.655   4.381  0.3691  0.6792 -2.4725
 3874TIP3    H233038   5.207   5.669   4.437 -0.3873 -0.9229 -0.0758
 3875TIP3   OH233039   3.229   4.206   0.838 -0.2139  0.2333  0.3085
 3875TIP3    H133040   3.220   4.137   0.772  0.3646  0.3358  0.1190
 3875TIP3    H233041   3.164   4.183   0.905  2.1938 -2.4337  1.9566
 3876TIP3   OH233042   4.350   3.624  16.454 -0.0092 -0.4545 -0.4511
 3876TIP3    H133043   4.261   3.598  16.429 -0.2957  0.3896 -0.3539
 3876TIP3    H233044   4.352   3.718  16.436  0.9821 -0.5366 -0.7816
 3877TIP3   OH233045   2.188   4.033  15.255 -0.2761 -0.0803 -0.5920
 3877TIP3    H133046   2.115   4.094  15.252 -1.7956 -1.7930 -0.4562
 3877TIP3    H233047   2.235   4.055  15.335  0.5305  2.2585 -1.6344
 3878TIP3   OH233048   5.173   6.100   4.751 -0.3589  0.2819  0.2942
 3878TIP3    H133049   5.222   6.080   4.671 -1.3881  2.4219 -0.9372
 3878TIP3    H233050   5.236   6.086   4.822  1.3973  0.9073 -1.0896
 3879TIP3   OH233051   2.566   0.062   4.853 -0.2435 -0.3427 -0.1303
 3879TIP3    H133052   2.495   0.064   4.917 -0.3534  1.4898 -0.2324
 3879TIP3    H233053   2.540  -0.004   4.790 -1.2157 -0.6354  0.5507
 3880TIP3   OH233054   2.415   6.528   5.317 -0.5812 -0.2860  0.5185
 3880TIP3    H133055   2.482   6.597   5.312  0.1692 -0.9344  1.3252
 3880TIP3    H233056   2.413   6.503   5.410 -0.4917 -1.6870  0.1644
 3881TIP3   OH233057   0.866   4.498   4.338 -0.5452  0.1076  0.1418
 3881TIP3    H133058   0.949   4.474   4.296 -0.4544 -0.1099  0.4450
 3881TIP3    H233059   0.801   4.443   4.294 -0.6470  0.8462 -0.6469
 3882TIP3   OH233060   6.102   1.586   2.323  0.0951 -0.2240  0.5072
 3882TIP3    H133061   6.104   1.550   2.235  1.8228 -0.9524  0.7991
 3882TIP3    H233062   6.021   1.637   2.327 -1.2163 -2.0866 -0.7248
 3883TIP3   OH233063   2.900   4.671   0.505  0.3676  0.4982  0.0839
 3883TIP3    H133064   2.904   4.622   0.423  2.1697  1.5252 -0.4862
 3883TIP3    H233065   2.836   4.623   0.558 -0.1258 -0.7393 -1.5402
 3884TIP3   OH233066   2.070   1.932   4.483 -0.1627 -0.2614  0.0631
 3884TIP3    H133067   2.110   2.014   4.512 -0.3384  0.3059 -1.2312
 3884TIP3    H233068   2.050   1.885   4.564  0.0265  0.9307  0.8259
 3885TIP3   OH233069   1.587   0.102   4.232  0.3503  0.0925 -0.0678
 3885TIP3    H133070   1.662   0.156   4.257  1.7903 -1.7452 -0.2551
 3885TIP3    H233071   1.587   0.029   4.294 -1.3867  0.1084  0.0082
 3886TIP3   OH233072   3.820   0.625  15.675  0.1272 -0.5799 -0.2888
 3886TIP3    H133073   3.830   0.584  15.761 -2.5249 -1.8149 -0.4399
 3886TIP3    H233074   3.869   0.707  15.681  1.2779 -1.3446  1.8575
 3887TIP3   OH233075   4.503   5.461   5.135 -0.2325  0.5316 -0.3268
 3887TIP3    H133076   4.586   5.467   5.182 -1.0086 -0.0798  1.1957
 3887TIP3    H233077   4.522   5.405   5.060  0.6253 -0.0076  0.2742
 3888TIP3   OH233078   6.810   4.061  12.764 -0.1319 -0.5209  0.1769
 3888TIP3    H133079   6.808   4.068  12.669 -0.3301  1.3482  0.2807
 3888TIP3    H233080   6.880   3.997  12.782 -1.0671 -2.0012 -1.2253
 3889TIP3   OH233081   3.178   2.106   5.529  0.1896  0.0941  0.7705
 3889TIP3    H133082   3.239   2.155   5.474  1.1683 -0.1447  1.6033
 3889TIP3    H233083   3.155   2.167   5.599  2.2581 -0.8631  2.4290
 3890TIP3   OH233084   0.496   3.004  14.294  0.2685  0.2570 -0.0210
 3890TIP3    H133085   0.543   2.966  14.368 -0.9240 -1.3266 -0.0183
 3890TIP3    H233086   0.514   2.945  14.221  0.0778  0.8704 -0.5763
 3891TIP3   OH233087   5.644   0.595   5.673 -0.1297 -0.2100  0.2001
 3891TIP3    H133088   5.729   0.553   5.659  0.6116  0.4014  2.4013
 3891TIP3    H233089   5.642   0.667   5.610  1.4440  0.3529  0.7494
 3892TIP3   OH233090   6.772   3.839  12.473  0.6066 -0.2572 -0.2173
 3892TIP3    H133091   6.756   3.934  12.469 -1.3380 -0.5750 -0.7136
 3892TIP3    H233092   6.825   3.821  12.395 -1.3290  0.0461 -1.6642
 3893TIP3   OH233093   5.592   4.344   4.870 -0.4162  0.8936  0.2578
 3893TIP3    H133094   5.604   4.400   4.947 -0.2503 -0.2404  1.0833
 3893TIP3    H233095   5.540   4.397   4.809  0.1117  2.0973  0.8277
 3894TIP3   OH233096   1.628   6.733   3.144  0.6187 -0.4742  0.2811
 3894TIP3    H133097   1.601   6.654   3.096  2.0188 -0.1773 -1.0746
 3894TIP3    H233098   1.596   6.719   3.233 -2.6082 -0.8106 -0.7719
 3895TIP3   OH233099   1.906   5.453  13.550 -0.2181  0.6517  0.1035
 3895TIP3    H133100   1.868   5.422  13.632  0.6949  0.8415  0.6143
 3895TIP3    H233101   1.851   5.414  13.482 -0.5022 -0.1795  0.7835
 3896TIP3   OH233102   0.157   3.481  15.793  0.5221  0.1754  0.3005
 3896TIP3    H133103   0.081   3.487  15.735 -1.5044  1.0922  2.8337
 3896TIP3    H233104   0.145   3.399  15.841  0.2628  1.0253  1.7546
 3897TIP3   OH233105   6.766   1.594  13.132 -0.4365 -0.7005 -0.3938
 3897TIP3    H133106   6.795   1.506  13.156 -1.7325 -0.8203  0.8059
 3897TIP3    H233107   6.683   1.580  13.086 -0.1499 -0.1566 -1.0980
 3898TIP3   OH233108   1.106   0.852  14.230 -0.1031  0.1373  0.7409
 3898TIP3    H133109   1.145   0.937  14.248 -2.3484  1.0219  1.8150
 3898TIP3    H233110   1.051   0.866  14.153 -0.1446 -0.4581  0.6566
 3899TIP3   OH233111   4.114   4.809   5.557  0.2986 -0.3770 -0.0254
 3899TIP3    H133112   4.050   4.880   5.562  0.3622 -0.3349  0.1871
 3899TIP3    H233113   4.193   4.845   5.595 -0.1246 -1.0775  1.5900
 3900TIP3   OH233114   2.082   0.055   3.462 -0.1384  0.4702  0.5629
 3900TIP3    H133115   2.111   0.141   3.433  2.0530 -0.4628 -0.2166
 3900TIP3    H233116   2.016   0.029   3.396  1.1584  0.4672 -0.7857
 3901TIP3   OH233117   3.324   4.656   1.680  0.7370 -0.0055  0.5156
 3901TIP3    H133118   3.350   4.608   1.601 -2.3014  0.1521 -0.7401
 3901TIP3    H233119   3.378   4.735   1.679  0.5188  0.1989 -1.6904
 3902TIP3   OH233120   6.119   5.510   5.689  0.1552  0.5486  0.7040
 3902TIP3    H133121   6.214   5.502   5.691  0.0830 -0.6531  0.2307
 3902TIP3    H233122   6.093   5.514   5.781  0.5741 -0.4808  0.8787
 3903TIP3   OH233123   6.736   3.009   1.066 -0.0230 -0.0079 -0.1899
 3903TIP3    H133124   6.651   3.002   1.109 -0.7807 -1.2977 -1.7629
 3903TIP3    H233125   6.784   2.932   1.096  0.1298  0.0729 -0.2275
 3904TIP3   OH233126   1.387   4.699  13.652  0.2631 -0.3255  0.0560
 3904TIP3    H133127   1.396   4.623  13.594 -0.4011 -0.5522  0.2448
 3904TIP3    H233128   1.334   4.760  13.601  1.2738  0.2562 -0.3239
 3905TIP3   OH233129   2.982   5.694   0.798 -1.0092  0.1862 -0.4645
 3905TIP3    H133130   3.017   5.605   0.786  1.5490  1.3688 -2.8945
 3905TIP3    H233131   3.000   5.716   0.889  0.9298 -0.7877 -0.5743
 3906TIP3   OH233132   3.834   3.540   4.143  0.5142 -0.1581  0.0285
 3906TIP3    H133133   3.885   3.478   4.090 -1.3219  1.3533 -3.9213
 3906TIP3    H233134   3.749   3.498   4.154  0.5358  0.0102  0.8749
 3907TIP3   OH233135   5.171   2.832  16.836  0.4662  0.1840 -0.3446
 3907TIP3    H133136   5.214   2.907  16.878 -0.0075 -0.4334  1.3061
 3907TIP3    H233137   5.190   2.758  16.894 -2.7127 -0.1487  0.4517
 3908TIP3   OH233138   1.824   2.521   2.737  0.1364 -0.1410  0.0853
 3908TIP3    H133139   1.731   2.528   2.717  0.1837  0.2038 -0.0062
 3908TIP3    H233140   1.827   2.503   2.831  0.0034  0.6667  0.2521
 3909TIP3   OH233141   0.003   5.117   4.987  0.3469  0.4599  0.0313
 3909TIP3    H133142   0.070   5.183   5.004 -0.5529  1.5065 -0.3695
 3909TIP3    H233143  -0.080   5.161   5.006 -0.2283 -0.9127  0.8431
 3910TIP3   OH233144   6.445   2.769  14.544 -0.2821 -0.8244 -0.4484
 3910TIP3    H133145   6.483   2.837  14.600  0.8771  0.0737 -2.2159
 3910TIP3    H233146   6.351   2.773  14.563 -0.3165  1.5873 -0.7683
 3911TIP3   OH233147   2.120   3.853  11.174  0.9227 -0.4575  0.2015
 3911TIP3    H133148   2.160   3.888  11.094  0.4227 -1.8826 -0.6988
 3911TIP3    H233149   2.078   3.772  11.147  0.4129 -0.7838  1.8507
 3912TIP3   OH233150   6.800   2.127  16.189 -0.1305 -0.0632 -0.3652
 3912TIP3    H133151   6.854   2.166  16.258 -2.3253 -1.1684  2.1215
 3912TIP3    H233152   6.812   2.033  16.199 -0.5677 -0.2591 -1.4805
 3913TIP3   OH233153   3.956   2.773   2.128  0.2788 -0.3458 -0.0074
 3913TIP3    H133154   3.986   2.862   2.147  1.8521 -1.0054  0.7490
 3913TIP3    H233155   3.981   2.758   2.037 -1.6935  0.6130 -0.7661
 3914TIP3   OH233156   3.165   4.933  15.885  0.0969 -0.1676  0.0441
 3914TIP3    H133157   3.081   4.896  15.913 -0.2796 -0.9686 -1.9761
 3914TIP3    H233158   3.229   4.865  15.902  0.0205 -0.2944 -0.1707
 3915TIP3   OH233159   0.667   4.276  15.698 -0.2487  0.0900  0.2431
 3915TIP3    H133160   0.633   4.186  15.695 -1.1280  0.3676  1.1843
 3915TIP3    H233161   0.640   4.315  15.615 -2.1546  0.2412  0.8794
 3916TIP3   OH233162   0.445   3.237  13.350 -0.4053  0.3892  0.0541
 3916TIP3    H133163   0.388   3.303  13.391 -1.1252  0.6264 -1.2579
 3916TIP3    H233164   0.406   3.223  13.263  1.2554  0.1890 -0.7014
 3917TIP3   OH233165   2.411   3.220  11.769 -0.1129  0.4135  0.2572
 3917TIP3    H133166   2.496   3.191  11.736  0.2533  1.6863  0.0039
 3917TIP3    H233167   2.424   3.231  11.863  0.4721  2.0489  0.0120
 3918TIP3   OH233168   6.509   0.305   4.619  0.0505  0.0271 -0.5856
 3918TIP3    H133169   6.557   0.247   4.679 -0.5823  0.4589  0.3640
 3918TIP3    H233170   6.566   0.312   4.542  1.5204  0.5370  0.5063
 3919TIP3   OH233171   2.743   0.982   1.753  0.1664 -0.3980  0.6589
 3919TIP3    H133172   2.753   0.981   1.848 -0.3575  1.6023  0.7940
 3919TIP3    H233173   2.814   1.039   1.722 -0.3298 -0.1388 -0.0240
 3920TIP3   OH233174   1.484   0.097  11.702  0.2744  0.0062  0.0630
 3920TIP3    H133175   1.528   0.072  11.783 -1.1930  0.9816  1.2228
 3920TIP3    H233176   1.397   0.057  11.709 -0.3612  1.2546 -0.3473
 3921TIP3   OH233177   6.010   3.208   0.264  0.3414  0.3046 -0.0937
 3921TIP3    H133178   5.921   3.224   0.294 -1.1449 -2.2698 -2.6611
 3921TIP3    H233179   6.039   3.292   0.229 -1.0559  1.1674  0.7108
 3922TIP3   OH233180   0.103   4.548  13.001 -0.1875 -0.0839  0.7743
 3922TIP3    H133181   0.160   4.476  12.973 -0.0620  0.0073  0.7935
 3922TIP3    H233182   0.015   4.517  12.982 -0.0377  0.5547 -1.0700
 3923TIP3   OH233183   6.625   5.777   2.930  0.4731 -0.0890  0.0362
 3923TIP3    H133184   6.653   5.867   2.946  0.2848  0.0615 -0.4653
 3923TIP3    H233185   6.531   5.779   2.948  0.0867  0.2781 -1.8052
 3924TIP3   OH233186   0.435   4.107   1.613 -0.1651  0.4399 -0.1415
 3924TIP3    H133187   0.413   4.060   1.693  0.6395 -1.3045 -0.8960
 3924TIP3    H233188   0.445   4.198   1.641  1.7351 -0.3494  2.0971
 3925TIP3   OH233189   2.505   4.397   2.638 -0.7059  0.3503 -0.1974
 3925TIP3    H133190   2.412   4.379   2.649 -0.4564 -1.0497 -0.1293
 3925TIP3    H233191   2.545   4.367   2.720  0.1295 -2.0138 -1.3561
 3926TIP3   OH233192   4.002   2.635  15.633  0.5859  0.1379 -0.0027
 3926TIP3    H133193   4.026   2.715  15.586  1.8529 -0.5073 -0.5050
 3926TIP3    H233194   4.018   2.565  15.570 -2.4189 -0.4156 -0.2620
 3927TIP3   OH233195   0.247   0.615   5.557  0.4026  0.6141  0.0034
 3927TIP3    H133196   0.188   0.661   5.497  0.2091 -0.7006 -0.8762
 3927TIP3    H233197   0.227   0.522   5.542  1.7798  0.1988  0.6524
 3928TIP3   OH233198   2.981   0.189   2.610  0.2314 -0.5041  0.0731
 3928TIP3    H133199   3.073   0.175   2.632  0.4689 -1.0949 -1.2088
 3928TIP3    H233200   2.942   0.225   2.690  1.6979  0.3336  0.4314
 3929TIP3   OH233201   5.058   4.604   3.826 -0.6437  0.6090 -0.6295
 3929TIP3    H133202   4.995   4.594   3.898  0.6059  1.0260  0.5912
 3929TIP3    H233203   5.033   4.686   3.784 -1.3153  0.4325 -0.5817
 3930TIP3   OH233204   4.105   2.235   5.675 -0.1913 -0.3761 -0.5027
 3930TIP3    H133205   4.193   2.204   5.655 -0.3758  0.0042 -2.0206
 3930TIP3    H233206   4.112   2.271   5.763  0.9414 -1.1870 -0.2352
 3931TIP3   OH233207   5.064   0.963  12.418 -0.6932 -0.1540  0.4627
 3931TIP3    H133208   4.969   0.974  12.414 -0.6932 -0.2440  0.1016
 3931TIP3    H233209   5.080   0.920  12.502 -0.9422  0.1388  0.6626
 3932TIP3   OH233210   6.098   3.418  13.415 -0.0069 -0.5860  0.0671
 3932TIP3    H133211   6.184   3.382  13.436 -0.0531 -1.1488 -0.6845
 3932TIP3    H233212   6.116   3.509  13.390  0.5236 -1.0246 -1.2059
 3933TIP3   OH233213   6.235   3.624   2.506  0.1512 -0.1409  0.1066
 3933TIP3    H133214   6.185   3.548   2.535 -0.2036  0.5590  1.4013
 3933TIP3    H233215   6.294   3.644   2.580  0.6789  0.4614 -0.4592
 3934TIP3   OH233216   5.503   6.493  12.394 -0.0551 -0.3048  0.3021
 3934TIP3    H133217   5.428   6.472  12.338 -0.0185 -1.8826  0.7935
 3934TIP3    H233218   5.491   6.585  12.418 -0.2238  0.3255 -2.0214
 3935TIP3   OH233219   0.549   4.784   2.407  0.2452  0.9772 -0.1393
 3935TIP3    H133220   0.634   4.767   2.449  0.9519  0.8491 -1.5607
 3935TIP3    H233221   0.570   4.836   2.330 -1.1691  2.3392  0.3324
 3936TIP3   OH233222   2.222   5.429  14.814 -0.1364  0.3678  0.3732
 3936TIP3    H133223   2.239   5.340  14.781 -0.4611  0.3911  0.1431
 3936TIP3    H233224   2.305   5.456  14.854 -0.7638 -1.0781  2.8882
 3937TIP3   OH233225   4.299   3.518  15.220  0.2203 -0.0658 -0.0136
 3937TIP3    H133226   4.206   3.541  15.220  0.3158  0.3660 -0.9000
 3937TIP3    H233227   4.333   3.557  15.139  1.4684  1.0010  0.9803
 3938TIP3   OH233228   1.155   0.407  14.995 -0.3096  0.0528 -0.0102
 3938TIP3    H133229   1.142   0.327  15.047  0.7745  0.5386  1.0470
 3938TIP3    H233230   1.237   0.393  14.948  0.1876  0.7574  0.6227
 3939TIP3   OH233231   2.458   2.400   2.695  0.1187 -0.0825  0.2711
 3939TIP3    H133232   2.442   2.374   2.786  0.9717  1.2718  0.8356
 3939TIP3    H233233   2.543   2.361   2.674  0.5462  0.6866  0.5185
 3940TIP3   OH233234   3.556   3.898  13.851  0.3523 -0.3087 -0.2701
 3940TIP3    H133235   3.560   3.803  13.862  0.9297 -0.3194 -0.5386
 3940TIP3    H233236   3.511   3.910  13.767  0.8718 -0.3668 -0.5621
 3941TIP3   OH233237   2.919   2.044  15.024 -0.3435 -0.1570  0.3961
 3941TIP3    H133238   2.864   2.112  14.984 -0.5352  0.3455  1.4878
 3941TIP3    H233239   2.906   2.055  15.118  2.3919  0.6443  0.7551
 3942TIP3   OH233240   2.557   4.219   2.207  0.3079  0.1505 -0.5643
 3942TIP3    H133241   2.640   4.257   2.177  0.9841 -1.1006 -0.3311
 3942TIP3    H233242   2.530   4.161   2.136 -0.4457  0.6186 -0.6831
 3943TIP3   OH233243   2.431   0.692  13.658 -0.6294  0.2013  0.2074
 3943TIP3    H133244   2.452   0.772  13.609  1.5568 -0.9546 -0.8555
 3943TIP3    H233245   2.347   0.712  13.700 -0.1932  3.0397 -0.0418
 3944TIP3   OH233246   4.845   4.754   2.539 -0.0502  0.0232  0.1294
 3944TIP3    H133247   4.939   4.757   2.556 -0.0663  2.0162  0.0688
 3944TIP3    H233248   4.805   4.790   2.618 -0.8236 -1.2951  0.3713
 3945TIP3   OH233249   4.327   5.592   3.993  0.1211  0.3817 -0.1070
 3945TIP3    H133250   4.253   5.537   3.968  2.6002 -2.0233 -2.9527
 3945TIP3    H233251   4.337   5.575   4.087 -1.5524 -0.9980 -0.1053
 3946TIP3   OH233252   4.888   0.654   5.511 -0.3670 -0.0800  0.0955
 3946TIP3    H133253   4.923   0.711   5.442 -1.0194 -0.5129 -0.6020
 3946TIP3    H233254   4.852   0.715   5.576 -0.8338  0.3130 -0.5234
 3947TIP3   OH233255   0.970   3.566  12.970 -0.0699 -0.2301  0.1248
 3947TIP3    H133256   0.945   3.649  13.011 -2.2263  0.0447 -1.6040
 3947TIP3    H233257   0.995   3.590  12.881 -0.9235 -1.4373 -0.4684
 3948TIP3   OH233258   2.287   1.030  17.005  0.2841  0.2233 -0.0486
 3948TIP3    H133259   2.289   1.116  16.962  1.3682  0.0077 -0.4526
 3948TIP3    H233260   2.376   0.998  16.998  0.1683 -0.4089  1.2029
 3949TIP3   OH233261   3.689   1.887  12.144 -0.0634  0.1145  0.2143
 3949TIP3    H133262   3.695   1.857  12.053 -1.4329  1.3690 -0.3294
 3949TIP3    H233263   3.693   1.807  12.196  1.8989 -0.5577 -0.8521
 3950TIP3   OH233264   0.290   6.789   1.124 -0.1456  0.1676  0.2077
 3950TIP3    H133265   0.385   6.803   1.130  0.1035 -0.4323 -1.6383
 3950TIP3    H233266   0.264   6.768   1.214  1.3428  0.9786  0.8795
 3951TIP3   OH233267   5.923   6.469   1.743  0.5027  0.1121 -0.0708
 3951TIP3    H133268   5.970   6.390   1.769  1.3084 -0.2042 -2.2233
 3951TIP3    H233269   5.992   6.534   1.728  0.1076  0.3225 -1.1041
 3952TIP3   OH233270   4.366   0.012  14.399  0.6601  0.4060 -0.5532
 3952TIP3    H133271   4.405   0.018  14.486 -0.6662 -1.2075  0.1977
 3952TIP3    H233272   4.294   0.075  14.400 -0.9284 -1.3280  0.4524
 3953TIP3   OH233273   2.453   4.756   2.979  0.4293 -0.1938 -0.0920
 3953TIP3    H133274   2.416   4.734   2.893  0.1095  0.3794 -0.1070
 3953TIP3    H233275   2.434   4.680   3.034  0.2824 -0.3969 -0.4202
 3954TIP3   OH233276   4.376   3.935   4.566 -0.1874 -0.0131 -0.0040
 3954TIP3    H133277   4.454   3.946   4.511 -0.3827  1.8328  0.0024
 3954TIP3    H233278   4.303   3.928   4.504 -0.0513 -1.8299 -0.0122
 3955TIP3   OH233279   1.299   5.690   5.322  0.1718 -0.2031 -0.1284
 3955TIP3    H133280   1.300   5.701   5.417 -1.1245  2.0817 -0.3077
 3955TIP3    H233281   1.378   5.736   5.292 -0.1706  0.3117 -0.2457
 3956TIP3   OH233282   6.384   1.258   3.002 -0.1613 -0.1815 -0.3664
 3956TIP3    H133283   6.471   1.235   3.034  0.6978  0.1039 -2.3274
 3956TIP3    H233284   6.348   1.176   2.970 -1.3012 -0.6017  1.8170
 3957TIP3   OH233285   1.992   2.316  11.966  0.0095  0.6368  0.1202
 3957TIP3    H133286   1.927   2.246  11.971  1.3156 -0.5699  0.8493
 3957TIP3    H233287   2.061   2.281  11.909 -0.3192  2.2225 -1.3392
 3958TIP3   OH233288   3.672   1.249  11.788 -0.0267 -0.5861 -0.3316
 3958TIP3    H133289   3.621   1.296  11.855 -0.6460 -1.0247 -0.4897
 3958TIP3    H233290   3.701   1.169  11.832 -0.7067 -1.0307 -0.6711
 3959TIP3   OH233291   4.118   2.040   2.946 -0.3979  0.2343  0.1296
 3959TIP3    H133292   4.099   2.020   3.038 -2.0885  0.2060 -0.1963
 3959TIP3    H233293   4.056   1.986   2.897  1.4561 -0.8619 -1.1094
 3960TIP3   OH233294   2.955   1.305  11.770  0.7526 -0.0854 -0.2821
 3960TIP3    H133295   2.953   1.210  11.774 -0.6058 -0.1608 -1.8176
 3960TIP3    H233296   3.047   1.328  11.783  1.5982 -1.7681 -2.5721
 3961TIP3   OH233297   3.916   0.951  12.219  0.4502 -0.3597  0.2485
 3961TIP3    H133298   3.928   1.030  12.167 -0.0828 -0.6474 -0.3280
 3961TIP3    H233299   3.838   0.968  12.272  0.6163 -0.3182  0.4830
 3962TIP3   OH233300   3.105   6.386   0.350  0.2670 -0.2780 -0.3138
 3962TIP3    H133301   3.077   6.298   0.374  1.7731 -0.4321  1.0852
 3962TIP3    H233302   3.027   6.440   0.359 -0.7034 -1.4650 -1.3056
 3963TIP3   OH233303   4.461   2.298   2.372  0.1199  0.6481 -0.3337
 3963TIP3    H133304   4.427   2.291   2.461 -1.7606  1.7374 -0.9089
 3963TIP3    H233305   4.555   2.305   2.382 -0.0101  0.0704  1.5259
 3964TIP3   OH233306   0.781   2.958   3.560 -0.2855 -0.0131  0.4464
 3964TIP3    H133307   0.869   2.996   3.556 -0.3636  0.0983 -0.7424
 3964TIP3    H233308   0.722   3.034   3.562 -0.3871 -0.0804  0.0384
 3965TIP3   OH233309   2.779   6.673   0.732  0.3335  0.3996 -0.3187
 3965TIP3    H133310   2.812   6.722   0.808  1.4721 -1.2165  0.2722
 3965TIP3    H233311   2.833   6.704   0.659  0.6908  0.4108 -0.0523
 3966TIP3   OH233312   5.520   0.458  15.019  0.4843 -0.1848 -0.4147
 3966TIP3    H133313   5.584   0.528  15.002  0.4600 -0.6304 -2.6599
 3966TIP3    H233314   5.441   0.488  14.975  1.0428 -2.4255 -3.2304
 3967TIP3   OH233315   5.438   5.479   5.011  0.1330 -0.7318 -0.0847
 3967TIP3    H133316   5.375   5.419   5.051 -0.7501 -0.4354 -0.9894
 3967TIP3    H233317   5.403   5.567   5.029  0.6142 -0.5409 -0.0624
 3968TIP3   OH233318   5.273   6.673  13.299  0.1892  0.0480 -0.2559
 3968TIP3    H133319   5.269   6.757  13.344 -0.7720  1.6344 -3.0625
 3968TIP3    H233320   5.187   6.664  13.257  0.7629 -1.6754 -1.1766
 3969TIP3   OH233321   0.985   5.995   4.513 -0.3204  0.2109  1.0963
 3969TIP3    H133322   0.982   6.073   4.457  0.5348 -0.0760  0.6331
 3969TIP3    H233323   0.928   6.017   4.587 -0.1785  1.2305  0.9206
 3970TIP3   OH233324   6.714   0.581  11.816 -0.0313  0.2473 -0.7083
 3970TIP3    H133325   6.709   0.670  11.781 -1.3695  0.7195  0.5454
 3970TIP3    H233326   6.716   0.593  11.911 -2.5606 -1.0532 -0.4040
 3971TIP3   OH233327   3.500   2.500   1.195  0.6843  0.3148 -0.3928
 3971TIP3    H133328   3.559   2.430   1.223 -1.2313 -1.1912  0.0057
 3971TIP3    H233329   3.485   2.552   1.274  1.4091  0.6866 -0.4888
 3972TIP3   OH233330   5.086   5.874  12.986 -0.7772  0.0590  0.1678
 3972TIP3    H133331   5.152   5.833  12.930  0.0600 -0.0506  1.1976
 3972TIP3    H233332   5.050   5.946  12.934 -0.9221 -0.8005 -0.9634
 3973TIP3   OH233333   6.688   6.465   1.124  0.1481 -0.0948 -0.2757
 3973TIP3    H133334   6.716   6.483   1.034 -0.2797  0.1526 -0.3613
 3973TIP3    H233335   6.769   6.470   1.175  0.2489  0.7881 -0.4914
 3974TIP3   OH233336   6.256   3.824  16.684 -0.0604 -0.3655  0.6192
 3974TIP3    H133337   6.289   3.744  16.724 -0.0089 -0.2076  0.8917
 3974TIP3    H233338   6.283   3.894  16.743 -1.6360 -0.3068  1.3160
 3975TIP3   OH233339   0.652   5.830  10.874 -0.4631  0.2840  0.3812
 3975TIP3    H133340   0.697   5.751  10.844 -0.7424 -0.1934  1.1831
 3975TIP3    H233341   0.614   5.867  10.795  1.1358  0.5772 -0.2860
 3976TIP3   OH233342   3.842   5.149   0.178 -0.4803 -0.2355 -0.5045
 3976TIP3    H133343   3.790   5.157   0.258  1.1512  2.6199  0.4017
 3976TIP3    H233344   3.911   5.087   0.201  0.5388  1.2775  0.7041
 3977TIP3   OH233345   5.582   5.557   2.737  0.3741 -0.3869  0.6984
 3977TIP3    H133346   5.493   5.527   2.759 -0.1864  1.0274  0.4626
 3977TIP3    H233347   5.584   5.648   2.767  1.3660 -0.0628 -0.3217
 3978TIP3   OH233348   3.131   6.551   0.068 -0.0388  0.3049 -0.0364
 3978TIP3    H133349   3.130   6.472   0.014 -3.1164 -0.2089  0.5711
 3978TIP3    H233350   3.223   6.577   0.072  1.2731 -3.7319  0.4609
 3979TIP3   OH233351   3.900   0.489   2.810  0.0917  0.3174  0.1982
 3979TIP3    H133352   3.906   0.461   2.902  2.0752  4.7629  1.7243
 3979TIP3    H233353   3.815   0.533   2.804 -0.6593 -1.1726 -0.6017
 3980TIP3   OH233354   3.383   4.645  12.288 -0.7022 -0.0107 -0.4042
 3980TIP3    H133355   3.379   4.577  12.356 -1.9402  0.1426 -0.3064
 3980TIP3    H233356   3.351   4.601  12.209 -2.6172  0.7209 -0.0926
 3981TIP3   OH233357   5.317   4.730  15.887  0.5672  0.3874 -0.4268
 3981TIP3    H133358   5.251   4.791  15.921  2.8598  1.8309  1.7777
 3981TIP3    H233359   5.377   4.786  15.837  0.3005 -0.8775 -2.2662
 3982TIP3   OH233360   3.917   0.892  15.011  0.0437 -0.0332  0.2679
 3982TIP3    H133361   3.887   0.807  15.043 -3.2552  0.1867 -1.7318
 3982TIP3    H233362   3.988   0.872  14.951 -0.1248 -1.3102  0.4739
 3983TIP3   OH233363   0.483   3.182  15.980 -0.1487  0.6860  0.6661
 3983TIP3    H133364   0.429   3.172  15.902 -0.0398  1.7820  0.4328
 3983TIP3    H233365   0.470   3.273  16.007  1.1772  0.8301  0.8937
 3984TIP3   OH233366   5.560   1.887   2.679 -0.1809 -0.0668 -0.4816
 3984TIP3    H133367   5.523   1.906   2.765  0.2604 -0.4444 -0.2074
 3984TIP3    H233368   5.537   1.796   2.663  0.9672 -0.4281 -0.1321
 3985TIP3   OH233369   3.151   3.366  11.525  0.1813 -0.3934 -0.5154
 3985TIP3    H133370   3.128   3.373  11.433 -0.5638  0.8012 -0.2678
 3985TIP3    H233371   3.194   3.449  11.546  0.0266 -0.5013  0.2792
 3986TIP3   OH233372   2.539   4.093  11.175  0.4134  0.5217  0.5373
 3986TIP3    H133373   2.466   4.120  11.120  0.9087  1.5560  0.3800
 3986TIP3    H233374   2.499   4.076  11.261 -0.7894 -3.3676 -0.5796
 3987TIP3   OH233375   5.577   3.233   1.269 -0.3573  0.4329 -0.0248
 3987TIP3    H133376   5.657   3.180   1.264  0.6132  1.8081  0.3873
 3987TIP3    H233377   5.510   3.172   1.302  0.5891 -0.6461 -0.0265
 3988TIP3   OH233378   5.566   0.324   2.774 -0.5960 -0.3770 -0.3279
 3988TIP3    H133379   5.510   0.344   2.699  0.3969  0.2541 -0.9154
 3988TIP3    H233380   5.539   0.236   2.801 -0.3076 -1.0411 -2.0589
 3989TIP3   OH233381   1.408   4.310  10.753 -0.0414 -0.6997 -0.0263
 3989TIP3    H133382   1.328   4.264  10.778 -1.1175  0.3178 -1.4362
 3989TIP3    H233383   1.432   4.274  10.668  0.7436 -0.6658  0.1694
 3990TIP3   OH233384   6.641   1.508   4.005 -0.2674 -0.8727  0.0593
 3990TIP3    H133385   6.604   1.574   3.945  3.0588  1.8701  0.7371
 3990TIP3    H233386   6.568   1.486   4.063 -2.3522 -0.1893 -2.1171
 3991TIP3   OH233387   3.258   4.032  11.837 -0.0627 -0.5545  0.3141
 3991TIP3    H133388   3.285   4.112  11.881 -1.1423 -0.1686  0.2820
 3991TIP3    H233389   3.190   3.995  11.893 -2.2810  0.5246 -1.5127
 3992TIP3   OH233390   4.878   0.237   3.099  0.1351 -0.4691 -0.0803
 3992TIP3    H133391   4.910   0.315   3.144  0.8696 -0.7058 -0.1701
 3992TIP3    H233392   4.873   0.170   3.167  0.1829 -0.5282 -0.1342
 3993TIP3   OH233393   5.097   0.702  14.271 -0.0645 -0.0886 -0.4856
 3993TIP3    H133394   5.002   0.710  14.282  0.0855  0.7006  0.4464
 3993TIP3    H233395   5.122   0.637  14.336  0.2917  1.4082  0.9562
 3994TIP3   OH233396   2.113   0.712   1.390  0.8836  0.1286  0.3193
 3994TIP3    H133397   2.086   0.679   1.304  0.9920 -2.2204  1.1250
 3994TIP3    H233398   2.080   0.802   1.392 -3.5911 -1.2272 -0.2755
 3995TIP3   OH233399   0.443   3.298  13.742 -0.4240  0.3970  0.2723
 3995TIP3    H133400   0.528   3.338  13.763  1.1372 -3.5313  2.3707
 3995TIP3    H233401   0.442   3.292  13.647  2.2034 -0.4200  0.2243
 3996TIP3   OH233402   0.193   6.278  12.307  0.8863  0.6754  0.0322
 3996TIP3    H133403   0.159   6.271  12.217  1.1558 -0.7016  0.0189
 3996TIP3    H233404   0.145   6.352  12.344  0.0430  0.6471 -0.9344
 3997TIP3   OH233405   0.277   6.412   0.734 -0.2684  0.1533  0.2072
 3997TIP3    H133406   0.310   6.474   0.799 -0.0450 -0.4558  0.6899
 3997TIP3    H233407   0.214   6.358   0.782  0.5812 -0.9110  0.1863
 3998TIP3   OH233408   4.269   3.815  14.152 -0.0217  0.9322 -0.5656
 3998TIP3    H133409   4.340   3.877  14.138 -0.0114  1.0578 -0.0013
 3998TIP3    H233410   4.216   3.855  14.222  0.0257  0.2801 -0.1447
 3999TIP3   OH233411   4.070   0.323  15.979  0.5098  0.3056  1.0833
 3999TIP3    H133412   4.058   0.284  15.892 -0.7154  1.7259  0.5831
 3999TIP3    H233413   4.024   0.263  16.038  0.4165 -0.0987  0.6089
 4000TIP3   OH233414   0.940   1.579  11.546 -0.6248  0.1276  0.2125
 4000TIP3    H133415   1.017   1.620  11.507 -0.2701 -1.7961 -1.2692
 4000TIP3    H233416   0.952   1.589  11.640  0.5857  1.2803 -0.0342
 4001TIP3   OH233417   1.664   6.233   5.403  0.2205  0.1540 -0.0667
 4001TIP3    H133418   1.737   6.175   5.379 -0.6139 -0.2723 -1.7481
 4001TIP3    H233419   1.665   6.301   5.336  0.5324  1.5356  1.2881
 4002TIP3   OH233420   1.032   4.638   3.748  0.0728  0.1805 -0.6721
 4002TIP3    H133421   1.006   4.653   3.657 -1.5711 -1.1479 -0.4542
 4002TIP3    H233422   1.126   4.618   3.742 -0.5491 -2.7917 -2.4758
 4003TIP3   OH233423   2.061   0.323   0.863 -0.3638 -0.2979  0.4459
 4003TIP3    H133424   2.017   0.317   0.947  2.1603 -1.5512  1.7977
 4003TIP3    H233425   2.021   0.254   0.810 -2.3645  0.8697  0.3624
 4004TIP3   OH233426   1.695   4.999   0.845 -0.2695  0.4639  0.3411
 4004TIP3    H133427   1.718   4.945   0.921 -2.4195 -0.6596  0.2467
 4004TIP3    H233428   1.735   5.084   0.865  2.2999 -0.7761  0.9782
 4005TIP3   OH233429   5.603   1.932  11.773 -0.3724  0.1738 -0.2400
 4005TIP3    H133430   5.654   1.870  11.825  3.7234  1.6468 -2.1111
 4005TIP3    H233431   5.547   1.876  11.718 -1.1280 -1.5342  2.0955
 4006TIP3   OH233432   1.838   1.645  14.258 -0.1232 -0.1807 -0.2652
 4006TIP3    H133433   1.773   1.644  14.188 -0.0829 -0.7658 -0.2937
 4006TIP3    H233434   1.874   1.557  14.260  1.3948  0.3908 -0.9181
 4007TIP3   OH233435   0.216   5.789  14.143 -0.1846  0.2899  0.1112
 4007TIP3    H133436   0.245   5.811  14.232  2.0125  0.6001 -0.6197
 4007TIP3    H233437   0.187   5.873  14.106  1.4088  0.7145 -0.2868
 4008TIP3   OH233438   6.345   5.114  14.442 -0.7314 -0.3474 -0.5665
 4008TIP3    H133439   6.342   5.021  14.464  0.1130  0.1634  1.9689
 4008TIP3    H233440   6.426   5.125  14.392  0.6626 -0.6028  1.4933
 4009TIP3   OH233441   5.207   4.385  14.516 -0.5687  0.0288 -0.1710
 4009TIP3    H133442   5.132   4.344  14.474 -0.5484  1.1135 -1.3304
 4009TIP3    H233443   5.282   4.353  14.466 -0.4428  0.4552 -0.2563
 4010TIP3   OH233444   5.272   0.693  11.685  0.2827 -0.0144 -0.1366
 4010TIP3    H133445   5.184   0.660  11.667 -0.2360 -0.0687  2.0882
 4010TIP3    H233446   5.261   0.788  11.687  0.5487  0.0417 -1.0040
 4011TIP3   OH233447   3.538   5.088  16.567  0.4248 -0.3615 -0.4618
 4011TIP3    H133448   3.510   5.136  16.645 -0.4895  0.0254 -1.0124
 4011TIP3    H233449   3.633   5.081  16.576  0.7234  2.2882 -0.7659
 4012TIP3   OH233450   2.013   5.913   0.255 -0.3908  0.4771  0.0761
 4012TIP3    H133451   2.088   5.962   0.222 -0.2589  0.4740  0.3671
 4012TIP3    H233452   2.024   5.825   0.219 -0.2102  0.4540  0.1887
 4013TIP3   OH233453   6.270   5.463  14.048 -0.4027 -0.1155  0.1575
 4013TIP3    H133454   6.352   5.429  14.084  0.6043  2.1967  0.1993
 4013TIP3    H233455   6.212   5.471  14.124 -0.9455 -2.2828  0.0497
 4014TIP3   OH233456   2.254   2.600   3.580  0.7622  0.5859 -0.6811
 4014TIP3    H133457   2.160   2.616   3.582  0.8938  1.3750 -0.4282
 4014TIP3    H233458   2.293   2.682   3.611  1.4447 -0.5106  1.6381
 4015TIP3   OH233459   6.592   5.408   5.070  0.0369 -0.0230 -0.4008
 4015TIP3    H133460   6.551   5.494   5.075  0.2224  0.0009  1.4665
 4015TIP3    H233461   6.629   5.394   5.157  3.9017 -0.1303 -1.8780
 4016TIP3   OH233462   0.658   3.778   2.584 -0.5293 -0.1339  0.0367
 4016TIP3    H133463   0.632   3.864   2.615  1.5091  0.2445  0.8403
 4016TIP3    H233464   0.713   3.742   2.654  2.2709 -0.2272 -2.0393
 4017TIP3   OH233465   0.202   0.227  14.110 -0.0373 -0.2116  0.2762
 4017TIP3    H133466   0.278   0.181  14.075 -0.2276  0.1097 -0.5806
 4017TIP3    H233467   0.137   0.158  14.126 -0.2729 -0.2679 -0.8777
 4018TIP3   OH233468   5.917   0.741   6.250 -0.6892  0.6140  0.2784
 4018TIP3    H133469   5.890   0.830   6.275 -0.4852  0.7132  0.1552
 4018TIP3    H233470   6.005   0.732   6.287 -0.4262  0.7248 -0.3108
 4019TIP3   OH233471   6.026   5.478   5.265 -0.7608  0.3497 -0.5119
 4019TIP3    H133472   5.948   5.438   5.227  0.7518 -1.9642 -1.3958
 4019TIP3    H233473   6.028   5.449   5.356 -1.2030  0.8903 -0.3241
 4020TIP3   OH233474   0.855   6.121  16.780  0.1098  0.3932  0.0186
 4020TIP3    H133475   0.804   6.105  16.701 -1.1854  1.7379  0.5270
 4020TIP3    H233476   0.928   6.176  16.751 -0.6546  1.3298 -0.1803
 4021TIP3   OH233477   6.750   1.774   4.650 -0.6367 -0.5203 -0.2428
 4021TIP3    H133478   6.763   1.719   4.727  2.0011 -0.0296 -0.2302
 4021TIP3    H233479   6.692   1.844   4.680 -0.7598 -1.0823  0.8887
 4022TIP3   OH233480   2.594   2.884   2.881  0.2163  0.3851  0.6518
 4022TIP3    H133481   2.525   2.838   2.832  0.4242  0.1251  0.6039
 4022TIP3    H233482   2.555   2.900   2.967  0.2295 -0.1069  0.7533
 4023TIP3   OH233483   3.638   5.902   3.355 -0.6000  0.1977  0.0274
 4023TIP3    H133484   3.645   5.854   3.437 -1.6450  0.3625  0.2355
 4023TIP3    H233485   3.695   5.978   3.367 -0.4439  0.0177  0.4549
 4024TIP3   OH233486   0.621   1.179  16.838  0.2223 -0.2707 -0.3926
 4024TIP3    H133487   0.654   1.218  16.757  1.2130 -1.8374 -0.7905
 4024TIP3    H233488   0.669   1.225  16.907 -0.2556  0.7237 -0.7042
 4025TIP3   OH233489   1.561   0.018  16.338 -0.7499  0.5497  0.1628
 4025TIP3    H133490   1.505   0.042  16.413  0.9553 -0.2912  1.7993
 4025TIP3    H233491   1.558   0.094  16.281 -1.5898  1.5057  1.4066
 4026TIP3   OH233492   4.078   0.038   1.016 -0.3409 -0.4834 -0.4730
 4026TIP3    H133493   4.087   0.044   1.111 -0.0327  0.4756 -0.5442
 4026TIP3    H233494   4.114   0.121   0.984 -2.6500  0.2950 -1.2774
 4027TIP3   OH233495   3.527   1.138   0.936  0.1935  0.2815 -0.0817
 4027TIP3    H133496   3.466   1.212   0.944 -2.5991 -1.3687 -3.3762
 4027TIP3    H233497   3.573   1.154   0.854  0.6712 -0.8585 -0.0506
 4028TIP3   OH233498   0.438   0.486  15.005  0.5567 -0.2362 -0.1032
 4028TIP3    H133499   0.472   0.505  14.917  0.0441 -1.0627 -0.4916
 4028TIP3    H233500   0.444   0.391  15.014  0.8126 -0.1385  0.8532
 4029TIP3   OH233501   0.222   3.306   4.314 -0.3572  0.0149  0.0143
 4029TIP3    H133502   0.285   3.339   4.250 -1.1077  1.3769 -0.0638
 4029TIP3    H233503   0.186   3.384   4.355 -0.0169 -0.8272  2.0137
 4030TIP3   OH233504   2.205   0.650   3.465 -0.2259  0.8115 -0.4018
 4030TIP3    H133505   2.166   0.711   3.527 -0.6100  1.8977 -1.6595
 4030TIP3    H233506   2.202   0.565   3.509 -1.4938  1.3606  0.6227
 4031TIP3   OH233507   1.796   2.715  13.108  0.4820 -0.4078  0.0183
 4031TIP3    H133508   1.800   2.793  13.051  1.0769  1.5882  2.6163
 4031TIP3    H233509   1.865   2.658  13.073  0.9420  0.7961 -1.1769
 4032TIP3   OH233510   6.172   6.009  13.705 -0.1689 -0.3089  0.4861
 4032TIP3    H133511   6.118   6.013  13.783  1.8698 -2.5777  2.1526
 4032TIP3    H233512   6.239   6.076  13.718 -1.0506  0.7671 -0.3733
 4033TIP3   OH233513   0.881   0.140   1.180 -0.4721  0.0523  0.1119
 4033TIP3    H133514   0.897   0.058   1.133 -0.3546  0.6169 -0.8719
 4033TIP3    H233515   0.951   0.198   1.151 -1.4126  0.9739 -0.3732
 4034TIP3   OH233516   6.758   0.648   0.011 -0.1273 -0.3684 -0.1001
 4034TIP3    H133517   6.717   0.599  -0.060 -3.0307  3.4234 -1.3858
 4034TIP3    H233518   6.842   0.678  -0.025 -0.1418 -1.0545 -0.7218
 4035TIP3   OH233519   2.067   2.700  12.767 -0.1478  0.0839  0.2718
 4035TIP3    H133520   2.076   2.672  12.858 -1.8438 -0.1560  0.4139
 4035TIP3    H233521   2.138   2.656  12.721  0.3093 -0.3630  1.3634
 4036TIP3   OH233522   4.521   4.146  12.136 -0.4715 -1.0273  0.2333
 4036TIP3    H133523   4.468   4.151  12.215 -0.0453 -0.2641  0.4740
 4036TIP3    H233524   4.557   4.234  12.125 -1.2680 -0.8544 -1.3231
 4037TIP3   OH233525   1.051   5.161   2.393  0.2187 -0.5787  0.6495
 4037TIP3    H133526   1.020   5.115   2.471 -0.7364  1.5931  1.6224
 4037TIP3    H233527   1.051   5.253   2.418 -0.3652  0.2176 -2.0025
 4038TIP3   OH233528   6.348   1.577   0.420 -0.4652  0.2276 -0.2877
 4038TIP3    H133529   6.295   1.520   0.364 -0.3557 -1.3257  1.1360
 4038TIP3    H233530   6.284   1.638   0.459 -0.8097  0.0721 -0.6022
 4039TIP3   OH233531   2.462   5.775   0.008 -0.7060  0.0298 -0.4341
 4039TIP3    H133532   2.471   5.799  -0.084  0.1970 -1.0864 -0.6563
 4039TIP3    H233533   2.406   5.843   0.045  2.1420  2.8494 -0.8876
 4040TIP3   OH233534   5.944   1.926  12.823  0.0299  0.2843  0.0535
 4040TIP3    H133535   5.969   1.930  12.731 -0.2693  1.6472  0.0034
 4040TIP3    H233536   5.880   1.997  12.834 -3.6223 -2.6944  0.2661
 4041TIP3   OH233537   1.363   6.014  12.185  0.3105  0.6970 -0.3474
 4041TIP3    H133538   1.282   6.054  12.215  0.9847  1.4700  0.5022
 4041TIP3    H233539   1.360   5.924  12.219 -0.1939  0.7143 -0.3484
 4042TIP3   OH233540   0.255   5.541   3.129  0.5023  0.3182  0.1270
 4042TIP3    H133541   0.264   5.635   3.146  1.5351  0.2157  0.2491
 4042TIP3    H233542   0.166   5.530   3.096  0.6919  1.4897 -0.8406
 4043TIP3   OH233543   4.620   3.266  10.716  0.2696 -0.0971 -0.0774
 4043TIP3    H133544   4.528   3.243  10.704  0.2902  0.1507 -0.8104
 4043TIP3    H233545   4.622   3.361  10.704  0.3653  0.1567  1.6879
 4044TIP3   OH233546   4.804   3.720  13.765  0.2582  0.0235 -0.1590
 4044TIP3    H133547   4.866   3.695  13.696  1.5376  2.5523 -0.0363
 4044TIP3    H233548   4.801   3.815  13.761 -0.0017  0.2434  2.9572
 4045TIP3   OH233549   4.506   2.272   1.828 -0.0141 -0.2745  0.1553
 4045TIP3    H133550   4.481   2.297   1.917  0.6611  0.4978  0.1456
 4045TIP3    H233551   4.575   2.335   1.804  0.9215 -1.4368 -0.3224
 4046TIP3   OH233552   4.595   5.738   5.333  0.4499 -0.1093 -0.1851
 4046TIP3    H133553   4.643   5.797   5.391  1.0265  0.7846 -1.5010
 4046TIP3    H233554   4.535   5.690   5.390  0.8569  0.8636  1.0983
 4047TIP3   OH233555   2.839   3.813   2.784  0.6083 -0.3894 -0.9656
 4047TIP3    H133556   2.919   3.804   2.731  0.1655 -0.5290 -1.6181
 4047TIP3    H233557   2.779   3.863   2.729  0.2521 -0.2597 -0.4656
 4048TIP3   OH233558   5.634   0.465  16.020  0.0799  0.0979  0.0944
 4048TIP3    H133559   5.642   0.508  16.105 -0.0563  3.1856 -1.2945
 4048TIP3    H233560   5.591   0.382  16.039 -0.5289  0.9405  2.9561
 4049TIP3   OH233561   3.977   4.416   2.069 -0.3509  0.2860  0.2246
 4049TIP3    H133562   3.987   4.498   2.117  0.8350 -0.3332  1.0996
 4049TIP3    H233563   4.034   4.354   2.116 -1.3346 -1.0767 -0.3143
 4050TIP3   OH233564   6.264   6.398   1.002 -0.3305 -0.0258  0.0993
 4050TIP3    H133565   6.274   6.481   1.048  0.4196  0.7805 -1.4500
 4050TIP3    H233566   6.334   6.343   1.038 -0.9016 -0.0685  1.2139
 4051TIP3   OH233567   3.205   0.837  16.191 -0.0180  0.4136 -0.5486
 4051TIP3    H133568   3.216   0.916  16.138 -0.5889  0.6672 -0.2985
 4051TIP3    H233569   3.176   0.870  16.276 -0.2694 -0.0720 -0.4471
 4052TIP3   OH233570   1.364   5.399  16.697 -0.0601  0.0030 -0.3535
 4052TIP3    H133571   1.315   5.339  16.642 -0.8436  1.0803 -0.8706
 4052TIP3    H233572   1.309   5.477  16.703  0.4273  0.2733  1.1965
 4053TIP3   OH233573   5.746   6.246  14.600 -0.0661 -0.6641 -0.2086
 4053TIP3    H133574   5.807   6.177  14.626  1.0863 -0.1375 -1.4095
 4053TIP3    H233575   5.798   6.304  14.544  0.1643  3.2613  3.5276
 4054TIP3   OH233576   3.637   5.569  15.184 -0.0131 -0.4477  0.0552
 4054TIP3    H133577   3.578   5.511  15.232  0.1155  1.1529  2.3303
 4054TIP3    H233578   3.718   5.568  15.236 -0.7287  3.3986  1.6147
 4055TIP3   OH233579   2.498   2.917   1.368 -0.2200  0.2711 -0.0875
 4055TIP3    H133580   2.592   2.936   1.372 -0.2636  0.4125  0.3306
 4055TIP3    H233581   2.457   3.003   1.355 -0.3751  0.3859  1.1185
 4056TIP3   OH233582   6.121   4.801  12.608 -0.2485  0.9784  0.0065
 4056TIP3    H133583   6.139   4.735  12.541  0.8892  1.4741 -0.2004
 4056TIP3    H233584   6.098   4.880  12.560 -4.8089  0.0590  0.2192
 4057TIP3   OH233585   3.268   0.571   6.624 -0.5148  0.0444  0.7358
 4057TIP3    H133586   3.221   0.529   6.552 -0.0271 -0.3680  0.6436
 4057TIP3    H233587   3.270   0.505   6.693  0.1868 -0.0661  0.6222
 4058TIP3   OH233588   0.447   6.677  14.403 -0.0856 -1.1632 -0.5924
 4058TIP3    H133589   0.489   6.591  14.401  2.2426 -0.1300 -2.8736
 4058TIP3    H233590   0.377   6.672  14.338 -2.2518 -2.2143  1.6442
 4059TIP3   OH233591   5.098   6.718   4.184  0.6804 -0.3009 -0.0071
 4059TIP3    H133592   5.016   6.690   4.144  0.9783  0.1104 -0.9197
 4059TIP3    H233593   5.165   6.667   4.139  0.9407 -0.5914  0.6929
 4060TIP3   OH233594   3.510   2.074  14.519  0.2986  0.4972  0.8764
 4060TIP3    H133595   3.521   2.003  14.583 -1.5414 -0.2575  0.4452
 4060TIP3    H233596   3.539   2.037  14.436  1.0533  0.8875  0.9603
 4061TIP3   OH233597   1.614   3.005  15.584 -0.1217  0.0254 -0.4114
 4061TIP3    H133598   1.555   3.041  15.518 -0.4528 -1.6458 -1.0677
 4061TIP3    H233599   1.648   3.082  15.630 -0.7646  1.1632 -1.7624
 4062TIP3   OH233600   2.293   4.374  11.811 -0.3113 -0.0376  0.3420
 4062TIP3    H133601   2.315   4.405  11.723  1.9630  0.2581  0.9557
 4062TIP3    H233602   2.203   4.405  11.825 -0.5953  0.2413 -1.7084
 4063TIP3   OH233603   3.788   3.227   5.758 -0.7356  0.1289 -0.0960
 4063TIP3    H133604   3.820   3.175   5.684  0.4509  0.8978 -0.1532
 4063TIP3    H233605   3.704   3.261   5.730 -1.5185 -1.7052 -0.0780
 4064TIP3   OH233606   4.285   2.109   5.112  0.4580 -0.8262 -0.1138
 4064TIP3    H133607   4.324   2.194   5.090  1.2090 -1.1185  0.0580
 4064TIP3    H233608   4.358   2.047   5.108 -0.1880 -1.5646 -0.7630
 4065TIP3   OH233609   0.125   5.987   1.434  0.2262  0.2956  0.0001
 4065TIP3    H133610   0.047   5.991   1.379  0.8082 -2.5887 -1.2026
 4065TIP3    H233611   0.182   5.923   1.391  1.0585 -1.6149  3.5237
 4066TIP3   OH233612   3.782   2.658   3.848  0.1973  0.5748 -0.0591
 4066TIP3    H133613   3.852   2.695   3.794 -0.6525  0.3239 -1.3804
 4066TIP3    H233614   3.766   2.571   3.810  0.6312 -0.2670  1.5845
 4067TIP3   OH233615   1.564   0.638   3.868 -0.4185  0.3237  0.9828
 4067TIP3    H133616   1.558   0.633   3.964  0.4447 -0.4277  1.0171
 4067TIP3    H233617   1.640   0.583   3.847 -1.0886 -0.1739 -0.1978
 4068TIP3   OH233618   5.363   5.762  14.291  0.3895  0.3770 -0.0536
 4068TIP3    H133619   5.374   5.677  14.335 -2.6776  1.1551  2.6008
 4068TIP3    H233620   5.441   5.812  14.316  0.1137 -0.2114  2.1780
 4069TIP3   OH233621   4.244   2.465  15.153 -0.0684  0.2057 -0.3498
 4069TIP3    H133622   4.338   2.481  15.149 -0.0879  0.3935 -0.0221
 4069TIP3    H233623   4.236   2.372  15.175  0.0395 -0.1369 -1.6714
 4070TIP3   OH233624   3.161   6.712   0.895 -0.6622 -0.4413 -0.0631
 4070TIP3    H133625   3.193   6.640   0.841  1.0686 -1.4735  2.1885
 4070TIP3    H233626   3.072   6.686   0.919 -0.4805 -1.2624 -0.2409
 4071TIP3   OH233627   4.493   0.601  13.366 -0.4567 -0.4283 -0.6923
 4071TIP3    H133628   4.555   0.580  13.436 -1.0284  0.2875  0.0476
 4071TIP3    H233629   4.453   0.518  13.342 -0.6667 -0.6018  0.2315
 4072TIP3   OH233630   2.727   0.876  16.019  0.3719 -0.1850 -0.7538
 4072TIP3    H133631   2.650   0.932  16.008  1.4378  1.8149  1.0889
 4072TIP3    H233632   2.781   0.923  16.082  2.4295 -2.2534 -0.8583
 4073TIP3   OH233633   3.685   0.084  13.502 -0.4519 -0.1607  0.2200
 4073TIP3    H133634   3.697   0.030  13.580 -0.2852 -0.3321  0.0762
 4073TIP3    H233635   3.735   0.039  13.433 -0.0318  0.3560  0.1794
 4074TIP3   OH233636   6.055   1.162  12.620 -0.0526 -0.1255  0.3620
 4074TIP3    H133637   5.964   1.172  12.648 -0.1407  0.2518 -0.0515
 4074TIP3    H233638   6.067   1.228  12.552  0.7505  0.3551  0.9426
 4075TIP3   OH233639   2.165   1.071   1.693  0.0897  0.0598  0.1707
 4075TIP3    H133640   2.184   1.120   1.613  0.0873 -1.1438 -0.5937
 4075TIP3    H233641   2.088   1.018   1.672  0.1970 -0.4176  0.9026
 4076TIP3   OH233642   0.622   0.465  11.275  0.1237 -0.0438  0.5394
 4076TIP3    H133643   0.671   0.452  11.356  2.0007 -0.1737 -0.5648
 4076TIP3    H233644   0.677   0.523  11.223 -0.9479 -0.1299 -0.7241
 4077TIP3   OH233645   1.158   2.949   4.951 -0.2092 -0.5332  0.1425
 4077TIP3    H133646   1.152   2.863   4.909 -0.2496 -0.1157 -0.7450
 4077TIP3    H233647   1.214   3.000   4.893 -2.2204  0.8214 -0.7596
 4078TIP3   OH233648   1.190   1.644  11.422 -0.5037  0.0512 -0.4290
 4078TIP3    H133649   1.284   1.625  11.417 -1.0706 -3.1975 -0.9307
 4078TIP3    H233650   1.179   1.688  11.507  1.1097 -2.3421  1.1474
 4079TIP3   OH233651   4.228   4.176   2.968  0.3193  0.0619 -0.5420
 4079TIP3    H133652   4.238   4.137   2.881 -0.6973 -0.4728 -0.4374
 4079TIP3    H233653   4.174   4.253   2.953 -1.3367 -0.9728 -0.1880
 4080TIP3   OH233654   3.913   1.618  12.568 -0.0556 -0.2385  0.6361
 4080TIP3    H133655   3.996   1.573  12.552 -0.5699 -1.3159  0.8394
 4080TIP3    H233656   3.847   1.549  12.557 -0.7099 -0.2094  3.6458
 4081TIP3   OH233657   1.885   4.974   1.445 -0.2116  0.1954 -0.9689
 4081TIP3    H133658   1.901   4.920   1.367 -0.3124  0.6257 -1.2907
 4081TIP3    H233659   1.793   4.999   1.438  0.3338  2.1875 -1.9775
 4082TIP3   OH233660   5.049   0.962  11.176 -0.4905  0.2011 -0.5117
 4082TIP3    H133661   5.117   1.020  11.210 -0.2600 -0.8804  0.9168
 4082TIP3    H233662   4.969   1.014  11.182 -0.4600  0.0835  1.7071
 4083TIP3   OH233663   2.648   6.034  14.456  0.0099  0.0553 -0.6762
 4083TIP3    H133664   2.725   6.059  14.407  0.2869 -0.3474 -0.4533
 4083TIP3    H233665   2.646   5.938  14.452  0.1017  0.0064  0.1783
 4084TIP3   OH233666   4.714   2.634  13.139 -0.0819  0.3543 -0.0135
 4084TIP3    H133667   4.713   2.646  13.234 -1.3421 -1.3993  0.2488
 4084TIP3    H233668   4.722   2.539  13.126  3.1269  0.7285 -1.7521
 4085TIP3   OH233669   5.563   2.817  15.783 -0.5205 -0.1864  0.1538
 4085TIP3    H133670   5.585   2.909  15.799 -1.7462  0.0416  0.6395
 4085TIP3    H233671   5.490   2.799  15.842 -1.6575 -0.8661 -1.3641
 4086TIP3   OH233672   0.055   5.433   4.964 -0.3737 -0.2140  0.1247
 4086TIP3    H133673   0.044   5.418   4.870 -2.4702 -4.4547  0.7967
 4086TIP3    H233674  -0.034   5.433   4.999  0.3932  0.5337  2.2587
 4087TIP3   OH233675   0.950   5.351  13.047 -0.1817  0.2619  0.3658
 4087TIP3    H133676   0.906   5.434  13.028  0.1995  0.9633  2.2824
 4087TIP3    H233677   1.031   5.377  13.091 -0.6279 -1.1099  2.1001
 4088TIP3   OH233678   0.213   0.496   5.138  0.4960  0.4784  0.6119
 4088TIP3    H133679   0.222   0.414   5.090  2.2707  1.2419 -0.4866
 4088TIP3    H233680   0.237   0.564   5.074  0.4543  1.7326  1.8805
 4089TIP3   OH233681   3.164   0.068  13.289  0.0506  0.1386  0.1434
 4089TIP3    H133682   3.227   0.100  13.225  0.5576 -1.1368 -0.0227
 4089TIP3    H233683   3.160   0.137  13.355  0.2323  1.0493 -0.7647
 4090TIP3   OH233684   3.021   0.622  15.610  0.0157 -0.6220  0.2833
 4090TIP3    H133685   3.047   0.573  15.688  0.3006 -0.9798 -0.0356
 4090TIP3    H233686   2.964   0.563  15.562 -0.2136 -0.3763  0.2535
 4091TIP3   OH233687   5.479   3.311   1.659 -0.5110 -0.6991 -0.6035
 4091TIP3    H133688   5.452   3.236   1.712 -2.2419 -0.0684 -0.5221
 4091TIP3    H233689   5.433   3.386   1.697  2.5269  0.8122  0.4413
 4092TIP3   OH233690   2.143   2.017   5.260  0.6107  0.2771  0.0521
 4092TIP3    H133691   2.215   1.966   5.222  1.2118  1.4343 -0.4330
 4092TIP3    H233692   2.066   1.993   5.209  1.0830  0.5620 -0.8152
 4093TIP3   OH233693   1.715   5.827   4.410  0.2437 -0.0956  0.7204
 4093TIP3    H133694   1.669   5.793   4.334 -0.1670  0.3907  0.7434
 4093TIP3    H233695   1.800   5.784   4.409 -0.5927 -1.8599  1.2971
 4094TIP3   OH233696   2.574   0.815   3.643 -0.3561 -0.0609 -0.2360
 4094TIP3    H133697   2.480   0.834   3.635  0.0633  1.6193 -1.6077
 4094TIP3    H233698   2.608   0.885   3.698  0.1990 -0.3243 -0.2402
 4095TIP3   OH233699   2.722   4.357   5.968 -0.1472 -0.0257 -0.1080
 4095TIP3    H133700   2.708   4.452   5.961 -0.6766  0.1262  2.2623
 4095TIP3    H233701   2.687   4.334   6.054 -0.6623 -2.5131 -0.9091
 4096TIP3   OH233702   5.385   2.033   0.767 -0.0927 -0.1078 -0.3083
 4096TIP3    H133703   5.420   2.037   0.856 -0.3281  1.3122 -0.2566
 4096TIP3    H233704   5.462   2.019   0.712  0.0992 -0.6365  0.0811
 4097TIP3   OH233705   4.890   5.643   4.365  0.0340  0.4663  0.1612
 4097TIP3    H133706   4.844   5.675   4.287  0.8429 -1.1322 -1.0358
 4097TIP3    H233707   4.822   5.634   4.431 -1.0896 -0.2922 -1.0653
 4098TIP3   OH233708   2.654   4.888  14.435  0.4835 -0.2172  0.1911
 4098TIP3    H133709   2.687   4.941  14.362  3.0160 -1.0796  0.5883
 4098TIP3    H233710   2.671   4.942  14.512  0.7443 -0.5645  0.3805
 4099TIP3   OH233711   6.173   5.383  12.133 -0.3188 -0.1952  0.4516
 4099TIP3    H133712   6.121   5.343  12.203 -1.6291 -0.9121 -0.8670
 4099TIP3    H233713   6.111   5.440  12.087 -0.0220 -1.2167 -1.2858
 4100TIP3   OH233714   6.241   6.183   4.175 -0.1032 -0.0429  0.1399
 4100TIP3    H133715   6.201   6.122   4.112 -1.6301 -0.5105  1.4979
 4100TIP3    H233716   6.201   6.268   4.153 -1.7120 -0.4517  1.2879
 4101TIP3   OH233717   5.465   5.768   3.423 -0.2940 -0.5986 -0.1391
 4101TIP3    H133718   5.557   5.744   3.436 -0.7483 -2.7528 -0.4645
 4101TIP3    H233719   5.436   5.802   3.508  1.1959  1.7973 -0.4959
 4102TIP3   OH233720   6.584   3.070  16.154  0.2961 -0.0367 -0.2911
 4102TIP3    H133721   6.555   2.978  16.152 -0.4761  0.1975 -0.0607
 4102TIP3    H233722   6.612   3.083  16.245 -0.7462  0.2973 -0.0075
 4103TIP3   OH233723   4.306   4.215   4.324 -0.5168  0.3775  0.1083
 4103TIP3    H133724   4.238   4.205   4.258  0.0466 -1.2924 -0.2656
 4103TIP3    H233725   4.387   4.226   4.274 -0.4251  1.8963  0.5485
 4104TIP3   OH233726   5.433   1.072   5.040 -0.2585 -0.0964 -0.0590
 4104TIP3    H133727   5.412   1.059   4.947  0.4532 -0.6344 -0.1572
 4104TIP3    H233728   5.524   1.043   5.048  0.1450  1.2475  0.5381
 4105TIP3   OH233729   3.566   3.194   4.858  0.0323  0.3211  0.8704
 4105TIP3    H133730   3.564   3.102   4.833 -2.4087  0.3636  0.6703
 4105TIP3    H233731   3.654   3.223   4.835 -0.0546 -1.2406 -1.8627
 4106TIP3   OH233732   2.820   5.121   0.642 -0.0330 -0.3192 -0.3629
 4106TIP3    H133733   2.743   5.069   0.620 -0.8151  0.9624 -0.7679
 4106TIP3    H233734   2.859   5.144   0.558 -0.0927  0.3158 -0.2218
 4107TIP3   OH233735   6.260   2.704   5.467  0.2360  0.1410  0.3373
 4107TIP3    H133736   6.271   2.733   5.558  0.0013 -1.9486  1.0882
 4107TIP3    H233737   6.207   2.625   5.474 -0.8816  0.6304 -1.7610
 4108TIP3   OH233738   4.427   1.089  16.966 -0.0099  0.4732  0.2828
 4108TIP3    H133739   4.505   1.057  17.012  0.0193  0.6456  0.3569
 4108TIP3    H233740   4.355   1.073  17.027  0.3771  3.3766  1.7272
 4109TIP3   OH233741   3.186   0.363  15.193  0.0582 -0.0883  0.2448
 4109TIP3    H133742   3.165   0.300  15.262 -0.9679  0.4768  0.4742
 4109TIP3    H233743   3.137   0.441  15.217  0.0011  0.2494 -0.9155
 4110TIP3   OH233744   3.699   0.632   6.608 -0.5190 -0.3761 -0.1556
 4110TIP3    H133745   3.660   0.562   6.555 -1.2339  0.1580 -0.3502
 4110TIP3    H233746   3.768   0.589   6.658 -1.7667 -1.4835  0.6711
 4111TIP3   OH233747   5.048   5.080  10.918  0.3608 -0.5323 -0.2729
 4111TIP3    H133748   5.138   5.106  10.898  0.2578  0.0247 -0.0260
 4111TIP3    H233749   5.029   5.011  10.855  0.2860  0.6861 -1.6371
 4112TIP3   OH233750   2.778   6.515   4.480  0.1405 -0.1136 -0.5149
 4112TIP3    H133751   2.845   6.504   4.548 -0.3547 -0.2443 -0.0419
 4112TIP3    H233752   2.826   6.550   4.405  0.6495  0.2847 -0.0146
 4113TIP3   OH233753   1.962   2.888   4.125  0.0647 -0.5175 -0.1650
 4113TIP3    H133754   1.891   2.944   4.093 -0.2522 -1.6760 -1.6010
 4113TIP3    H233755   1.917   2.819   4.174  0.2695 -0.7057 -0.2429
 4114TIP3   OH233756   3.167   1.034   3.466 -0.5244  0.1848 -0.1532
 4114TIP3    H133757   3.217   1.068   3.392 -1.3088 -0.2751 -0.9100
 4114TIP3    H233758   3.076   1.039   3.439 -0.9115  0.9146  1.1684
 4115TIP3   OH233759   0.656   5.952  16.061  0.2303  0.3419 -0.0462
 4115TIP3    H133760   0.695   5.877  16.016 -0.0343  0.1743  0.0050
 4115TIP3    H233761   0.580   5.976  16.008  1.2058  1.5819 -0.9568
 4116TIP3   OH233762   0.161   5.375   1.795 -0.0843  0.1592  0.2429
 4116TIP3    H133763   0.189   5.333   1.714 -1.3868 -1.5154  0.6168
 4116TIP3    H233764   0.217   5.336   1.862  0.3130  0.8048  0.2928
 4117TIP3   OH233765   0.807   4.443  15.049 -0.6247 -0.2092  0.0177
 4117TIP3    H133766   0.714   4.453  15.070 -0.1474  1.3258  1.6627
 4117TIP3    H233767   0.846   4.407  15.128  0.3048 -0.1759 -0.4118
 4118TIP3   OH233768   6.603   5.029  16.941 -1.0579 -0.1478 -0.2270
 4118TIP3    H133769   6.612   4.961  17.008 -1.4337 -0.5232 -0.5532
 4118TIP3    H233770   6.513   5.020  16.910  0.1760 -2.5604 -3.5693
 4119TIP3   OH233771   2.107   4.666  11.698 -0.3099 -1.0300 -0.1920
 4119TIP3    H133772   2.127   4.751  11.659 -0.2634 -1.2555 -0.6622
 4119TIP3    H233773   2.138   4.674  11.788 -0.1399 -0.6095 -0.2846
 4120TIP3   OH233774   4.655   0.457  16.997  0.1193 -0.0136  0.2834
 4120TIP3    H133775   4.621   0.542  16.968 -0.4866  0.0650  1.1637
 4120TIP3    H233776   4.577   0.403  17.010  0.4201 -0.3086  0.9147
 4121TIP3   OH233777   2.898   2.890   0.847 -0.1164  0.2184  0.8264
 4121TIP3    H133778   2.901   2.962   0.784 -0.5511 -0.7499 -0.3390
 4121TIP3    H233779   2.924   2.813   0.796 -0.7829 -0.6385  1.7596
 4122TIP3   OH233780   5.571   4.129   2.152 -0.4532  0.1899  0.1434
 4122TIP3    H133781   5.623   4.207   2.173 -0.0014  0.6926 -2.5123
 4122TIP3    H233782   5.619   4.056   2.191  0.3178  1.0153  0.7651
 4123TIP3   OH233783   5.672   2.724  12.583 -0.0544 -0.6330 -0.8728
 4123TIP3    H133784   5.734   2.793  12.603 -0.8714 -0.6662  2.2381
 4123TIP3    H233785   5.725   2.643  12.584  0.2454 -0.4356 -0.6819
 4124TIP3   OH233786   0.994   2.435  13.897  0.1750 -0.2476  0.4508
 4124TIP3    H133787   1.063   2.405  13.837 -1.7640 -0.6419 -1.7001
 4124TIP3    H233788   0.997   2.530  13.892 -0.4642 -0.2846 -0.9066
 4125TIP3   OH233789   3.856   0.865  16.524 -0.5417 -0.6926  0.2289
 4125TIP3    H133790   3.788   0.932  16.517 -0.9407 -1.0314  0.8256
 4125TIP3    H233791   3.811   0.783  16.503 -0.3342 -0.9262  0.6921
 4126TIP3   OH233792   6.679   4.261   1.009 -0.3206 -0.3145  0.0900
 4126TIP3    H133793   6.674   4.283   1.102  0.6610 -0.1684  0.1214
 4126TIP3    H233794   6.636   4.176   1.002  1.5241 -1.3903  1.0815
 4127TIP3   OH233795   2.684   1.183  11.296  0.0074 -0.2745  0.1893
 4127TIP3    H133796   2.739   1.131  11.355 -0.5440  0.9383  1.8491
 4127TIP3    H233797   2.746   1.233  11.243  0.5742  1.2166  2.1570
 4128TIP3   OH233798   6.255   2.652   2.597  0.7517 -0.7468 -0.5890
 4128TIP3    H133799   6.185   2.617   2.651  0.6599 -1.1338 -0.9550
 4128TIP3    H233800   6.328   2.666   2.658 -0.1113  1.1020  0.1032
 4129TIP3   OH233801   0.252   4.609   0.177  0.0681  0.0453  0.1649
 4129TIP3    H133802   0.326   4.551   0.193  0.1602 -0.2032 -1.0271
 4129TIP3    H233803   0.202   4.565   0.108  0.1593  1.3785 -0.7879
 4130TIP3   OH233804   6.790   1.687  14.846  0.2722  0.4083 -0.2593
 4130TIP3    H133805   6.788   1.782  14.830 -1.4218  0.6283  0.9856
 4130TIP3    H233806   6.815   1.679  14.938  1.2457 -0.4168 -0.5761
 4131TIP3   OH233807   5.489   6.448   0.915 -0.3312 -0.1748 -0.6336
 4131TIP3    H133808   5.416   6.387   0.901 -0.6107  0.1640 -0.6553
 4131TIP3    H233809   5.547   6.402   0.976 -0.4799 -0.5144 -0.7465
 4132TIP3   OH233810   0.630   0.947  15.411  0.4060  0.0431 -0.3697
 4132TIP3    H133811   0.588   0.885  15.351 -1.6493  0.0540  0.9561
 4132TIP3    H233812   0.564   1.015  15.425  2.5141  2.4877 -1.5907
 4133TIP3   OH233813   6.454   2.820  16.166  0.6285 -0.0735  0.7064
 4133TIP3    H133814   6.403   2.746  16.133 -0.0779  0.8114 -0.2545
 4133TIP3    H233815   6.471   2.799  16.258 -0.6301 -0.8573  0.7828
 4134TIP3   OH233816   2.878   1.819   6.061  0.0253 -0.5347 -0.3057
 4134TIP3    H133817   2.842   1.905   6.040  1.0917  0.4248  1.4943
 4134TIP3    H233818   2.802   1.762   6.071 -0.7804  0.5091 -0.3323
 4135TIP3   OH233819   3.075   5.581   2.390 -0.0239  0.0383  0.3092
 4135TIP3    H133820   3.054   5.495   2.428 -2.4813 -0.1243 -1.2124
 4135TIP3    H233821   3.131   5.560   2.315  0.6442 -0.0563  0.8162
 4136TIP3   OH233822   0.928   6.478   1.463  0.1554  0.2284 -0.2608
 4136TIP3    H133823   1.000   6.418   1.484  1.3267  1.0095 -1.8820
 4136TIP3    H233824   0.878   6.484   1.545  0.5010 -2.2441  0.2118
 4137TIP3   OH233825   5.588   1.990  15.436  0.0706 -0.1936 -0.2970
 4137TIP3    H133826   5.614   2.081  15.420 -0.4268 -0.5660 -4.0210
 4137TIP3    H233827   5.501   1.996  15.475  0.7543  0.8893  1.1646
 4138TIP3   OH233828   6.203   2.364   2.863  0.0411 -0.5501  0.5437
 4138TIP3    H133829   6.192   2.386   2.771  1.8641  0.9783  0.6260
 4138TIP3    H233830   6.175   2.273   2.870 -0.0348 -0.7259 -1.5295
 4139TIP3   OH233831   6.205   3.004  16.498 -0.0022  0.7612  0.0254
 4139TIP3    H133832   6.111   2.988  16.491 -0.0797  0.5924  1.2435
 4139TIP3    H233833   6.230   3.036  16.412 -1.1888  0.8656 -0.3013
 4140TIP3   OH233834   0.157   1.637   3.593  0.0702  0.0318  0.1163
 4140TIP3    H133835   0.245   1.673   3.588 -0.0416  0.3633  0.4779
 4140TIP3    H233836   0.151   1.598   3.680  0.1801 -0.8494 -0.2607
 4141TIP3   OH233837   5.618   6.384  15.701 -0.0506 -0.0138  0.4074
 4141TIP3    H133838   5.632   6.290  15.705  0.4766  0.0506  0.1841
 4141TIP3    H233839   5.646   6.409  15.614  0.6422  0.4794  0.7614
 4142TIP3   OH233840   0.138   3.911   3.604 -0.0326 -0.0741 -0.2071
 4142TIP3    H133841   0.225   3.883   3.576  0.1062 -0.0088  0.1482
 4142TIP3    H233842   0.126   3.997   3.565  0.0174 -0.1312 -0.3479
 4143TIP3   OH233843   1.250   5.095  10.946  0.0847  0.3011  0.3820
 4143TIP3    H133844   1.328   5.136  10.909  0.1708  0.8366  1.1448
 4143TIP3    H233845   1.177   5.133  10.896  0.2055  0.9434  0.6831
 4144TIP3   OH233846   5.570   6.294  10.726 -0.0148  0.1234 -0.4982
 4144TIP3    H133847   5.643   6.356  10.728  0.4595 -0.4294 -0.4250
 4144TIP3    H233848   5.527   6.306  10.811 -0.1880  0.6596 -0.6587
 4145TIP3   OH233849   4.608   6.015  13.417 -0.2988  0.3124 -0.1129
 4145TIP3    H133850   4.522   6.056  13.409 -0.2417  0.6034  0.7290
 4145TIP3    H233851   4.598   5.929  13.376 -0.7557  0.6712 -0.7748
 4146TIP3   OH233852   1.761   0.134   3.233  0.0375 -0.1931  0.4263
 4146TIP3    H133853   1.737   0.131   3.326 -0.1591 -1.4263  0.3547
 4146TIP3    H233854   1.700   0.073   3.191 -0.5691  1.1135 -0.6875
 4147TIP3   OH233855   1.882   4.671   3.977 -0.2500  0.6659  0.2949
 4147TIP3    H133856   1.892   4.577   3.990  0.4546  0.9805  2.3452
 4147TIP3    H233857   1.970   4.702   3.955 -0.4116  0.9050 -0.0286
 4148TIP3   OH233858   4.526   1.868   6.357  0.5764 -0.0053 -0.3395
 4148TIP3    H133859   4.584   1.809   6.308 -2.1696 -2.6633 -0.6838
 4148TIP3    H233860   4.543   1.849   6.449  0.3308 -0.7067 -0.4371
 4149TIP3   OH233861   1.465   1.714  11.441  0.8916 -0.4673  0.6017
 4149TIP3    H133862   1.483   1.690  11.532  0.3342  0.9736  1.1152
 4149TIP3    H233863   1.486   1.807  11.435 -0.3600 -0.2108 -0.3900
 4150TIP3   OH233864   5.222   2.578  12.592 -0.0342 -0.2610 -0.3410
 4150TIP3    H133865   5.300   2.523  12.591 -0.4907 -0.9172 -1.1414
 4150TIP3    H233866   5.191   2.573  12.682  0.6311 -0.3124 -0.1120
 4151TIP3   OH233867   5.368   4.342  14.284 -0.0968 -0.4475  0.0251
 4151TIP3    H133868   5.333   4.400  14.217 -0.3257  1.2415  1.5205
 4151TIP3    H233869   5.413   4.400  14.345  1.3483 -2.0767  0.5980
 4152TIP3   OH233870   2.688   0.100  11.639 -0.4488 -0.4136  0.0412
 4152TIP3    H133871   2.680   0.078  11.546 -1.6748  0.7660 -0.1607
 4152TIP3    H233872   2.725   0.188  11.641 -0.3799 -0.4480  0.6818
 4153TIP3   OH233873   2.282   5.176   1.842  0.1150  0.1554 -0.0569
 4153TIP3    H133874   2.217   5.229   1.795 -1.1107 -0.4699  0.8668
 4153TIP3    H233875   2.274   5.089   1.803  0.8020  0.1921 -0.2993
 4154TIP3   OH233876   1.143   4.533   5.466  0.4066  0.6104 -0.4137
 4154TIP3    H133877   1.220   4.516   5.521  1.1385  0.8391 -1.3238
 4154TIP3    H233878   1.097   4.449   5.463  2.1449 -0.3679 -2.1000
 4155TIP3   OH233879   2.394   3.616  15.886 -0.0771 -0.1117  0.0885
 4155TIP3    H133880   2.342   3.640  15.962  0.7284 -0.6661  0.8269
 4155TIP3    H233881   2.464   3.681  15.882  0.7595 -0.9374  0.7355
 4156TIP3   OH233882   2.491   3.779   0.927 -0.5330  0.0218  0.9826
 4156TIP3    H133883   2.527   3.858   0.967 -1.0365  0.3385  0.8247
 4156TIP3    H233884   2.537   3.707   0.969  0.7589  0.4268  0.3320
 4157TIP3   OH233885   2.247   0.362  13.301  0.1118 -0.4351 -0.0408
 4157TIP3    H133886   2.305   0.348  13.376 -0.6715  0.7986  0.8312
 4157TIP3    H233887   2.285   0.436  13.255 -0.4107 -0.0222  0.1814
 4158TIP3   OH233888   2.995   2.836   4.544 -0.4014  0.4828  0.2248
 4158TIP3    H133889   2.998   2.817   4.451  1.1481 -1.5078  0.6154
 4158TIP3    H233890   3.086   2.828   4.574 -0.7605  1.6942  1.8154
 4159TIP3   OH233891   3.427   0.704   3.498 -0.1330 -0.0753  0.0844
 4159TIP3    H133892   3.352   0.670   3.449  1.2927 -2.0815 -0.8322
 4159TIP3    H233893   3.459   0.629   3.548  1.5035  0.6054  0.1242
 4160TIP3   OH233894   2.535   0.073  15.613 -0.1140 -0.3477  0.1671
 4160TIP3    H133895   2.598   0.080  15.684  1.1128  0.7942 -0.9564
 4160TIP3    H233896   2.517  -0.021  15.605  0.9172 -0.6310  0.9678
 4161TIP3   OH233897   5.899   4.309  12.606  0.1176  0.0190 -0.7931
 4161TIP3    H133898   5.945   4.232  12.574 -0.9721 -0.6394 -0.8374
 4161TIP3    H233899   5.888   4.293  12.700  1.7104  1.1049 -0.3878
 4162TIP3   OH233900   5.613   5.667  15.523 -0.1226 -0.3182 -0.2574
 4162TIP3    H133901   5.704   5.648  15.546  0.0761 -1.4540 -1.8205
 4162TIP3    H233902   5.617   5.752  15.478  0.0202  0.0171  0.3622
 4163TIP3   OH233903   5.831   5.162  16.534 -0.1695 -0.1048  0.3759
 4163TIP3    H133904   5.737   5.150  16.544 -0.2582  0.9210  0.9475
 4163TIP3    H233905   5.844   5.257  16.539  1.1681 -0.3327  3.0955
 4164TIP3   OH233906   0.123   5.128  14.879 -0.0579 -0.5501 -0.5627
 4164TIP3    H133907   0.143   5.221  14.895  1.5456 -1.1125  1.0315
 4164TIP3    H233908   0.115   5.122  14.784  0.6646  1.0776 -0.7701
 4165TIP3   OH233909   5.735   2.639   0.708 -0.0348  0.4444  0.3952
 4165TIP3    H133910   5.720   2.638   0.613 -0.2095  1.2034  0.4046
 4165TIP3    H233911   5.656   2.599   0.745  0.1524 -0.1051  0.2166
 4166TIP3   OH233912   1.828   1.159   2.381 -0.2904 -0.1004  0.1507
 4166TIP3    H133913   1.900   1.217   2.408  1.6870 -2.5257  0.5330
 4166TIP3    H233914   1.802   1.115   2.461  0.6895 -2.1840 -0.5877
 4167TIP3   OH233915   1.151   3.092  15.375  0.6957 -0.5413  0.4994
 4167TIP3    H133916   1.119   3.074  15.287  0.6480  0.6071  0.2722
 4167TIP3    H233917   1.084   3.148  15.414  0.7908 -0.9108  1.2208
 4168TIP3   OH233918   5.726   6.688   5.965 -0.1837  0.1894  0.1256
 4168TIP3    H133919   5.814   6.698   6.002 -0.4126  0.3807  0.6381
 4168TIP3    H233920   5.667   6.715   6.036 -0.6715 -0.4122 -0.0373
 4169TIP3   OH233921   4.543   0.271   2.193 -0.4684 -0.5306 -0.2019
 4169TIP3    H133922   4.631   0.268   2.231 -0.4065 -0.4742 -0.3413
 4169TIP3    H233923   4.507   0.354   2.224 -0.6263 -0.7440  0.1951
 4170TIP3   OH233924   4.890   3.810   5.065 -0.1036 -0.4954 -0.7471
 4170TIP3    H133925   4.953   3.859   5.012  0.2049 -1.6482 -1.4666
 4170TIP3    H233926   4.941   3.739   5.103 -0.3004  0.3340  1.1871
 4171TIP3   OH233927   0.494   3.584   5.228 -0.0606  0.2314 -0.6323
 4171TIP3    H133928   0.413   3.591   5.279  0.8192  2.3009  0.5728
 4171TIP3    H233929   0.508   3.672   5.193  2.2520  0.2016  0.1029
 4172TIP3   OH233930   6.470   6.612   1.740 -0.1733 -0.3278 -0.4769
 4172TIP3    H133931   6.452   6.706   1.741 -0.9917 -0.4763  0.5792
 4172TIP3    H233932   6.519   6.596   1.821  1.5069 -0.5497 -1.4977
 4173TIP3   OH233933   5.109   1.560  11.441  0.5148 -0.1980  0.2450
 4173TIP3    H133934   5.068   1.477  11.414 -1.9039  2.0631 -4.2604
 4173TIP3    H233935   5.065   1.583  11.523 -2.9142 -0.9121 -1.2083
 4174TIP3   OH233936   4.659   2.381   5.492 -0.3589  0.8547 -0.1919
 4174TIP3    H133937   4.713   2.452   5.458 -0.3125  0.5479 -0.7812
 4174TIP3    H233938   4.629   2.335   5.414  0.5077 -0.4381  0.1932
 4175TIP3   OH233939   3.760   0.123   0.294  0.6210  0.0148 -0.1079
 4175TIP3    H133940   3.684   0.179   0.279  0.0008 -1.1993 -2.0120
 4175TIP3    H233941   3.835   0.175   0.267  0.5506  1.3089  2.0071
 4176TIP3   OH233942   5.008   5.343  10.767  0.3802  0.3386 -0.3136
 4176TIP3    H133943   5.077   5.378  10.824 -0.7008  1.5776  0.2870
 4176TIP3    H233944   4.988   5.257  10.804  0.4297  0.6845  0.5568
 4177TIP3   OH233945   3.717   4.210  13.046  0.7395 -0.3877 -0.3483
 4177TIP3    H133946   3.759   4.271  12.985  0.2984  0.2547 -0.0325
 4177TIP3    H233947   3.687   4.138  12.991  1.1036 -0.2252 -0.7626
 4178TIP3   OH233948   5.112   3.416   5.778  0.3265  0.4102 -0.0147
 4178TIP3    H133949   5.143   3.428   5.689  1.8926 -0.9908  0.2945
 4178TIP3    H233950   5.032   3.469   5.783  1.3340  2.2032 -1.5880
 4179TIP3   OH233951   3.015   1.530  12.331  0.0709  0.1207  0.1257
 4179TIP3    H133952   2.933   1.564  12.297 -0.3569 -0.4337  0.5897
 4179TIP3    H233953   2.991   1.486  12.412  0.8341 -0.0041  0.2913
 4180TIP3   OH233954   3.245   6.296  13.794  0.4396 -0.6936 -0.0935
 4180TIP3    H133955   3.183   6.308  13.867  0.3706  0.5703 -0.3282
 4180TIP3    H233956   3.195   6.251  13.727 -0.8702  1.8896 -0.9948
 4181TIP3   OH233957   3.692   1.687   4.098  0.1915 -0.2999  0.4729
 4181TIP3    H133958   3.720   1.754   4.161  0.0491 -0.2892  0.5253
 4181TIP3    H233959   3.701   1.604   4.145  0.0366 -0.2876  0.5246
 4182TIP3   OH233960   0.469   6.818  14.637 -0.0490  0.6634  0.4147
 4182TIP3    H133961   0.563   6.808  14.654 -0.5205 -1.9237  1.9192
 4182TIP3    H233962   0.455   6.775  14.553 -0.0611 -0.0524  0.7781
 4183TIP3   OH233963   6.634   3.881   1.842  0.2889 -0.4260  0.1606
 4183TIP3    H133964   6.616   3.812   1.778 -1.3137 -0.7384  0.9096
 4183TIP3    H233965   6.612   3.842   1.926  2.3561 -0.0224  0.9541
 4184TIP3   OH233966   0.675   1.374  13.403  0.7517 -0.4363 -0.2178
 4184TIP3    H133967   0.633   1.448  13.446 -0.9429 -1.3397 -0.2516
 4184TIP3    H233968   0.608   1.306  13.399  2.5106 -2.3761  0.6997
 4185TIP3   OH233969   2.489   5.120  14.583  0.0810 -0.1866  0.4353
 4185TIP3    H133970   2.578   5.118  14.617  0.6214  0.5939 -0.8472
 4185TIP3    H233971   2.472   5.212  14.565 -1.1282 -0.2851  0.9811
 4186TIP3   OH233972   5.146   2.278   2.167  0.4137  0.1261  0.1194
 4186TIP3    H133973   5.099   2.325   2.235 -0.6294 -0.7021  0.0023
 4186TIP3    H233974   5.118   2.320   2.085 -0.7069 -0.8025 -0.0044
 4187TIP3   OH233975   3.324   4.347  11.707  0.0788  0.4178  0.1068
 4187TIP3    H133976   3.378   4.426  11.717  2.3821 -1.1645  1.0781
 4187TIP3    H233977   3.351   4.290  11.779 -3.0212 -0.5030  0.6923
 4188TIP3   OH233978   4.387   1.678  11.824 -0.3868 -0.4931 -0.0394
 4188TIP3    H133979   4.432   1.756  11.790  1.1931 -1.8714 -1.2440
 4188TIP3    H233980   4.317   1.661  11.761 -0.7636 -0.0513  0.2506
 4189TIP3   OH233981   1.331   3.297  12.412  0.2951  0.3159  0.1415
 4189TIP3    H133982   1.362   3.225  12.357  2.2319  0.3620  1.0739
 4189TIP3    H233983   1.327   3.259  12.500 -0.1611  0.9503  0.4005
 4190TIP3   OH233984   1.077   3.865  12.222  0.4096 -0.4628 -0.3997
 4190TIP3    H133985   1.119   3.939  12.178 -1.6710  1.9447  1.4230
 4190TIP3    H233986   0.985   3.871  12.196 -0.6540  0.2791  3.0748
 4191TIP3   OH233987   0.244   0.575   1.624  0.1804 -0.1047  0.2665
 4191TIP3    H133988   0.257   0.550   1.716 -0.9502  0.8458  0.7019
 4191TIP3    H233989   0.154   0.548   1.604  0.2884  0.0440 -0.4515
 4192TIP3   OH233990   6.608   2.139   2.644 -0.2552 -0.2986  0.7212
 4192TIP3    H133991   6.680   2.077   2.658 -0.7639 -0.7758  1.2346
 4192TIP3    H233992   6.649   2.225   2.654  0.5389 -0.5194 -0.3620
 4193TIP3   OH233993   4.461   2.917  15.787  0.1182 -0.8549  1.4361
 4193TIP3    H133994   4.525   2.927  15.717  0.8250 -0.6086  2.1004
 4193TIP3    H233995   4.496   2.847  15.842 -0.5514 -1.2103  1.4232
 4194TIP3   OH233996   1.143   2.483  11.997  0.2258 -0.3554  0.6112
 4194TIP3    H133997   1.110   2.572  12.010 -0.1713 -0.2764 -0.7631
 4194TIP3    H233998   1.228   2.494  11.956  0.7083 -0.6109  1.5140
 4195TIP3   OH233999   3.262   6.458   0.573  0.1893 -0.1226  0.0354
 4195TIP3    H134000   3.335   6.512   0.544  0.5612 -0.3949  0.4493
 4195TIP3    H234001   3.217   6.431   0.493  1.1181 -0.7559 -0.2819
 4196TIP3   OH234002   6.082   4.410   2.201  0.2542 -0.1646  0.5943
 4196TIP3    H134003   6.041   4.461   2.272 -1.6833 -0.3837 -0.2955
 4196TIP3    H234004   6.095   4.323   2.239  1.7380  0.4135  1.4941
 4197TIP3   OH234005   6.521   6.810   3.464 -0.7428  0.1270  0.7884
 4197TIP3    H134006   6.573   6.890   3.471 -1.2322  0.4338  0.9103
 4197TIP3    H234007   6.498   6.788   3.554  1.7776 -1.7572  1.1106
 4198TIP3   OH234008   0.226   4.439   4.612  0.2378 -0.3631  0.3134
 4198TIP3    H134009   0.164   4.429   4.684  0.4805 -0.6021  0.4890
 4198TIP3    H234010   0.173   4.426   4.533  0.0544 -0.5174  0.4623
 4199TIP3   OH234011   5.797   1.838   2.070  0.0383  0.1622 -0.0322
 4199TIP3    H134012   5.753   1.888   2.001 -0.3198  1.3771  1.0202
 4199TIP3    H234013   5.837   1.764   2.025 -1.1829  0.2605 -1.3547
 4200TIP3   OH234014   1.695   1.955   4.147 -0.3516 -0.0913 -0.0639
 4200TIP3    H134015   1.720   1.868   4.118  0.8282  0.3013 -0.2526
 4200TIP3    H234016   1.639   1.940   4.223  3.0334 -1.0096  2.4871
 4201TIP3   OH234017   0.499   4.343   2.113  0.3288 -0.3321  0.1085
 4201TIP3    H134018   0.539   4.410   2.168  0.7137  0.3224 -0.9449
 4201TIP3    H234019   0.411   4.376   2.093  0.3208 -0.4018  0.0250
 4202TIP3   OH234020   3.926   6.043   3.656 -0.4606  0.2027 -0.3348
 4202TIP3    H134021   3.949   5.951   3.665  0.6958  0.6020  1.1939
 4202TIP3    H234022   4.007   6.090   3.675 -0.8616  1.5467 -1.7253
 4203TIP3   OH234023   1.095   6.483   2.733 -0.6508  0.1900  0.6591
 4203TIP3    H134024   1.004   6.473   2.705  0.0505  0.7998 -2.0616
 4203TIP3    H234025   1.105   6.576   2.750 -0.3172  0.2681  0.0606
 4204TIP3   OH234026   2.981   0.022  13.829  0.6862  0.0823 -0.1454
 4204TIP3    H134027   3.024   0.101  13.796  0.5330  0.6748  1.0061
 4204TIP3    H234028   3.053  -0.032  13.861  0.7339  0.1170 -0.1940
 4205TIP3   OH234029   0.266   4.359  10.287 -1.5869  0.2136  0.6404
 4205TIP3    H134030   0.246   4.402  10.370 -1.6856  0.7470  0.3470
 4205TIP3    H234031   0.361   4.344  10.290 -1.5122  0.6677  0.6523
 4206TIP3   OH234032   2.429   4.924  13.784 -0.2044 -0.1162  0.2805
 4206TIP3    H134033   2.409   4.956  13.696  1.7914 -1.4200 -0.7408
 4206TIP3    H234034   2.520   4.950  13.799  0.0347 -1.3626  1.2326
 4207TIP3   OH234035   0.769   5.599   5.697  0.1215  0.0800  0.3309
 4207TIP3    H134036   0.764   5.578   5.791 -1.3119  1.3520  0.5620
 4207TIP3    H234037   0.714   5.533   5.655  1.9357 -1.4225  0.1688
 4208TIP3   OH234038   2.435   3.721   0.654  0.0196 -0.0284  0.7157
 4208TIP3    H134039   2.495   3.730   0.729  0.1612  0.3350  0.5612
 4208TIP3    H234040   2.349   3.743   0.691  0.0681  0.0118  0.8075
 4209TIP3   OH234041   0.031   1.153  16.990  0.1301  0.3548 -0.0675
 4209TIP3    H134042  -0.048   1.130  17.038  0.1572 -2.6119 -1.2392
 4209TIP3    H234043  -0.001   1.200  16.913 -0.1481  2.2446  1.1382
 4210TIP3   OH234044   4.228   2.904   2.388  0.5457 -0.3642  0.6506
 4210TIP3    H134045   4.215   2.889   2.482  1.2650 -0.3338  0.7599
 4210TIP3    H234046   4.159   2.966   2.365 -1.3265 -2.3198  0.5831
 4211TIP3   OH234047   1.784   5.423   0.020  0.2172 -0.3017 -0.1063
 4211TIP3    H134048   1.872   5.417  -0.017  0.4181 -0.6663  0.4116
 4211TIP3    H234049   1.727   5.437  -0.055  0.8514  1.3210 -0.3350
 4212TIP3   OH234050   1.740   6.040  11.194 -0.3037  0.1000 -0.8567
 4212TIP3    H134051   1.665   6.095  11.170 -0.1068 -0.3848 -2.6466
 4212TIP3    H234052   1.722   5.955  11.155  1.1404 -0.0436 -1.2839
 4213TIP3   OH234053   5.055   3.913   0.114  0.0416  0.4167 -0.5327
 4213TIP3    H134054   5.007   3.841   0.074  2.2662 -2.0772  0.9908
 4213TIP3    H234055   5.097   3.958   0.041 -1.1311  0.0190 -1.4865
 4214TIP3   OH234056   1.569   5.325   4.237 -0.5494 -0.1153  0.4255
 4214TIP3    H134057   1.631   5.383   4.282 -1.5630  1.3104  0.0753
 4214TIP3    H234058   1.613   5.299   4.157 -0.2789  0.6452  0.3209
 4215TIP3   OH234059   2.957   4.671   4.782  0.6119 -0.2362 -0.3593
 4215TIP3    H134060   2.873   4.704   4.750  0.5522 -1.0146 -1.0602
 4215TIP3    H234061   3.013   4.748   4.785  0.1138  0.1498 -0.7259
 4216TIP3   OH234062   6.782   0.641   1.943  0.6630 -0.1412  0.1209
 4216TIP3    H134063   6.740   0.567   1.987  0.1514 -0.5142 -0.9633
 4216TIP3    H234064   6.869   0.608   1.918  0.5317 -0.2925 -0.1366
 4217TIP3   OH234065   3.279   0.741  15.329 -0.3894 -0.5126  0.3020
 4217TIP3    H134066   3.196   0.703  15.302  0.0445 -1.5796  0.4148
 4217TIP3    H234067   3.327   0.668  15.368  0.4582  0.1694  0.5683
 4218TIP3   OH234068   3.311   6.488   1.215  0.2069  0.1181 -0.6182
 4218TIP3    H134069   3.225   6.459   1.184 -1.1076  1.7276  1.2270
 4218TIP3    H234070   3.330   6.567   1.164  1.5397 -1.2552 -2.3381
 4219TIP3   OH234071   2.615   3.707  14.527 -0.6567  0.1000 -0.0752
 4219TIP3    H134072   2.558   3.680  14.455  0.4673 -0.8268 -0.6502
 4219TIP3    H234073   2.563   3.694  14.606 -1.1752 -0.8997 -0.5689
 4220TIP3   OH234074   5.343   5.216   4.690  0.1111 -0.0796 -0.0811
 4220TIP3    H134075   5.426   5.214   4.738 -0.2432 -1.7131  0.5132
 4220TIP3    H234076   5.299   5.296   4.720  1.5940  1.0306 -0.6908
 4221TIP3   OH234077   1.735   3.075  15.113  0.5297  0.5847 -0.2150
 4221TIP3    H134078   1.730   3.109  15.024 -1.3621  0.3816 -0.2303
 4221TIP3    H234079   1.739   3.153  15.169 -0.2541  0.7801 -0.4131
 4222TIP3   OH234080   2.378   4.617  16.964 -0.2105  0.0491  0.0985
 4222TIP3    H134081   2.283   4.625  16.964 -0.2193  0.1454 -0.9332
 4222TIP3    H234082   2.402   4.605  17.056 -1.2050  0.1419  0.3772
 4223TIP3   OH234083   4.206   6.194   6.253  0.2875  0.0678 -0.2856
 4223TIP3    H134084   4.271   6.151   6.197  0.5172  1.7214 -1.3597
 4223TIP3    H234085   4.207   6.286   6.225  0.7540  1.0955  2.8131
 4224TIP3   OH234086   2.034   5.134  13.928  0.0063  0.0133 -0.7779
 4224TIP3    H134087   2.083   5.215  13.917 -0.1560  0.0907 -0.9284
 4224TIP3    H234088   2.006   5.110  13.840 -0.4318  0.0981 -0.6663
 4225TIP3   OH234089   2.186   2.000   0.610 -0.3639 -0.4052 -0.2179
 4225TIP3    H134090   2.196   1.939   0.683 -0.5027  0.1077  0.2242
 4225TIP3    H234091   2.269   2.047   0.607 -0.3328 -0.4725 -0.4370
 4226TIP3   OH234092   4.091   3.633   4.196 -0.7452 -0.2093  0.1800
 4226TIP3    H134093   4.071   3.710   4.249 -0.1654 -0.0151  0.1260
 4226TIP3    H234094   4.007   3.588   4.186 -0.6412 -1.1326  2.6173
 4227TIP3   OH234095   4.726   5.365  11.589 -0.2840  0.6142  0.0261
 4227TIP3    H134096   4.781   5.354  11.666  0.0364 -0.3665 -0.3276
 4227TIP3    H234097   4.734   5.282  11.541 -0.2726  1.2828 -1.1843
 4228TIP3   OH234098   2.790   4.945  12.188  0.0588 -0.3379 -0.0459
 4228TIP3    H134099   2.834   4.860  12.191  1.8274  0.3819 -2.3554
 4228TIP3    H234100   2.844   5.002  12.243  0.1141 -0.2187 -0.2232
 4229TIP3   OH234101   2.642   3.939  11.968 -0.7931 -0.1245  0.2116
 4229TIP3    H134102   2.680   3.914  12.052 -2.9798 -0.7026  1.0935
 4229TIP3    H234103   2.559   3.892  11.964 -1.5060  1.1648 -1.5495
 4230TIP3   OH234104   4.128   3.784  10.704  0.2796  0.4433  0.4747
 4230TIP3    H134105   4.077   3.794  10.785 -0.0476 -1.0036  0.4784
 4230TIP3    H234106   4.065   3.752  10.640  0.5753  1.4398 -0.3279
 4231TIP3   OH234107   3.379   4.061   1.048 -0.6566  0.3026 -0.1609
 4231TIP3    H134108   3.412   4.037   1.135 -1.8691  0.3776  0.3474
 4231TIP3    H234109   3.454   4.098   1.003  0.0674 -0.0096  0.7611
 4232TIP3   OH234110   6.802   4.488   1.079 -0.3418  0.2685 -0.6226
 4232TIP3    H134111   6.797   4.418   1.014  4.4252 -0.7720 -0.2650
 4232TIP3    H234112   6.764   4.450   1.158 -0.9178 -0.6466 -1.3254
 4233TIP3   OH234113   2.121   1.212  14.534 -0.0818 -0.1097  0.1798
 4233TIP3    H134114   2.043   1.267  14.533 -0.2971 -0.2730  2.4428
 4233TIP3    H234115   2.178   1.252  14.600  1.4535 -0.4140 -0.9050
 4234TIP3   OH234116   6.207   3.764  13.983  0.5746 -0.0405 -0.0960
 4234TIP3    H134117   6.170   3.684  13.944  1.0906  0.0717 -0.8408
 4234TIP3    H234118   6.248   3.735  14.064  1.2486 -0.6456 -0.6370
 4235TIP3   OH234119   6.316   6.689   3.850  0.4729 -0.4459  0.1582
 4235TIP3    H134120   6.275   6.748   3.913  0.0138 -0.4558 -0.1237
 4235TIP3    H234121   6.397   6.733   3.825  1.5837 -1.2824  2.1038
 4236TIP3   OH234122   5.785   1.602  14.964  0.2511 -0.0430 -0.1855
 4236TIP3    H134123   5.847   1.548  15.012  0.0390  0.1628  0.3300
 4236TIP3    H234124   5.831   1.685  14.949  0.7772 -0.5511 -1.4633
 4237TIP3   OH234125   4.807   3.652   2.469  0.2919  0.4618 -0.1103
 4237TIP3    H134126   4.731   3.594   2.460  0.1936  0.2808  1.6409
 4237TIP3    H234127   4.794   3.697   2.552  1.8436  0.8355 -0.0381
 4238TIP3   OH234128   2.395   1.779  14.183 -0.1339  0.1287  0.1478
 4238TIP3    H134129   2.301   1.758  14.178 -0.0724 -0.1765  0.2582
 4238TIP3    H234130   2.420   1.797  14.092 -0.1858 -0.2851  0.0496
 4239TIP3   OH234131   2.088   3.865   2.184  0.0374 -0.4955 -0.2701
 4239TIP3    H134132   2.158   3.931   2.181  1.6352 -2.0162  1.2361
 4239TIP3    H234133   2.036   3.889   2.261 -0.6586  0.1540 -0.9173
 4240TIP3   OH234134   6.808   3.312  14.816  0.5957 -0.0005  0.4114
 4240TIP3    H134135   6.729   3.330  14.867  0.7154  0.7578  0.3454
 4240TIP3    H234136   6.864   3.389  14.831 -0.1401  1.2115 -2.3741
 4241TIP3   OH234137   3.925   3.553   5.068 -0.2583 -0.2422  0.2392
 4241TIP3    H134138   3.841   3.596   5.087  1.4309  3.6153 -0.0863
 4241TIP3    H234139   3.960   3.531   5.154 -0.2201  1.1568  0.6047
 4242TIP3   OH234140   1.948   2.989   3.633  0.5792  0.2637 -0.2897
 4242TIP3    H134141   1.899   3.071   3.625  3.3655  2.2739  1.3730
 4242TIP3    H234142   1.948   2.970   3.727 -1.2204 -2.5800 -0.7311
 4243TIP3   OH234143   3.565   5.793  15.037 -0.0286 -0.0195  0.0335
 4243TIP3    H134144   3.602   5.845  15.109  0.0019 -1.0426  0.7819
 4243TIP3    H234145   3.574   5.702  15.066 -2.4661 -0.3546 -0.0439
 4244TIP3   OH234146   3.759   4.998   0.950  0.5858 -0.0106  0.2928
 4244TIP3    H134147   3.749   4.968   0.859 -0.9340  1.6010 -0.1337
 4244TIP3    H234148   3.767   4.918   1.001  1.0988 -0.9654 -1.2150
 4245TIP3   OH234149   6.307   5.139   6.276 -0.2803  0.2543  0.3255
 4245TIP3    H134150   6.220   5.153   6.315 -0.5271  0.3423 -0.2510
 4245TIP3    H234151   6.299   5.056   6.230  0.5966 -0.8591  2.0759
 4246TIP3   OH234152   1.375   0.148  16.502  0.2532  0.4166  0.1064
 4246TIP3    H134153   1.422   0.171  16.582 -0.1653  0.8224  0.2418
 4246TIP3    H234154   1.284   0.137  16.530 -0.4612  3.2572 -0.7095
 4247TIP3   OH234155   5.692   1.169  14.574 -0.0549  0.6564  0.1706
 4247TIP3    H134156   5.613   1.224  14.567 -1.8208 -1.6090  0.9197
 4247TIP3    H234157   5.696   1.123  14.490 -0.1401  0.0116  0.5168
 4248TIP3   OH234158   3.029   4.475  10.808  0.1468 -0.3026  0.0122
 4248TIP3    H134159   3.017   4.482  10.714 -1.2423 -3.4145 -0.1828
 4248TIP3    H234160   3.104   4.416  10.818  1.2717  1.2170  0.9386
 4249TIP3   OH234161   5.144   2.089   4.246 -0.0748 -0.2456 -0.3822
 4249TIP3    H134162   5.100   2.009   4.275  0.7539 -0.1546  1.2518
 4249TIP3    H234163   5.229   2.059   4.215 -0.4427 -0.1833 -1.4709
 4250TIP3   OH234164   0.368   1.197   5.140  0.3983  0.5995  0.7603
 4250TIP3    H134165   0.303   1.265   5.123 -0.6811 -0.4986  0.2862
 4250TIP3    H234166   0.428   1.202   5.066 -1.2876 -0.7370 -0.8049
 4251TIP3   OH234167   5.105   6.363   6.672 -0.0060  0.3992 -0.0784
 4251TIP3    H134168   5.126   6.298   6.740  0.6547  0.5597 -0.1283
 4251TIP3    H234169   5.058   6.432   6.719 -1.8732 -0.6950 -0.2396
 4252TIP3   OH234170   1.142   2.163   4.446  0.2145 -0.4199  0.3715
 4252TIP3    H134171   1.098   2.233   4.494 -1.9467 -0.4632 -1.3734
 4252TIP3    H234172   1.109   2.083   4.486  2.3008 -0.5429  2.0306
 4253TIP3   OH234173   6.207   1.723  15.115 -0.2234 -0.0981 -0.5905
 4253TIP3    H134174   6.240   1.690  15.032  2.0921 -0.1598  0.2780
 4253TIP3    H234175   6.252   1.806  15.128 -2.0993  0.9438 -0.3238
 4254TIP3   OH234176   3.232   3.755  14.430 -0.2330  0.2520 -1.1017
 4254TIP3    H134177   3.227   3.837  14.479  2.5573  0.2060 -0.5600
 4254TIP3    H234178   3.167   3.763  14.361 -4.3499  0.3975  2.3852
 4255TIP3   OH234179   1.647   1.431  16.056 -0.0403 -0.2903  0.4620
 4255TIP3    H134180   1.719   1.443  16.119 -1.1166 -0.8150  1.8478
 4255TIP3    H234181   1.596   1.512  16.063  0.8309  0.4200 -1.1120
 4256TIP3   OH234182   2.278   0.327  16.894 -0.4882  0.0211 -0.5493
 4256TIP3    H134183   2.214   0.294  16.830 -0.5563  2.0150 -1.5893
 4256TIP3    H234184   2.244   0.413  16.919  1.2902  0.7087 -0.4005
 4257TIP3   OH234185   4.432   5.221  16.670 -0.6498 -0.2365  0.6689
 4257TIP3    H134186   4.341   5.205  16.695 -0.9283 -1.3847 -0.9322
 4257TIP3    H234187   4.467   5.134  16.649  0.8372  0.1783  1.2541
 4258TIP3   OH234188   4.132   3.378   3.513  0.7823 -0.7274 -0.0093
 4258TIP3    H134189   4.042   3.405   3.495  0.9689  0.7366  1.1050
 4258TIP3    H234190   4.178   3.393   3.430  0.0402 -1.3946 -0.5570
 4259TIP3   OH234191   2.467   4.307  13.733 -0.4076 -0.3151 -0.3246
 4259TIP3    H134192   2.539   4.276  13.787 -0.8271  0.1286  0.5123
 4259TIP3    H234193   2.388   4.273  13.777 -0.8425  1.3738  0.2699
 4260TIP3   OH234194   1.607   6.316   0.072 -0.3488  0.3375 -0.9438
 4260TIP3    H134195   1.688   6.267   0.084  0.2268  1.0522 -1.7814
 4260TIP3    H234196   1.538   6.250   0.072  0.0992 -0.1755  0.9666
 4261TIP3   OH234197   0.545   4.652  14.654 -0.0282 -0.1230  0.1133
 4261TIP3    H134198   0.476   4.635  14.590 -0.9739  3.0937  0.1137
 4261TIP3    H234199   0.622   4.609  14.617 -0.7611  0.7849 -2.7624
 4262TIP3   OH234200   5.399   4.106  14.625  0.1187 -0.0405  0.3364
 4262TIP3    H134201   5.453   4.110  14.546  0.0384  0.3646  0.3013
 4262TIP3    H234202   5.319   4.062  14.597  0.9697 -1.9158  0.7051
 4263TIP3   OH234203   4.248   3.529  13.926 -0.1790  0.5808 -0.6558
 4263TIP3    H134204   4.157   3.502  13.913 -0.3504  0.9567 -0.2478
 4263TIP3    H234205   4.282   3.542  13.838 -0.8636  1.5693 -0.7802
 4264TIP3   OH234206   5.911   5.719  16.117  0.5147 -0.5240 -0.3894
 4264TIP3    H134207   5.997   5.759  16.124 -0.1761  1.2654 -1.4192
 4264TIP3    H234208   5.889   5.692  16.206  0.3636  2.9085  0.7564
 4265TIP3   OH234209   5.781   3.655   1.483  0.2285 -0.3570 -0.2461
 4265TIP3    H134210   5.717   3.642   1.553 -0.1990 -0.5604 -0.6694
 4265TIP3    H234211   5.859   3.688   1.528 -0.4363  0.6678  0.1813
 4266TIP3   OH234212   5.234   5.077  15.286  0.6066 -0.0272  0.3872
 4266TIP3    H134213   5.297   5.091  15.215  0.6523 -0.4722  0.3367
 4266TIP3    H234214   5.154   5.119  15.256  1.1518  1.4144  0.8724
 4267TIP3   OH234215   0.814   6.425  13.660  0.4437  0.0803  0.2155
 4267TIP3    H134216   0.790   6.383  13.743  0.3623 -0.3377 -0.0124
 4267TIP3    H234217   0.730   6.451  13.621  0.1120 -2.9098 -1.3829
 4268TIP3   OH234218   4.575   4.871   3.784  0.0803 -0.2403 -0.0218
 4268TIP3    H134219   4.480   4.865   3.795  0.3278 -1.0484  2.3764
 4268TIP3    H234220   4.598   4.953   3.829  0.5919 -0.5471  0.2911
 4269TIP3   OH234221   2.112   3.549   1.760  0.2651  0.1522 -0.6839
 4269TIP3    H134222   2.162   3.540   1.842 -0.1590  0.4093 -0.3944
 4269TIP3    H234223   2.088   3.642   1.757  0.0499  0.0866 -0.9653
 4270TIP3   OH234224   0.582   1.583   3.014 -0.2099 -0.0857 -0.6334
 4270TIP3    H134225   0.678   1.579   3.014 -0.0711  2.0709 -1.2853
 4270TIP3    H234226   0.554   1.497   2.982  1.3818 -1.8402  2.2225
 4271TIP3   OH234227   2.558   0.183   4.477  0.1464 -0.0417 -0.0376
 4271TIP3    H134228   2.546   0.110   4.417  0.2169 -0.8974  0.9747
 4271TIP3    H234229   2.484   0.177   4.538  0.0055  0.8892 -0.0900
 4272TIP3   OH234230   6.752   3.198   4.058  0.8602  0.2689 -0.4597
 4272TIP3    H134231   6.798   3.175   4.139  0.7625  0.7760 -0.2558
 4272TIP3    H234232   6.809   3.262   4.016 -0.7641  2.8761  1.0230
 4273TIP3   OH234233   5.302   1.884  13.096  0.1757  0.1201  0.2533
 4273TIP3    H134234   5.241   1.884  13.022  0.4582  1.2823 -0.0003
 4273TIP3    H234235   5.307   1.976  13.123  3.0341  0.3618 -0.7727
 4274TIP3   OH234236   1.581   1.463  12.120  0.0679 -0.3861  0.0229
 4274TIP3    H134237   1.629   1.498  12.045  1.3715  1.0631  1.4428
 4274TIP3    H234238   1.516   1.530  12.140 -1.1649 -1.3646 -0.5652
 4275TIP3   OH234239   0.287   0.190  12.613  0.3695 -0.4891  0.2125
 4275TIP3    H134240   0.340   0.154  12.541  0.6236  1.0592 -0.4276
 4275TIP3    H234241   0.200   0.203  12.574  0.4134  0.0207  0.2730
 4276TIP3   OH234242   1.494   5.582   1.158 -0.1539  0.0981  0.3103
 4276TIP3    H134243   1.404   5.561   1.135 -0.3995  2.0174 -0.7159
 4276TIP3    H234244   1.488   5.663   1.209  1.0774  1.5283 -1.6637
 4277TIP3   OH234245   5.109   0.619   0.498  0.0375  0.5599 -0.1872
 4277TIP3    H134246   5.113   0.552   0.567  0.6731 -0.3565 -1.0900
 4277TIP3    H234247   5.028   0.601   0.451 -1.4586  2.4191  1.4784
 4278TIP3   OH234248   4.914   6.687  16.476  0.1405  0.0073  0.4507
 4278TIP3    H134249   4.986   6.750  16.483  0.0709  0.0676  0.6195
 4278TIP3    H234250   4.958   6.603  16.460  0.2364  0.0824  0.3086
 4279TIP3   OH234251   5.967   4.658  13.039 -0.3124  0.1791  0.1986
 4279TIP3    H134252   5.962   4.576  13.090  0.3960  0.1846  0.2967
 4279TIP3    H234253   5.916   4.640  12.961 -0.4350 -0.2512  0.3700
 4280TIP3   OH234254   6.091   5.408   3.508  0.7428 -0.0967  0.2503
 4280TIP3    H134255   6.135   5.422   3.592  2.2548  0.3346 -0.5879
 4280TIP3    H234256   6.096   5.493   3.464 -2.5914  0.5349  0.8237
 4281TIP3   OH234257   3.067   5.112   1.303 -0.0745 -0.2666  0.8008
 4281TIP3    H134258   2.981   5.070   1.312  0.1323 -1.1324 -0.9543
 4281TIP3    H234259   3.061   5.161   1.222  1.0604 -0.2417  0.7229
 4282TIP3   OH234260   1.606   2.972   1.114  0.5010  0.0081  0.1216
 4282TIP3    H134261   1.693   2.945   1.144 -0.2432 -1.3075  1.1968
 4282TIP3    H234262   1.578   2.903   1.054 -0.0576  0.1138  0.2544
 4283TIP3   OH234263   1.815   6.042  12.805  0.3438 -0.3677  0.1161
 4283TIP3    H134264   1.750   5.991  12.756 -0.0853 -1.2681  1.5605
 4283TIP3    H234265   1.763   6.093  12.867  0.9039  0.4350 -0.0571
 4284TIP3   OH234266   6.348   6.225  13.773  0.2088  0.5526  0.1276
 4284TIP3    H134267   6.317   6.303  13.727 -0.5856  0.0561 -0.2063
 4284TIP3    H234268   6.432   6.251  13.811  0.7670  1.0502 -1.3713
 4285TIP3   OH234269   2.616   4.251  11.936 -0.3898 -0.4722 -0.2952
 4285TIP3    H134270   2.608   4.162  11.902 -0.2134 -0.9480  0.8640
 4285TIP3    H234271   2.711   4.264  11.945 -0.3023  0.5413 -2.2140
 4286TIP3   OH234272   0.892   1.356   4.302 -0.1875  0.2972 -0.4666
 4286TIP3    H134273   0.886   1.365   4.207 -1.5819  0.6283 -0.3621
 4286TIP3    H234274   0.852   1.436   4.336  0.2954  0.1791  0.4072
 4287TIP3   OH234275   3.582   6.200  15.102 -0.0594 -0.1302 -0.1359
 4287TIP3    H134276   3.542   6.286  15.089  0.2233  0.0964  0.4475
 4287TIP3    H234277   3.539   6.165  15.180  1.9394  0.8098  1.5150
 4288TIP3   OH234278   4.462   4.853  11.696  0.3292  0.7437 -0.3752
 4288TIP3    H134279   4.382   4.859  11.643 -0.0290 -0.0841  0.0661
 4288TIP3    H234280   4.440   4.899  11.777  0.0305 -0.1352  0.0556
 4289TIP3   OH234281   6.388   0.617   4.409  0.2467  0.2013  0.3417
 4289TIP3    H134282   6.298   0.645   4.394 -1.4735 -2.8232  3.6439
 4289TIP3    H234283   6.418   0.670   4.483  0.8258  0.4731 -0.0804
 4290TIP3   OH234284   1.596   0.932   4.108  0.2191  0.4154 -0.1002
 4290TIP3    H134285   1.540   0.855   4.121  1.0071 -0.6430 -2.3897
 4290TIP3    H234286   1.665   0.924   4.174 -0.9925  0.4675  1.2085
 4291TIP3   OH234287   1.989   6.045   6.253 -0.7655 -0.3064 -0.4232
 4291TIP3    H134288   1.918   6.107   6.268 -1.1030 -1.1875  2.0133
 4291TIP3    H234289   1.948   5.971   6.208 -1.3127 -0.6335  0.5996
 4292TIP3   OH234290   4.157   1.376   0.825  0.2393  0.1428  0.9382
 4292TIP3    H134291   4.203   1.443   0.776 -1.0228  0.8829  0.7268
 4292TIP3    H234292   4.065   1.400   0.819 -0.4999 -2.6369 -0.7866
 4293TIP3   OH234293   5.460   4.273  14.836  0.5406  0.1904 -0.7144
 4293TIP3    H134294   5.435   4.209  14.769 -1.0998  0.1895 -0.1434
 4293TIP3    H234295   5.517   4.334  14.790  0.2181 -0.3430 -1.8810
 4294TIP3   OH234296   1.601   2.891  14.675 -0.4136  0.0683  0.9546
 4294TIP3    H134297   1.650   2.838  14.612 -0.9853  0.3737  0.2413
 4294TIP3    H234298   1.648   2.879  14.758  1.1039  0.6713  0.2187
 4295TIP3   OH234299   2.527   2.526   1.798 -0.3022 -0.1242  0.0782
 4295TIP3    H134300   2.445   2.484   1.772 -0.0448  0.4999 -1.8655
 4295TIP3    H234301   2.559   2.472   1.870 -2.6160 -0.1250  1.2111
 4296TIP3   OH234302   0.887   1.738   5.736 -0.1661 -0.2211 -0.1799
 4296TIP3    H134303   0.802   1.724   5.780 -0.3366  1.1710 -0.0220
 4296TIP3    H234304   0.936   1.792   5.797  0.2604  0.2663 -0.9494
 4297TIP3   OH234305   5.917   5.470   1.531  0.2360 -0.0823 -0.2875
 4297TIP3    H134306   5.876   5.420   1.460  0.9601 -0.8619 -0.1745
 4297TIP3    H234307   5.964   5.404   1.583  0.1394  0.5458  0.6233
 4298TIP3   OH234308   5.222   2.225   2.735  0.2223 -0.1654  0.0163
 4298TIP3    H134309   5.288   2.164   2.770  0.7729 -0.3265 -1.2370
 4298TIP3    H234310   5.139   2.195   2.772  0.3039 -2.4347 -1.4279
 4299TIP3   OH234311   2.863   3.683   2.092 -0.1946  0.2487 -0.0757
 4299TIP3    H134312   2.792   3.650   2.148  0.0883  0.4123  0.3829
 4299TIP3    H234313   2.942   3.644   2.129  0.0395  0.6892 -0.1127
 4300TIP3   OH234314   2.554   3.390   0.345  0.0780 -0.5342  0.1717
 4300TIP3    H134315   2.585   3.440   0.269  0.2261 -0.0565  0.5379
 4300TIP3    H234316   2.464   3.366   0.324  0.1171 -0.3955 -0.1523
 4301TIP3   OH234317   2.830   1.211  14.956  0.2737 -0.3339 -0.1583
 4301TIP3    H134318   2.882   1.158  15.017  1.1359 -0.3344 -0.8813
 4301TIP3    H234319   2.746   1.223  15.001  1.5324  1.3436  1.9298
 4302TIP3   OH234320   4.164   6.332   1.012  0.1613 -0.1455  0.4506
 4302TIP3    H134321   4.141   6.300   1.100  0.6945 -0.9562  0.2968
 4302TIP3    H234322   4.220   6.408   1.028  0.8117 -0.6940  0.8200
 4303TIP3   OH234323   3.496   6.394   1.416  0.1611 -0.3833  0.2910
 4303TIP3    H134324   3.566   6.457   1.398 -0.2563  0.0844  0.2585
 4303TIP3    H234325   3.420   6.430   1.370  0.1830 -1.4828 -0.6303
 4304TIP3   OH234326   3.991   3.985  14.051 -0.0927  0.4267 -0.1032
 4304TIP3    H134327   4.070   4.037  14.036 -0.5646  1.0684 -0.4383
 4304TIP3    H234328   3.936   4.041  14.106 -0.6102  0.2880 -0.4764
 4305TIP3   OH234329   4.805   1.714  12.721  0.0664  0.1904  0.4584
 4305TIP3    H134330   4.899   1.699  12.729  0.7288  3.6956  1.1664
 4305TIP3    H234331   4.768   1.681  12.803  1.0426  0.6856  1.1179
 4306TIP3   OH234332   3.801   0.962  12.739 -0.5747 -0.3737 -0.5214
 4306TIP3    H134333   3.723   1.014  12.757 -0.3818 -0.0724 -0.5490
 4306TIP3    H234334   3.857   0.975  12.816  0.3601  1.1126 -1.3995
 4307TIP3   OH234335   6.471   2.928  10.305 -0.1668 -0.5054 -0.1025
 4307TIP3    H134336   6.557   2.954  10.272 -0.8981 -0.3825 -2.0265
 4307TIP3    H234337   6.441   3.004  10.356  0.3093 -0.0240 -0.5288
 4308TIP3   OH234338   6.283   0.634   5.387 -0.3788  0.0587 -0.0281
 4308TIP3    H134339   6.299   0.709   5.444 -2.2682  1.3776 -1.1109
 4308TIP3    H234340   6.220   0.581   5.435 -2.4812  1.5032 -1.0329
 4309TIP3   OH234341   0.895   6.419  12.892  0.1972  0.2894 -0.9759
 4309TIP3    H134342   0.901   6.405  12.797 -1.6913  1.1484 -1.2745
 4309TIP3    H234343   0.810   6.383  12.916  0.1319  1.1615  0.1735
 4310TIP3   OH234344   1.501   3.040  13.274 -0.0259  0.1672 -0.0990
 4310TIP3    H134345   1.514   3.078  13.187  0.4545  0.6099  0.1624
 4310TIP3    H234346   1.419   3.079  13.305 -1.9506 -2.3406 -1.5966
 4311TIP3   OH234347   3.999   0.134  16.168  0.3900  0.0164 -0.4694
 4311TIP3    H134348   3.946   0.197  16.217  2.3621 -0.2566  2.3214
 4311TIP3    H234349   3.962   0.049  16.190  1.1022 -0.0873  0.4145
 4312TIP3   OH234350   3.346   0.336   1.078  0.0958  0.6650 -0.6523
 4312TIP3    H134351   3.427   0.294   1.049  1.2113  0.7265  2.0445
 4312TIP3    H234352   3.302   0.270   1.132  0.6770  2.0240  1.6417
 4313TIP3   OH234353   0.411   0.071  16.035 -0.2804  0.0697 -0.2205
 4313TIP3    H134354   0.400   0.024  16.117 -1.7466  0.2598 -0.2856
 4313TIP3    H234355   0.328   0.059  15.989 -0.1711  1.5108 -0.8554
 4314TIP3   OH234356   2.663   5.827   4.718 -0.1550 -0.4076  0.2445
 4314TIP3    H134357   2.700   5.915   4.728 -0.3985 -0.4792  1.9202
 4314TIP3    H234358   2.739   5.769   4.715 -0.0465 -0.3253  1.2165
 4315TIP3   OH234359   6.613   3.751  12.899  0.5490 -0.2742 -0.1286
 4315TIP3    H134360   6.707   3.762  12.887  0.4271  0.2325 -0.6391
 4315TIP3    H234361   6.605   3.670  12.951  1.2304 -0.6730 -0.6305
 4316TIP3   OH234362   5.943   4.152  11.342 -0.1757  0.0991  0.1488
 4316TIP3    H134363   5.904   4.080  11.293  0.6385 -0.2009 -0.0767
 4316TIP3    H234364   6.014   4.112  11.392 -0.8092  0.4567  1.3599
 4317TIP3   OH234365   6.492   4.171  15.480  0.2135 -1.0445 -0.0386
 4317TIP3    H134366   6.540   4.250  15.505 -0.1257 -0.6437 -0.6523
 4317TIP3    H234367   6.450   4.142  15.561  0.4905 -0.7039  0.2303
 4318TIP3   OH234368   5.087   2.352  13.819  0.4315 -0.2045 -0.0085
 4318TIP3    H134369   5.097   2.272  13.767 -3.3649 -0.6992 -0.2506
 4318TIP3    H234370   5.091   2.323  13.910  2.3253 -0.0697 -0.0062
 4319TIP3   OH234371   3.138   6.607  12.170  0.3676 -0.3966  0.2080
 4319TIP3    H134372   3.147   6.615  12.265 -1.6951 -0.2830  0.4389
 4319TIP3    H234373   3.077   6.677  12.146  1.8629  0.4406 -1.4326
 4320TIP3   OH234374   6.033   6.266  14.731  0.0937  0.2343 -0.2302
 4320TIP3    H134375   6.027   6.351  14.774  0.7549  0.8708 -1.3403
 4320TIP3    H234376   6.094   6.280  14.658 -1.9128 -0.4263 -2.1734
 4321TIP3   OH234377   6.738   1.614   0.710 -1.2382  0.5231 -0.0550
 4321TIP3    H134378   6.704   1.699   0.737 -0.2473  0.7488  0.5609
 4321TIP3    H234379   6.668   1.552   0.729 -1.1438  0.8980  1.6238
 4322TIP3   OH234380   5.356   2.775   5.359 -0.4176  0.4613  0.0153
 4322TIP3    H134381   5.406   2.806   5.283  0.4232 -1.1037 -0.1037
 4322TIP3    H234382   5.264   2.779   5.331 -0.0590 -1.3464 -1.6188
 4323TIP3   OH234383   1.511   0.388  15.873 -0.0149 -0.1086  0.0442
 4323TIP3    H134384   1.484   0.297  15.886  1.1105 -0.4954 -0.1675
 4323TIP3    H234385   1.430   0.435  15.853 -0.4146 -1.3896 -1.5988
 4324TIP3   OH234386   0.980   0.661  12.156 -0.3977  0.0153  0.3174
 4324TIP3    H134387   1.011   0.713  12.082 -0.3002  0.0303  0.3685
 4324TIP3    H234388   0.916   0.717  12.200 -2.4511 -0.9393 -1.2410
 4325TIP3   OH234389   6.035   3.752   4.242 -0.4427  0.6402  0.3557
 4325TIP3    H134390   5.995   3.804   4.312  1.2773  1.8190  0.5155
 4325TIP3    H234391   6.109   3.708   4.284  1.5486  2.5456 -0.9736
 4326TIP3   OH234392   2.468   5.191  12.180 -0.3616 -0.0286 -0.5684
 4326TIP3    H134393   2.508   5.276  12.160  0.2212 -0.5242 -1.5964
 4326TIP3    H234394   2.402   5.180  12.112 -0.9774 -0.0535  0.0282
 4327TIP3   OH234395   1.744   4.689   1.232  0.2852 -0.5317  0.5324
 4327TIP3    H134396   1.659   4.717   1.198 -0.2436 -1.0728  1.3835
 4327TIP3    H234397   1.781   4.634   1.163 -0.8565 -1.7747  0.8700
 4328TIP3   OH234398   4.247   6.269   1.617  0.7157 -0.2218 -0.4180
 4328TIP3    H134399   4.314   6.316   1.667  0.1085  0.9491 -0.6890
 4328TIP3    H234400   4.295   6.198   1.573  1.3886 -0.7920  1.1724
 4329TIP3   OH234401   1.337   6.122  13.071  0.2515 -0.2421 -0.7389
 4329TIP3    H134402   1.382   6.104  13.154 -0.9080 -0.8507 -0.2211
 4329TIP3    H234403   1.291   6.205  13.086  0.1002 -0.3160 -0.7907
 4330TIP3   OH234404   2.421   6.783  15.904  0.4213  0.1581  0.1515
 4330TIP3    H134405   2.436   6.703  15.954 -0.2926 -0.7357 -0.9906
 4330TIP3    H234406   2.508   6.814  15.880  0.7139 -1.7865 -1.6296
 4331TIP3   OH234407   5.792   4.861   1.141 -0.0608 -0.4935  0.1374
 4331TIP3    H134408   5.718   4.917   1.119 -0.3147 -0.8535  0.0732
 4331TIP3    H234409   5.760   4.804   1.211  0.5216  0.1531  0.9447
 4332TIP3   OH234410   3.628   2.481  11.450 -0.5016 -0.4484  0.0067
 4332TIP3    H134411   3.599   2.571  11.465 -0.5517 -0.7254  1.7021
 4332TIP3    H234412   3.679   2.486  11.368 -0.7446  1.0526 -0.0844
 4333TIP3   OH234413   2.230   4.677   3.509  0.3135  0.6006 -0.0342
 4333TIP3    H134414   2.204   4.766   3.532  0.7918  0.5817  0.6169
 4333TIP3    H234415   2.299   4.656   3.572 -1.0822 -0.9380  1.0731
 4334TIP3   OH234416   2.811   6.502   1.138 -0.2821  0.1919 -0.4110
 4334TIP3    H134417   2.897   6.539   1.119  0.7336 -1.0876  1.3641
 4334TIP3    H234418   2.764   6.573   1.183  0.3694  0.4555 -0.1303
 4335TIP3   OH234419   2.606   0.274  13.811  0.4087  0.2226  0.2473
 4335TIP3    H134420   2.612   0.363  13.844  3.9207 -0.4376  1.8248
 4335TIP3    H234421   2.658   0.274  13.730  1.2632 -0.5631  0.7771
 4336TIP3   OH234422   2.625   1.650  14.268 -0.3286 -0.8494  0.2250
 4336TIP3    H134423   2.553   1.709  14.248 -0.5715 -0.4410  2.1290
 4336TIP3    H234424   2.664   1.629  14.182 -2.9419 -1.4392 -0.9124
 4337TIP3   OH234425   0.019   1.129  16.719  0.4164 -0.2829 -0.2629
 4337TIP3    H134426  -0.071   1.127  16.685  0.1273 -0.8097  0.4927
 4337TIP3    H234427   0.050   1.039  16.709  1.7804  0.3719 -2.8018
 4338TIP3   OH234428   0.902   4.955   3.579  0.2315  0.1430  0.0819
 4338TIP3    H134429   0.978   5.013   3.587 -0.5290  1.6143 -2.2893
 4338TIP3    H234430   0.837   4.994   3.638  0.6074  0.0987  0.5360
 4339TIP3   OH234431   3.719   0.434  16.098 -0.2232 -0.1832 -0.1084
 4339TIP3    H134432   3.653   0.502  16.085  0.9617  1.8924  3.4293
 4339TIP3    H234433   3.698   0.395  16.183  1.9694 -0.8144  0.2123
 4340TIP3   OH234434   6.605   5.297  11.824 -0.3836 -0.4225 -0.0115
 4340TIP3    H134435   6.522   5.324  11.864 -0.1946  1.6707 -0.9301
 4340TIP3    H234436   6.586   5.291  11.731  0.0826 -1.6960 -0.0465
 4341TIP3   OH234437   0.773   1.793   0.089  0.5947 -0.6677  0.3906
 4341TIP3    H134438   0.739   1.728   0.151 -0.2223  0.5803  1.3049
 4341TIP3    H234439   0.849   1.830   0.133  1.8593 -1.8668 -0.6884
 4342TIP3   OH234440   4.962   1.452   4.045  0.0104  0.0435  0.4438
 4342TIP3    H134441   4.957   1.510   3.969 -0.3859 -2.3834 -1.4940
 4342TIP3    H234442   5.048   1.469   4.083  1.0292 -0.0313 -1.7068
 4343TIP3   OH234443   0.237   1.456   5.348 -0.2604 -0.4578  0.3644
 4343TIP3    H134444   0.213   1.545   5.377 -1.7534 -0.4336 -0.8576
 4343TIP3    H234445   0.250   1.464   5.254  0.8643 -1.2979  0.4342
 4344TIP3   OH234446   6.723   6.646  13.981 -0.0845 -0.3093 -0.3276
 4344TIP3    H134447   6.813   6.677  13.990  0.3959 -1.8351  0.5654
 4344TIP3    H234448   6.684   6.701  13.913  0.8590  1.7945  0.7409
 4345TIP3   OH234449   3.953   5.080   1.147 -0.0539 -0.3373 -0.1866
 4345TIP3    H134450   3.878   5.116   1.099  0.2828  0.0516 -0.4334
 4345TIP3    H234451   4.012   5.049   1.078  0.1873 -0.2853 -0.0041
 4346TIP3   OH234452   5.597   1.959  14.994  0.0788 -0.6638 -0.2653
 4346TIP3    H134453   5.575   1.924  15.080  0.4416 -0.8378 -0.2420
 4346TIP3    H234454   5.537   1.915  14.934 -1.4812  0.8255  0.1056
 4347TIP3   OH234455   6.655   6.740  12.433 -0.0374  0.0936 -0.3946
 4347TIP3    H134456   6.653   6.818  12.378  2.0967 -0.3863 -1.2444
 4347TIP3    H234457   6.638   6.667  12.373  0.6665 -0.3075 -0.1185
 4348TIP3   OH234458   1.805   0.311  14.756  0.3053  0.0677 -0.3796
 4348TIP3    H134459   1.855   0.239  14.796  0.1803 -0.1205 -0.5629
 4348TIP3    H234460   1.804   0.379  14.823 -0.9868 -0.7227  0.4507
 4349TIP3   OH234461   2.096   2.537   1.774 -0.2596  0.2680 -0.0318
 4349TIP3    H134462   2.077   2.622   1.812  1.0494  0.5629  0.0162
 4349TIP3    H234463   2.106   2.553   1.680 -1.5460 -0.1204 -0.2543
 4350TIP3   OH234464   0.910   3.323   1.783  0.4005 -0.4549 -0.1276
 4350TIP3    H134465   0.987   3.379   1.773  0.7868 -0.8044  0.7384
 4350TIP3    H234466   0.869   3.322   1.697  0.8886  0.4291 -0.3769
 4351TIP3   OH234467   6.576   1.531  12.122 -0.0197 -0.5709  0.1397
 4351TIP3    H134468   6.646   1.563  12.179  0.2075 -1.7912  0.5775
 4351TIP3    H234469   6.498   1.529  12.179 -0.1365 -0.3767 -0.0113
 4352TIP3   OH234470   2.626   3.918   2.638  0.5508 -0.0724 -0.0426
 4352TIP3    H134471   2.555   3.857   2.658 -0.1157  0.4321 -0.8278
 4352TIP3    H234472   2.585   3.988   2.587  1.3674  0.8593  0.5189
 4353TIP3   OH234473   1.834   0.056  12.621 -0.4020  0.4109 -0.2400
 4353TIP3    H134474   1.764   0.049  12.556 -0.6395 -0.1215  0.0610
 4353TIP3    H234475   1.875   0.140  12.603  0.1912 -0.1660 -1.7434
 4354TIP3   OH234476   5.170   3.990  16.922 -0.7421 -0.5034  0.3014
 4354TIP3    H134477   5.243   3.929  16.923 -0.4206 -0.1248  1.6036
 4354TIP3    H234478   5.109   3.954  16.858  0.8104 -0.5315 -1.2240
 4355TIP3   OH234479   2.040   4.269  15.334  0.2204 -0.2544  0.3826
 4355TIP3    H134480   1.969   4.332  15.322  0.0533 -0.5178 -0.0268
 4355TIP3    H234481   2.108   4.318  15.381  0.7160  0.6980 -1.2094
 4356TIP3   OH234482   1.140   4.572  16.029  0.2247  0.2599 -0.3840
 4356TIP3    H134483   1.137   4.642  15.963  1.3637  0.9620  0.2784
 4356TIP3    H234484   1.182   4.499  15.983  1.4897  0.9133 -0.3236
 4357TIP3   OH234485   3.700   5.083  13.958 -0.6181  0.1715  0.4290
 4357TIP3    H134486   3.733   5.160  13.911 -0.5215 -0.1411 -0.0218
 4357TIP3    H234487   3.766   5.016  13.944 -1.0344 -0.2014  0.2328
 4358TIP3   OH234488   3.626   1.022   3.760 -0.2930 -0.1539  0.0829
 4358TIP3    H134489   3.712   1.055   3.787 -0.0594 -0.4790 -0.2448
 4358TIP3    H234490   3.580   1.006   3.842  0.0133 -0.1014  0.2676
 4359TIP3   OH234491   6.121   2.197   0.696 -0.0065 -0.2637  0.1200
 4359TIP3    H134492   6.170   2.252   0.635  0.7131 -0.1063  0.8297
 4359TIP3    H234493   6.148   2.107   0.674 -0.1575 -0.2473 -0.1419
 4360TIP3   OH234494   4.304   5.795  11.244 -0.1172  0.0159  1.4051
 4360TIP3    H134495   4.277   5.718  11.195  1.1159 -0.0784  0.8386
 4360TIP3    H234496   4.228   5.853  11.243 -0.2062 -0.0942 -0.4082
 4361TIP3   OH234497   1.587   4.219   2.618 -0.0411  0.4730 -0.6689
 4361TIP3    H134498   1.509   4.251   2.663  0.9609 -0.2475  1.7660
 4361TIP3    H234499   1.642   4.297   2.606  0.9861  0.3146  2.2694
 4362TIP3   OH234500   2.563   3.523  13.920 -0.1964  0.0678  0.1768
 4362TIP3    H134501   2.616   3.488  13.848 -0.7859 -0.7776  0.1502
 4362TIP3    H234502   2.628   3.547  13.987  0.2068 -1.8125  0.5185
 4363TIP3   OH234503   1.860   1.072  11.765  0.0168 -0.2300  0.4356
 4363TIP3    H134504   1.794   1.045  11.829  0.8269 -1.6288  0.7504
 4363TIP3    H234505   1.943   1.063  11.813  0.5495 -0.1845 -0.4654
 4364TIP3   OH234506   2.037   5.755  11.318  0.8101 -0.0862 -0.0777
 4364TIP3    H134507   2.018   5.730  11.228  1.8100  0.2344 -0.3864
 4364TIP3    H234508   2.095   5.831  11.311 -0.0933  0.7294  0.8335
 4365TIP3   OH234509   0.932   3.134  11.352  0.4456 -0.4561 -0.5843
 4365TIP3    H134510   0.895   3.046  11.363 -0.0516 -0.3363 -1.2157
 4365TIP3    H234511   1.022   3.119  11.324  0.4933 -0.7579 -0.2806
 4366TIP3   OH234512   3.477   1.900  15.830  0.3654  0.1382  0.0730
 4366TIP3    H134513   3.399   1.917  15.777  1.0738 -0.9081 -1.3888
 4366TIP3    H234514   3.444   1.895  15.919 -1.2231 -0.0518 -0.4816
 4367TIP3   OH234515   6.077   4.408   5.440  0.3694 -0.1270  0.3696
 4367TIP3    H134516   6.047   4.446   5.523 -0.3660 -0.9329  0.4862
 4367TIP3    H234517   6.137   4.473   5.404  1.2600 -0.0789  1.8713
 4368TIP3   OH234518   4.040   5.398   0.646 -0.2417 -0.4555 -0.8023
 4368TIP3    H134519   4.066   5.306   0.650  0.5953 -0.1711  1.0634
 4368TIP3    H234520   3.956   5.401   0.692  0.0133 -0.2126 -0.3413
 4369TIP3   OH234521   6.672   6.010   0.990  0.0261  0.2219  0.1572
 4369TIP3    H134522   6.595   5.986   0.939 -0.0328  0.8614 -0.0624
 4369TIP3    H234523   6.638   6.032   1.077  0.2423 -1.9535  0.8526
 4370TIP3   OH234524   6.325   3.906   6.040  0.1349 -0.2134  0.2589
 4370TIP3    H134525   6.380   3.983   6.056 -0.0783  0.0830 -0.3932
 4370TIP3    H234526   6.352   3.843   6.107  1.8849 -0.3990 -0.5791
 4371TIP3   OH234527   3.224   2.436  15.832  0.1079 -1.0008  0.7645
 4371TIP3    H134528   3.281   2.397  15.765  0.2609  0.1616  0.1900
 4371TIP3    H234529   3.166   2.495  15.782 -0.3361 -0.7539  1.5629
 4372TIP3   OH234530   2.994   1.714   3.871  0.1523 -0.0033 -0.4423
 4372TIP3    H134531   3.052   1.648   3.833 -0.0610 -0.6865  0.3844
 4372TIP3    H234532   3.020   1.796   3.830  0.0515 -0.6769 -1.9276
 4373TIP3   OH234533   1.188   0.503   0.401 -0.2475 -0.2499  0.4776
 4373TIP3    H134534   1.245   0.508   0.325  0.2715 -2.1527  0.6865
 4373TIP3    H234535   1.100   0.509   0.365  0.0150  0.0778 -0.1324
 4374TIP3   OH234536   2.415   0.242   6.242  0.3045 -0.0192 -0.0913
 4374TIP3    H134537   2.330   0.274   6.273 -0.9736  0.5835 -3.6877
 4374TIP3    H234538   2.469   0.321   6.232 -1.2483  0.8005 -4.3884
 4375TIP3   OH234539   5.408   1.973   3.347 -0.3636  0.0927  0.4714
 4375TIP3    H134540   5.332   1.918   3.365 -0.8856  0.3613 -0.8191
 4375TIP3    H234541   5.395   2.049   3.404 -0.0618 -0.7131  1.6517
 4376TIP3   OH234542   2.029   0.711   4.472  0.0254 -0.0773  0.6404
 4376TIP3    H134543   2.005   0.759   4.552 -1.1909  2.3244 -1.0303
 4376TIP3    H234544   2.104   0.760   4.437 -0.2806 -0.2934 -0.3473
 4377TIP3   OH234545   4.944   1.292   1.408  0.3443 -0.2340  0.2184
 4377TIP3    H134546   5.016   1.295   1.470  0.4031 -1.0231  0.2067
 4377TIP3    H234547   4.880   1.354   1.442  0.4264 -0.5640  0.9991
 4378TIP3   OH234548   3.502   0.176   4.615  0.5214  0.1909 -0.0099
 4378TIP3    H134549   3.442   0.126   4.558  1.0508  0.5301 -0.8805
 4378TIP3    H234550   3.577   0.118   4.628  0.0721 -0.1931  0.9983
 4379TIP3   OH234551   4.279   4.462   3.523 -0.5265 -0.1922  0.2749
 4379TIP3    H134552   4.271   4.519   3.446 -0.3988 -0.1039  0.3269
 4379TIP3    H234553   4.343   4.506   3.579  0.1160 -0.7485 -0.0066
 4380TIP3   OH234554   5.963   6.346   2.207 -0.5248  0.2145  0.4341
 4380TIP3    H134555   5.882   6.297   2.193 -0.6466  0.0679  1.6189
 4380TIP3    H234556   6.033   6.285   2.183 -0.7564  0.8430 -2.1280
 4381TIP3   OH234557   0.601   3.784   0.326  0.0895  0.3140 -0.4398
 4381TIP3    H134558   0.567   3.809   0.412 -0.9758 -2.4125  0.0207
 4381TIP3    H234559   0.689   3.752   0.344 -0.3348 -0.7804 -0.2343
 4382TIP3   OH234560   2.458   0.707  12.795  0.4879 -0.6429 -0.4103
 4382TIP3    H134561   2.452   0.665  12.880  1.7057  0.5509  0.3025
 4382TIP3    H234562   2.442   0.800  12.813 -2.0191 -0.6986 -1.9168
 4383TIP3   OH234563   6.565   0.247  15.668  0.3825 -0.1878  0.7058
 4383TIP3    H134564   6.529   0.314  15.726  2.4580  1.0284  0.6862
 4383TIP3    H234565   6.488   0.202  15.633 -1.0674  1.6794  1.3042
 4384TIP3   OH234566   3.942   3.566   5.340 -0.5639 -0.1608  0.1856
 4384TIP3    H134567   3.905   3.484   5.372  0.8317 -0.4056  1.2139
 4384TIP3    H234568   3.930   3.628   5.412 -0.0716  0.0819  0.0652
 4385TIP3   OH234569   3.331   5.718  15.363 -0.2563 -0.4175  0.4600
 4385TIP3    H134570   3.310   5.632  15.399  1.6670 -0.4659  1.6274
 4385TIP3    H234571   3.420   5.736  15.394  0.0341  1.2738 -1.1364
 4386TIP3   OH234572   0.763   2.200   5.678  0.2503  0.1745 -0.1085
 4386TIP3    H134573   0.785   2.264   5.611  2.8538 -0.7100 -0.1922
 4386TIP3    H234574   0.785   2.115   5.640 -3.6159 -0.9754 -0.2077
 4387TIP3   OH234575   1.232   4.661   4.478 -0.0917  0.0470 -0.3617
 4387TIP3    H134576   1.161   4.610   4.440 -0.9021  0.8233  0.0542
 4387TIP3    H234577   1.311   4.631   4.433 -0.9054  0.3855 -2.0822
 4388TIP3   OH234578   4.071   0.668  16.770  0.4395 -0.7255  0.0890
 4388TIP3    H134579   4.138   0.694  16.706 -0.0066 -1.3075 -0.6176
 4388TIP3    H234580   4.077   0.736  16.838  0.5957  0.1727 -0.7889
 4389TIP3   OH234581   2.372   1.637   5.136 -0.2585  0.2736  0.1320
 4389TIP3    H134582   2.277   1.643   5.129 -0.2419  0.9820  0.3619
 4389TIP3    H234583   2.395   1.695   5.209  0.2054 -1.2853  1.2782
 4390TIP3   OH234584   5.275   0.332   3.262  0.0050  0.3652 -0.5199
 4390TIP3    H134585   5.240   0.262   3.316  0.7923  2.0291  2.3476
 4390TIP3    H234586   5.297   0.290   3.179  1.0988 -2.9246  1.2810
 4391TIP3   OH234587   0.154   3.567   3.878  0.1747 -0.0456  0.3987
 4391TIP3    H134588   0.175   3.522   3.796 -0.0987 -2.0514  1.3909
 4391TIP3    H234589   0.220   3.538   3.940 -1.3554 -0.9576  1.6859
 4392TIP3   OH234590   2.561   5.079   1.595 -0.1731  0.4283 -0.6809
 4392TIP3    H134591   2.466   5.092   1.583 -0.3864 -0.2935  0.1890
 4392TIP3    H234592   2.592   5.164   1.628 -1.0481 -0.2052  1.9863
 4393TIP3   OH234593   1.861   2.680  13.543 -0.6637 -0.1718 -0.1159
 4393TIP3    H134594   1.899   2.768  13.547  0.1502 -0.5441  0.9852
 4393TIP3    H234595   1.801   2.683  13.468 -0.8302  1.3813  0.0335
 4394TIP3   OH234596   3.112   0.714   6.156 -0.1715 -0.1391  0.0107
 4394TIP3    H134597   3.124   0.785   6.219 -0.1703  0.1297 -0.2881
 4394TIP3    H234598   3.080   0.641   6.208 -0.9826  0.3381  0.1954
 4395TIP3   OH234599   3.182   4.730   6.378 -0.2956  0.0176  0.0687
 4395TIP3    H134600   3.111   4.750   6.317  1.3513 -1.5927 -2.6456
 4395TIP3    H234601   3.160   4.643   6.412  0.2191 -0.4067 -0.6412
 4396TIP3   OH234602   2.866   5.825   1.867  0.2291 -0.0890 -0.4554
 4396TIP3    H134603   2.854   5.899   1.808  1.7167  0.7408  0.2193
 4396TIP3    H234604   2.959   5.830   1.893  0.3427 -2.1492 -0.3423
 4397TIP3   OH234605   2.280   4.712   1.249  0.0132  0.1521  0.3230
 4397TIP3    H134606   2.358   4.709   1.304 -1.5052  1.1637  2.7344
 4397TIP3    H234607   2.226   4.639   1.279 -0.2470 -0.1532 -0.8483
 4398TIP3   OH234608   1.929   1.676  12.791  0.2998 -0.4276  0.0467
 4398TIP3    H134609   1.964   1.765  12.800 -0.3637 -0.2151  0.5820
 4398TIP3    H234610   1.852   1.674  12.848  0.2936 -1.3413  0.0225
 4399TIP3   OH234611   5.960   6.541   3.445  0.2746  0.2255 -0.4173
 4399TIP3    H134612   6.032   6.479   3.428  0.5109 -0.1278  1.6691
 4399TIP3    H234613   5.906   6.536   3.366  0.6663 -2.1156 -0.6135
 4400TIP3   OH234614   3.278   3.313   2.258 -0.0404 -0.2157  0.3185
 4400TIP3    H134615   3.193   3.321   2.302 -0.2478 -1.0129  0.0727
 4400TIP3    H234616   3.313   3.230   2.288 -0.1368 -0.7250 -0.9285
 4401TIP3   OH234617   2.016   5.361  16.943  0.1648 -0.3624  0.0649
 4401TIP3    H134618   2.034   5.314  16.862 -2.1589  0.7259 -1.1913
 4401TIP3    H234619   2.087   5.425  16.950 -0.9248  1.3154 -2.6180
 4402TIP3   OH234620   5.472   0.137   3.763  0.0796  0.1806 -0.1997
 4402TIP3    H134621   5.415   0.176   3.830  1.3077  0.6737  0.5978
 4402TIP3    H234622   5.496   0.052   3.800  1.3440  0.7578  0.3472
 4403TIP3   OH234623   0.341   1.747  14.489 -0.3766 -0.8669  0.0393
 4403TIP3    H134624   0.264   1.804  14.489  0.5495  0.4564 -1.4212
 4403TIP3    H234625   0.351   1.719  14.398  0.6874 -1.2752  0.2698
 4404TIP3   OH234626   5.150   4.873  15.496 -0.1275  0.2101  0.4302
 4404TIP3    H134627   5.168   4.924  15.575  0.0388 -0.3455  0.7482
 4404TIP3    H234628   5.166   4.935  15.424  1.1432  0.2925  0.7671
 4405TIP3   OH234629   6.282   0.894  16.182  0.2308  0.2056  0.1183
 4405TIP3    H134630   6.365   0.857  16.211 -0.7037 -2.5839 -0.4555
 4405TIP3    H234631   6.306   0.962  16.119  2.0796 -0.3127  0.2228
 4406TIP3   OH234632   2.088   5.765  12.370  0.1348  0.3493  0.3409
 4406TIP3    H134633   2.074   5.680  12.413 -0.8688 -0.8094 -2.0739
 4406TIP3    H234634   2.007   5.813  12.384 -0.1302  0.0360 -0.0902
 4407TIP3   OH234635   0.713   2.361   4.366  0.6447 -0.0657 -0.3939
 4407TIP3    H134636   0.764   2.442   4.355 -0.7730  0.9367  0.0476
 4407TIP3    H234637   0.778   2.292   4.376  1.9653  1.4778  2.8033
 4408TIP3   OH234638   5.199   4.164  11.910 -0.1430  0.0469 -0.4370
 4408TIP3    H134639   5.212   4.182  11.817  2.7364  2.4189  0.2664
 4408TIP3    H234640   5.121   4.214  11.934  0.8308  1.9180 -1.0232
 4409TIP3   OH234641   2.290   0.208   5.555 -0.6448  0.2079 -0.0380
 4409TIP3    H134642   2.243   0.126   5.572 -0.6445 -0.0691 -1.2278
 4409TIP3    H234643   2.224   0.276   5.567 -0.3300  0.1625  2.2100
 4410TIP3   OH234644   6.166   3.469   4.256 -0.1944  0.2599 -0.4933
 4410TIP3    H134645   6.072   3.464   4.240 -0.3319  0.3222  0.2321
 4410TIP3    H234646   6.206   3.454   4.171 -0.8117 -1.7786 -0.4645
 4411TIP3   OH234647   2.535   2.992  16.567  0.2622  0.8899  0.3355
 4411TIP3    H134648   2.538   3.082  16.534 -0.3873  0.9238  0.3506
 4411TIP3    H234649   2.564   2.939  16.493  1.7091  1.1759  0.6574
 4412TIP3   OH234650   1.722   5.555   0.259 -0.2424  0.3628 -0.0638
 4412TIP3    H134651   1.644   5.523   0.303  0.7838  0.9711  2.3549
 4412TIP3    H234652   1.746   5.484   0.199 -1.2089 -0.9381  1.0096
 4413TIP3   OH234653   1.137   4.006  11.790 -0.5104 -0.0831  0.0689
 4413TIP3    H134654   1.076   4.080  11.787  0.3119  0.6177  0.0528
 4413TIP3    H234655   1.223   4.047  11.798 -0.0260 -1.0449 -0.0832
 4414TIP3   OH234656   3.802   3.794   3.684  0.1735 -0.5214 -0.0635
 4414TIP3    H134657   3.746   3.751   3.619  0.9841 -0.4736 -0.8213
 4414TIP3    H234658   3.794   3.740   3.762  3.1917 -3.7891 -1.7181
 4415TIP3   OH234659   6.503   2.022  11.584  0.0087  0.0279  0.4499
 4415TIP3    H134660   6.451   1.943  11.598 -0.7016  0.5914  1.0396
 4415TIP3    H234661   6.594   1.992  11.591 -0.2472 -0.7450  0.6040
 4416TIP3   OH234662   6.698   4.206  12.952  0.5351  0.0394  0.4368
 4416TIP3    H134663   6.720   4.152  12.876 -1.4471 -0.4246  0.1234
 4416TIP3    H234664   6.748   4.168  13.024  1.9834  0.1056 -0.5007
 4417TIP3   OH234665   0.802   3.157  15.224 -0.0095 -0.6823 -0.1501
 4417TIP3    H134666   0.861   3.206  15.280  1.5521 -1.6488 -0.8526
 4417TIP3    H234667   0.715   3.173  15.259  0.7874 -0.2110  1.7218
 4418TIP3   OH234668   3.070   3.237  13.838 -0.0283  0.1503  0.0570
 4418TIP3    H134669   3.052   3.249  13.931  0.7750 -0.2310  0.2686
 4418TIP3    H234670   2.985   3.213  13.800 -0.3977  0.4985  0.6547
 4419TIP3   OH234671   4.081   0.223   3.132  0.3669  0.6802 -0.1862
 4419TIP3    H134672   4.057   0.191   3.045 -0.2099 -1.6323  0.7399
 4419TIP3    H234673   4.175   0.209   3.137  0.0478 -1.7082  0.4282
 4420TIP3   OH234674   4.961   0.937   5.352 -0.2343  0.2418 -0.0008
 4420TIP3    H134675   4.887   0.965   5.405 -1.5835 -3.8056  0.5945
 4420TIP3    H234676   5.038   0.961   5.404 -1.2939  0.8417  1.3513
 4421TIP3   OH234677   4.485   3.074   2.463  0.6590 -0.8155 -0.1698
 4421TIP3    H134678   4.453   3.113   2.545  0.1080  1.3588 -1.3579
 4421TIP3    H234679   4.405   3.054   2.414  0.9906  0.9761 -1.5152
 4422TIP3   OH234680   3.255   5.553   5.207 -0.1883 -0.4559 -0.1032
 4422TIP3    H134681   3.214   5.552   5.293 -1.0694 -1.4236 -0.5144
 4422TIP3    H234682   3.276   5.462   5.189  1.3576 -0.0875 -0.2985
 4423TIP3   OH234683   1.090   3.566  12.701 -0.4068  0.2935 -0.2493
 4423TIP3    H134684   1.125   3.650  12.732  0.3254  0.6933 -2.0329
 4423TIP3    H234685   1.093   3.573  12.606 -3.3552 -0.5312 -0.5078
 4424TIP3   OH234686   3.547   0.230   5.762 -0.5182  0.2795  0.3872
 4424TIP3    H134687   3.475   0.246   5.701 -1.1012  0.0170  0.9977
 4424TIP3    H234688   3.517   0.266   5.845  0.0196  0.0792  0.6727
 4425TIP3   OH234689   6.134   1.913  11.330  1.2231  0.3252  0.3730
 4425TIP3    H134690   6.176   1.914  11.243  0.3860  0.2171 -0.0415
 4425TIP3    H234691   6.119   2.005  11.350  0.9648  0.3315  0.1680
 4426TIP3   OH234692   4.243   6.495  13.926 -0.0232  0.0096 -0.6760
 4426TIP3    H134693   4.292   6.573  13.952  0.5291 -0.1679 -1.1643
 4426TIP3    H234694   4.259   6.433  13.997  0.8031 -0.1844 -1.0110
 4427TIP3   OH234695   5.833   0.786   0.495  0.0132 -0.1447  0.7056
 4427TIP3    H134696   5.741   0.808   0.507 -0.0803  0.9612 -1.4896
 4427TIP3    H234697   5.834   0.692   0.477 -0.5723 -0.3441  1.6879
 4428TIP3   OH234698   1.216   4.183   0.692 -0.1524 -0.2231 -0.4913
 4428TIP3    H134699   1.250   4.144   0.773 -0.5722 -1.7235 -1.0066
 4428TIP3    H234700   1.258   4.134   0.622  0.0909  0.9663 -1.2103
 4429TIP3   OH234701   3.749   2.726  14.075  0.4563 -0.3160 -0.1973
 4429TIP3    H134702   3.721   2.740  14.166  0.5663  2.0836 -0.4603
 4429TIP3    H234703   3.842   2.751  14.075  1.0371 -2.3500 -0.5726
 4430TIP3   OH234704   5.644   6.730  13.631  0.4647  0.2274  0.5827
 4430TIP3    H134705   5.633   6.818  13.597  4.2395 -0.0997 -2.1400
 4430TIP3    H234706   5.575   6.678  13.589  0.3493  1.2722 -0.5567
 4431TIP3   OH234707   4.970   6.081   3.104 -0.4057  0.0855 -0.0324
 4431TIP3    H134708   5.013   5.996   3.100 -1.6680 -0.5918  0.2347
 4431TIP3    H234709   4.991   6.115   3.191 -0.2000 -0.1211 -0.0025
 4432TIP3   OH234710   5.381   5.824   5.140  0.3983 -0.4652  0.0046
 4432TIP3    H134711   5.397   5.778   5.223  0.9011  1.5264  1.0844
 4432TIP3    H234712   5.314   5.772   5.097  1.0083 -2.2568  1.0718
 4433TIP3   OH234713   3.399   0.045  14.856 -0.0075 -0.0530  0.1935
 4433TIP3    H134714   3.310   0.017  14.877  0.4886 -0.2651  2.2283
 4433TIP3    H234715   3.456  -0.018  14.900  1.1781 -0.0885 -1.3023
 4434TIP3   OH234716   4.563   3.638   6.198  0.4425  0.4857 -0.3339
 4434TIP3    H134717   4.637   3.578   6.198  1.4434  1.6517 -1.6323
 4434TIP3    H234718   4.585   3.703   6.265 -0.0666  0.0930  0.2253
 4435TIP3   OH234719   1.472   3.475  16.277  0.2749 -0.7029 -0.0468
 4435TIP3    H134720   1.379   3.467  16.297  0.4688  0.6979  1.7064
 4435TIP3    H234721   1.474   3.490  16.183 -1.2739 -0.8366 -0.1375
 4436TIP3   OH234722   0.999   5.815  14.439  0.2490  0.0330  0.0796
 4436TIP3    H134723   1.044   5.732  14.426 -1.6702 -0.9784 -0.5962
 4436TIP3    H234724   1.000   5.829  14.534  0.4375 -0.8757  0.2199
 4437TIP3   OH234725   1.027   2.963   3.387  0.1454  0.3244  0.0564
 4437TIP3    H134726   1.093   2.961   3.456  0.7565  0.0633 -0.5241
 4437TIP3    H234727   1.077   2.966   3.306 -0.4558 -2.6130 -0.5365
 4438TIP3   OH234728   0.169   1.979   4.698  0.0642  0.2372  0.0414
 4438TIP3    H134729   0.138   1.924   4.626  0.4146 -0.2332  0.2459
 4438TIP3    H234730   0.116   2.059   4.692 -1.5168 -0.7262  0.6606
 4439TIP3   OH234731   4.503   1.413   0.178 -0.4774  0.3663 -0.9700
 4439TIP3    H134732   4.596   1.432   0.194 -0.0838 -0.8614 -1.6878
 4439TIP3    H234733   4.482   1.344   0.241 -0.6008 -0.1181 -1.5381
 4440TIP3   OH234734   4.102   4.955   5.906 -0.1245  0.2474 -0.5548
 4440TIP3    H134735   4.049   5.014   5.854  0.3462 -0.9273 -2.4690
 4440TIP3    H234736   4.040   4.889   5.938 -0.1529  0.0023 -1.1036
 4441TIP3   OH234737   5.228   5.914   6.335 -0.5348  0.2502  0.5964
 4441TIP3    H134738   5.180   5.831   6.325  1.6431 -0.9794 -0.2127
 4441TIP3    H234739   5.193   5.970   6.266 -1.3026 -0.3573  0.4755
 4442TIP3   OH234740   4.622   1.237  14.881 -0.1005  0.0279 -0.5673
 4442TIP3    H134741   4.595   1.320  14.842 -0.2261  1.2341  1.8790
 4442TIP3    H234742   4.690   1.261  14.944  1.5475 -2.0617 -1.4262
 4443TIP3   OH234743   2.417   3.929   6.624 -0.3421 -0.1363  0.0868
 4443TIP3    H134744   2.466   4.006   6.595 -0.1546 -0.1785  0.2901
 4443TIP3    H234745   2.380   3.893   6.543 -2.5529  1.5716  0.2328
 4444TIP3   OH234746   1.723   0.743   2.160  0.2948 -0.6686  0.0635
 4444TIP3    H134747   1.661   0.702   2.221  1.5121 -0.8488  1.2559
 4444TIP3    H234748   1.699   0.709   2.074 -0.5611 -1.5937  0.6491
 4445TIP3   OH234749   0.692   0.042  16.023 -0.1410  0.1142  0.2771
 4445TIP3    H134750   0.697   0.015  15.931 -1.6932 -1.2654  0.5312
 4445TIP3    H234751   0.601   0.071  16.034  0.0145  0.2084  1.3850
 4446TIP3   OH234752   3.377   0.061  11.223 -0.2294 -0.5800 -0.0162
 4446TIP3    H134753   3.323   0.067  11.145 -1.2558 -0.9502  0.6390
 4446TIP3    H234754   3.363  -0.028  11.256 -0.7085 -0.0812  1.2016
 4447TIP3   OH234755   3.219   2.567   4.818 -0.5762  0.2552 -0.1519
 4447TIP3    H134756   3.139   2.578   4.766 -0.8892 -1.3147 -0.0622
 4447TIP3    H234757   3.190   2.517   4.895 -0.0819  2.3257  1.4732
 4448TIP3   OH234758   6.469   3.112   4.183  0.0449  0.2807  0.0665
 4448TIP3    H134759   6.380   3.076   4.181  0.0674  0.1854 -2.1484
 4448TIP3    H234760   6.525   3.035   4.176  0.2249  0.4531 -0.4280
 4449TIP3   OH234761   0.464   4.902  13.720 -0.4963  0.1321  0.0846
 4449TIP3    H134762   0.559   4.896  13.730 -0.2596 -0.2476 -2.0361
 4449TIP3    H234763   0.445   4.850  13.642 -2.3787  0.7174  0.1212
 4450TIP3   OH234764   6.549   5.463   6.409  0.0457  0.0480 -0.6220
 4450TIP3    H134765   6.644   5.472   6.419  0.2281 -2.2179  0.0440
 4450TIP3    H234766   6.514   5.545   6.445  1.7394  1.3559 -1.7597
 4451TIP3   OH234767   3.255   5.902   3.228  0.3723 -0.5239  0.1146
 4451TIP3    H134768   3.237   5.874   3.318 -1.2913  0.8633  0.2535
 4451TIP3    H234769   3.244   5.997   3.230  3.2473 -0.0823 -0.9341
 4452TIP3   OH234770   0.873   0.230   5.909  0.1226 -0.7158  0.0332
 4452TIP3    H134771   0.958   0.196   5.883 -1.6730 -3.5780 -2.8607
 4452TIP3    H234772   0.874   0.228   6.004  3.3626 -0.2632  0.0999
 4453TIP3   OH234773   5.493   6.115   1.301 -0.2097  0.0390  0.4166
 4453TIP3    H134774   5.458   6.196   1.338 -0.2324 -0.4317  1.4663
 4453TIP3    H234775   5.546   6.143   1.226  0.4996  1.1086  1.2870
 4454TIP3   OH234776   4.813   4.110   6.277 -0.0086  0.0883  0.8359
 4454TIP3    H134777   4.896   4.067   6.255 -0.6120 -0.8565  0.3689
 4454TIP3    H234778   4.756   4.092   6.203 -0.5253  1.0695  0.9755
 4455TIP3   OH234779   6.562   3.249   5.298  0.5006  0.4637 -0.3520
 4455TIP3    H134780   6.626   3.310   5.262  0.8623  0.2892 -0.0180
 4455TIP3    H234781   6.545   3.282   5.386  0.4384  0.2756 -0.2932
 4456TIP3   OH234782   5.090   3.775   3.334  0.4160 -0.7350  0.0954
 4456TIP3    H134783   5.102   3.686   3.300  2.2220 -0.7622  0.7334
 4456TIP3    H234784   5.166   3.791   3.390  0.8958  1.7209 -1.0928
 4457TIP3   OH234785   1.333   0.057   1.635  0.0860 -0.2145  0.1227
 4457TIP3    H134786   1.418   0.054   1.678  0.5031  0.2147 -0.6554
 4457TIP3    H234787   1.342   0.124   1.567 -0.2945 -1.4516 -1.2043
 4458TIP3   OH234788   3.836   3.880  16.880 -0.4637  0.0105  0.6952
 4458TIP3    H134789   3.772   3.914  16.943 -1.6681  1.3059 -1.1243
 4458TIP3    H234790   3.858   3.956  16.826 -1.3896 -1.5122 -2.0005
 4459TIP3   OH234791   4.655   5.314   3.745 -0.2929 -0.0014  0.1845
 4459TIP3    H134792   4.611   5.282   3.666 -1.0249 -0.9002  0.9296
 4459TIP3    H234793   4.634   5.407   3.749  1.7396  0.6541 -1.9437
 4460TIP3   OH234794   0.218   3.272   5.347  0.1547 -0.7536  0.6741
 4460TIP3    H134795   0.253   3.195   5.392 -0.5034 -1.8880 -0.6846
 4460TIP3    H234796   0.194   3.241   5.260 -0.9661  0.7915  0.3731
 4461TIP3   OH234797   3.145   5.166  12.844 -0.0372 -0.3455  0.3169
 4461TIP3    H134798   3.102   5.214  12.773  0.2325  1.7540  1.4683
 4461TIP3    H234799   3.095   5.188  12.922  1.2117 -0.4539  1.1812
 4462TIP3   OH234800   6.645   6.105  13.540 -0.1221  0.3292 -0.0109
 4462TIP3    H134801   6.614   6.021  13.574 -1.9075  1.4861  1.3863
 4462TIP3    H234802   6.716   6.130  13.599  0.6103 -0.2964 -0.6026
 4463TIP3   OH234803   2.659   4.580   0.315  0.4215  0.0744  0.2014
 4463TIP3    H134804   2.657   4.579   0.219 -1.2735  0.4799  0.2038
 4463TIP3    H234805   2.714   4.506   0.339  2.1136  0.8702 -1.0922
 4464TIP3   OH234806   3.799   5.106  16.251 -0.4927 -0.1057 -0.4427
 4464TIP3    H134807   3.737   5.179  16.259 -0.7584 -0.4228  0.4429
 4464TIP3    H234808   3.771   5.060  16.171 -1.2838 -0.1264 -0.1669
 4465TIP3   OH234809   3.396   0.080  10.596  0.1237 -0.0344  0.0447
 4465TIP3    H134810   3.410   0.134  10.674  2.0235 -0.1467 -0.1544
 4465TIP3    H234811   3.331   0.127  10.545 -0.1021  0.7656  1.0416
 4466TIP3   OH234812   4.293   5.311  12.559 -0.0229  0.4372 -0.0660
 4466TIP3    H134813   4.239   5.322  12.481  1.3329  1.6193 -0.8986
 4466TIP3    H234814   4.261   5.231  12.600 -1.4770  0.3810 -1.2447
 4467TIP3   OH234815   4.355   0.663   0.300  0.3933 -0.2763  0.2824
 4467TIP3    H134816   4.303   0.656   0.221  2.8178 -1.0824 -1.3744
 4467TIP3    H234817   4.330   0.587   0.352 -1.7813  0.6724  0.7256
 4468TIP3   OH234818   1.873   6.218   1.960  0.8554  0.4219 -0.1002
 4468TIP3    H134819   1.842   6.157   1.892 -1.4549  0.7755  0.5490
 4468TIP3    H234820   1.955   6.179   1.991  0.2582 -1.5349 -0.7921
 4469TIP3   OH234821   0.190   3.728  16.810  0.2447 -0.6917 -0.5566
 4469TIP3    H134822   0.179   3.633  16.817  1.1520 -0.6844  2.1582
 4469TIP3    H234823   0.278   3.744  16.843 -0.7483  1.2769  1.3223
 4470TIP3   OH234824   3.758   4.064   0.027 -0.3751  0.3029 -0.2397
 4470TIP3    H134825   3.746   4.013   0.107  0.2674 -0.8903 -0.8702
 4470TIP3    H234826   3.811   4.139   0.054 -2.3364  1.3339  0.9479
 4471TIP3   OH234827   5.514   1.062  15.667  0.1209 -0.4164  0.3317
 4471TIP3    H134828   5.527   1.066  15.572 -3.3182  0.4898 -0.2392
 4471TIP3    H234829   5.480   1.148  15.690  0.0900 -0.8997  2.2650
 4472TIP3   OH234830   2.822   4.118   2.969 -0.1699  0.3025  0.1891
 4472TIP3    H134831   2.850   4.058   3.038  2.1876 -0.9881 -1.7080
 4472TIP3    H234832   2.858   4.203   2.995  0.5670 -0.1339  0.6346
 4473TIP3   OH234833   3.714   0.998   6.094 -0.1922  0.4088 -0.3460
 4473TIP3    H134834   3.797   1.043   6.076 -0.4688  0.5902 -1.2360
 4473TIP3    H234835   3.691   1.024   6.183  1.2624 -0.5330  0.3494
 4474TIP3   OH234836   1.984   0.686  13.939  0.2938  0.4704  0.7749
 4474TIP3    H134837   2.032   0.621  13.887 -0.0933 -0.6234  1.7447
 4474TIP3    H234838   2.044   0.707  14.011 -1.4757 -2.7894  3.4460
 4475TIP3   OH234839   2.888   0.701  14.666 -0.6259  0.4315  0.1206
 4475TIP3    H134840   2.881   0.794  14.687  1.0120  0.3639  1.0681
 4475TIP3    H234841   2.799   0.667  14.675 -0.7996  1.3780  2.3996
 4476TIP3   OH234842   4.499   4.759  13.856 -0.0922 -0.2880 -0.3319
 4476TIP3    H134843   4.422   4.787  13.906 -0.5806 -2.7089  0.3766
 4476TIP3    H234844   4.508   4.825  13.788 -2.7707  0.1123 -0.3931
 4477TIP3   OH234845   3.794   5.398   3.246 -0.0772  0.3295 -0.9498
 4477TIP3    H134846   3.706   5.388   3.209 -0.4956 -2.0847  0.5293
 4477TIP3    H234847   3.781   5.446   3.327 -0.2766 -1.1495 -0.0663
 4478TIP3   OH234848   3.908   2.873  16.762 -0.5068  0.4442  0.1930
 4478TIP3    H134849   3.826   2.852  16.807 -1.0230  2.3377  0.2045
 4478TIP3    H234850   3.886   2.872  16.669  0.5936 -3.6161 -0.2371
 4479TIP3   OH234851   1.360   5.467  14.406 -0.0903 -0.0369 -0.1179
 4479TIP3    H134852   1.327   5.480  14.317  0.2542  4.6292  0.1907
 4479TIP3    H234853   1.296   5.407  14.447 -1.3502 -0.7380 -2.8710
 4480TIP3   OH234854   4.581   4.071  13.866 -0.7604 -0.6827 -0.0602
 4480TIP3    H134855   4.497   4.035  13.836 -0.4687 -2.0073  0.6472
 4480TIP3    H234856   4.645   4.042  13.802 -1.1165  2.3667 -1.9874
 4481TIP3   OH234857   6.248   1.775  11.541 -0.1153 -0.0080 -0.2644
 4481TIP3    H134858   6.213   1.821  11.465  0.8065  0.2641 -0.5420
 4481TIP3    H234859   6.185   1.792  11.611 -2.8619 -3.1113 -1.7279
 4482TIP3   OH234860   0.616   1.809  11.888  0.2741  0.3089  0.0761
 4482TIP3    H134861   0.699   1.826  11.843  0.7584  0.8944  1.1652
 4482TIP3    H234862   0.614   1.714  11.900  0.8606  0.3036  0.1656
 4483TIP3   OH234863   1.778   0.448   5.677  0.2804  0.5232  0.1460
 4483TIP3    H134864   1.807   0.370   5.724  0.7728  0.9087  0.4960
 4483TIP3    H234865   1.691   0.467   5.711  0.3997  0.4648  0.4873
 4484TIP3   OH234866   1.582   4.007  13.328 -0.3436  0.3004  0.1084
 4484TIP3    H134867   1.541   3.923  13.307  0.1557  0.0365  0.1697
 4484TIP3    H234868   1.675   3.993  13.310 -0.2998  0.9338 -0.1526
 4485TIP3   OH234869   3.716   0.382  11.986  0.4614 -0.3457  0.2098
 4485TIP3    H134870   3.669   0.464  11.975  2.2681  0.5915 -0.8903
 4485TIP3    H234871   3.676   0.323  11.922  0.0051  0.0608  0.1166
 4486TIP3   OH234872   3.124   5.872  13.654  0.1131  0.0825 -0.3546
 4486TIP3    H134873   3.107   5.966  13.654  0.1023  0.0862 -0.8894
 4486TIP3    H234874   3.219   5.864  13.660  0.0418  0.0874  1.2916
 4487TIP3   OH234875   2.621   3.310   2.686 -0.3369  0.0930 -0.1566
 4487TIP3    H134876   2.700   3.361   2.703  0.9231 -1.5939 -0.6466
 4487TIP3    H234877   2.550   3.373   2.692  1.0528  1.7054  0.1532
 4488TIP3   OH234878   0.839   1.464   3.432  0.2893  0.6788 -0.9258
 4488TIP3    H134879   0.765   1.519   3.405  2.2214  1.6566 -5.0887
 4488TIP3    H234880   0.895   1.522   3.483 -1.2738  0.1792  1.4904
 4489TIP3   OH234881   2.861   2.251   3.425  0.1592  0.0132  0.1900
 4489TIP3    H134882   2.849   2.293   3.340 -3.0730  0.6719  0.8427
 4489TIP3    H234883   2.794   2.182   3.428 -1.1879  1.2602  2.8559
 4490TIP3   OH234884   3.069   5.765   2.662  0.4293 -0.0999  0.5515
 4490TIP3    H134885   3.106   5.678   2.650 -1.5048 -0.9367  0.2819
 4490TIP3    H234886   3.101   5.816   2.587  0.3525 -1.0200 -0.1132
 4491TIP3   OH234887   2.649   0.331  12.480 -0.0610  0.1963 -0.0719
 4491TIP3    H134888   2.589   0.334  12.405  1.2947 -0.7919 -1.2473
 4491TIP3    H234889   2.689   0.244  12.475  4.3723  2.0276 -1.7471
 4492TIP3   OH234890   5.739   1.341   3.603  0.4442 -0.3374  0.1373
 4492TIP3    H134891   5.707   1.430   3.622 -0.6264 -0.5343 -0.6281
 4492TIP3    H234892   5.783   1.349   3.518 -1.7334 -0.9490 -1.1270
 4493TIP3   OH234893   5.121   2.616  14.030  0.0825  0.2252 -0.3252
 4493TIP3    H134894   5.109   2.590  14.122 -1.4336 -1.3824 -0.9035
 4493TIP3    H234895   5.215   2.620  14.018  0.3197  0.8481  1.3871
 4494TIP3   OH234896   2.929   1.495   5.168  0.1502  0.0785  0.0049
 4494TIP3    H134897   2.964   1.428   5.109  0.4755  0.9190 -0.7989
 4494TIP3    H234898   2.837   1.472   5.179  0.4072 -0.8510  0.2612
 4495TIP3   OH234899   5.962   5.280  14.768  0.1181 -0.2256 -0.0997
 4495TIP3    H134900   5.907   5.294  14.845  0.5739 -1.2274  0.4316
 4495TIP3    H234901   5.919   5.208  14.721  1.1352 -1.2554  0.5020
 4496TIP3   OH234902   6.604   3.545   6.416  0.8209  0.2317 -0.1331
 4496TIP3    H134903   6.693   3.556   6.382  1.7162 -0.7450  1.7319
 4496TIP3    H234904   6.563   3.483   6.355  1.2078  1.0768 -1.3014
 4497TIP3   OH234905   3.959   6.195  13.432  0.1788  0.4304  0.3667
 4497TIP3    H134906   3.988   6.205  13.341 -0.1149  2.0789  0.4185
 4497TIP3    H234907   3.864   6.201  13.427  0.1091 -0.2666  0.7139
 4498TIP3   OH234908   6.455   6.331   0.325  0.1750  0.4950 -0.1253
 4498TIP3    H134909   6.547   6.322   0.350  0.0644  1.2805  0.6441
 4498TIP3    H234910   6.413   6.252   0.359  0.6215 -0.0127 -0.7551
 4499TIP3   OH234911   0.853   5.011   0.304  0.1072 -0.0396 -0.3844
 4499TIP3    H134912   0.843   5.061   0.385 -0.5907 -2.2643  1.0049
 4499TIP3    H234913   0.779   5.038   0.250  0.1633  0.9466  0.0246
 4500TIP3   OH234914   5.447   6.448   1.688  0.1685  0.0233  0.1125
 4500TIP3    H134915   5.450   6.354   1.667  1.7631  0.0201  0.2414
 4500TIP3    H234916   5.412   6.450   1.777 -1.3493 -0.3283 -0.4508
 4501TIP3   OH234917   4.963   4.796  12.487  0.2251 -0.6653  0.1099
 4501TIP3    H134918   5.003   4.797  12.574  2.5238 -1.3232 -0.8495
 4501TIP3    H234919   4.986   4.710  12.451  0.0402 -0.1025 -1.4309
 4502TIP3   OH234920   4.610   3.953   2.593  0.9759 -0.0549  0.1075
 4502TIP3    H134921   4.578   3.889   2.529  2.0926  1.9639 -2.6701
 4502TIP3    H234922   4.587   3.915   2.678 -0.9702 -2.7176 -1.4416
 4503TIP3   OH234923   4.935   1.557  15.851 -0.4156  0.3890 -0.0549
 4503TIP3    H134924   4.904   1.467  15.836 -1.3184  0.3992  1.5885
 4503TIP3    H234925   4.872   1.612  15.805  0.6984  0.2131 -1.9408
 4504TIP3   OH234926   4.491   5.274   3.249 -0.0266  0.4018 -0.1102
 4504TIP3    H134927   4.469   5.358   3.288  1.6335  2.1418 -2.5893
 4504TIP3    H234928   4.429   5.263   3.178 -1.9153 -1.8809  1.7141
 4505TIP3   OH234929   6.114   0.816   6.455 -0.2006 -0.2492  0.4845
 4505TIP3    H134930   6.131   0.906   6.428  1.2043 -0.9441 -1.0818
 4505TIP3    H234931   6.200   0.776   6.465 -0.7969 -1.4413  1.1362
 4506TIP3   OH234932   4.022   1.546   3.571 -0.3234  0.1297  0.2589
 4506TIP3    H134933   4.004   1.579   3.659 -1.8474 -0.9890  0.3930
 4506TIP3    H234934   3.937   1.546   3.527  0.0518 -1.2540 -0.5256
 4507TIP3   OH234935   6.102   1.650   0.574 -0.1718 -0.4802 -0.0384
 4507TIP3    H134936   6.140   1.639   0.661 -0.2976 -3.6806 -0.2641
 4507TIP3    H234937   6.065   1.564   0.554 -0.2562  0.1999 -3.2104
 4508TIP3   OH234938   1.476   2.457  11.437 -0.4395 -0.7115 -0.8951
 4508TIP3    H134939   1.486   2.520  11.366 -1.3135 -0.9430 -1.2256
 4508TIP3    H234940   1.387   2.470  11.469 -0.2476 -1.0001 -0.2086
 4509TIP3   OH234941   1.423   5.742  13.898  0.2969  0.3843  0.1402
 4509TIP3    H134942   1.485   5.725  13.828 -1.3501  0.4016 -1.3832
 4509TIP3    H234943   1.426   5.663  13.953  0.4391 -0.3415 -0.8814
 4510TIP3   OH234944   0.374   3.813   1.613 -0.3955  0.2140 -0.1684
 4510TIP3    H134945   0.469   3.827   1.605 -0.7093  3.1219  0.0253
 4510TIP3    H234946   0.352   3.855   1.696 -1.8058 -0.8906  0.0401
 4511TIP3   OH234947   6.056   6.496   5.763  0.3676 -0.0546  0.4119
 4511TIP3    H134948   6.081   6.549   5.839  0.2477 -1.3055  1.3585
 4511TIP3    H234949   6.110   6.417   5.771  0.8936  0.1030 -1.2291
 4512TIP3   OH234950   4.998   5.937  15.429 -0.6201 -0.4005  0.1602
 4512TIP3    H134951   4.914   5.924  15.474  0.0268 -0.1335  1.5168
 4512TIP3    H234952   5.041   6.006  15.479  0.8474 -1.2528  0.1527
 4513TIP3   OH234953   1.635   4.414  14.420  0.0447 -0.9890  0.1114
 4513TIP3    H134954   1.639   4.400  14.514 -1.8615  3.8337  1.1962
 4513TIP3    H234955   1.726   4.431  14.394  0.4605 -1.3033  1.3115
 4514TIP3   OH234956   2.799   2.379  16.528 -0.1132  0.1259 -0.2694
 4514TIP3    H134957   2.763   2.414  16.447 -0.1464  0.8869  0.0655
 4514TIP3    H234958   2.809   2.285  16.511  0.3647  0.3515 -1.3272
 4515TIP3   OH234959   5.883   0.257  16.995  0.3464  0.0617 -0.8359
 4515TIP3    H134960   5.819   0.194  16.963 -0.1602 -0.2152  0.6301
 4515TIP3    H234961   5.831   0.334  17.019  0.6358  0.0636 -0.1965
 4516TIP3   OH234962   5.576   3.130  11.161  0.4978 -0.9637 -0.0479
 4516TIP3    H134963   5.638   3.203  11.169  0.9250 -1.4342  1.1160
 4516TIP3    H234964   5.491   3.168  11.187 -0.0133 -0.0002 -2.7919
 4517TIP3   OH234965   3.010   4.799   1.024  0.0289  0.1161 -0.1398
 4517TIP3    H134966   2.939   4.775   0.964  0.2958  1.7753 -1.1757
 4517TIP3    H234967   3.053   4.873   0.982 -0.5192  2.1745  2.6607
 4518TIP3   OH234968   5.318   2.604   0.542  0.0222  0.3344  0.4101
 4518TIP3    H134969   5.273   2.656   0.476  0.8935  0.4553 -0.1116
 4518TIP3    H234970   5.260   2.530   0.559 -0.7772  0.9572  0.4292
 4519TIP3   OH234971   3.878   4.700  10.783 -0.1638 -0.2345  0.6574
 4519TIP3    H134972   3.846   4.620  10.825  0.4342 -0.8560 -0.0158
 4519TIP3    H234973   3.842   4.696  10.694  0.2429 -0.0011  0.4768
 4520TIP3   OH234974   3.966   0.937  11.262  0.1602 -0.3551  0.0142
 4520TIP3    H134975   3.889   0.980  11.301 -0.2729  0.0002 -1.1765
 4520TIP3    H234976   3.930   0.887  11.189  0.9733 -0.8829 -0.0297
 4521TIP3   OH234977   0.531   3.580  10.509 -0.0157 -0.1212  0.0460
 4521TIP3    H134978   0.483   3.653  10.549  0.5382  0.7674 -0.8596
 4521TIP3    H234979   0.594   3.554  10.576 -0.6933 -0.2498  0.6466
 4522TIP3   OH234980   2.541   4.335  12.613  0.1917  0.0452  0.5269
 4522TIP3    H134981   2.545   4.304  12.523  2.5067 -2.2802  1.3289
 4522TIP3    H234982   2.631   4.354  12.637 -0.5031  1.8376  2.0329
 4523TIP3   OH234983   2.566   3.445  12.904  0.5330 -0.1154  0.3665
 4523TIP3    H134984   2.606   3.513  12.957 -0.2322  0.2115  0.5353
 4523TIP3    H234985   2.634   3.420  12.841  1.8233 -1.2510  2.1314
 4524TIP3   OH234986   6.360   5.840   4.429  0.3387  0.1330  0.8921
 4524TIP3    H134987   6.367   5.747   4.450  1.8220  0.2667  1.0328
 4524TIP3    H234988   6.421   5.853   4.357  1.0716  1.2317  1.6814
 4525TIP3   OH234989   1.897   2.362  12.860  0.2563  0.8246 -0.1498
 4525TIP3    H134990   1.817   2.385  12.907  0.7778  1.1198  0.6144
 4525TIP3    H234991   1.888   2.404  12.775 -0.4024  0.8476 -0.0739
 4526TIP3   OH234992   5.885   3.737  13.610  0.2586  0.2247  0.6304
 4526TIP3    H134993   5.866   3.826  13.641  3.1146  0.8631  0.8498
 4526TIP3    H234994   5.828   3.725  13.535 -2.0854  1.2059  2.1488
 4527TIP3   OH234995   5.643   4.919  12.704 -0.0290 -0.2762 -0.0673
 4527TIP3    H134996   5.702   4.994  12.709 -0.5797  0.1546  0.0464
 4527TIP3    H234997   5.556   4.956  12.714 -0.4119 -0.7576 -1.4115
 4528TIP3   OH234998   5.508   6.422   1.374  0.2503  0.3551  0.0383
 4528TIP3    H134999   5.504   6.494   1.437 -1.3054  0.2455  0.0969
 4528TIP3    H235000   5.598   6.389   1.381  0.2237  0.5757  1.9289
 4529TIP3   OH235001   1.747   5.045  14.622  0.4608  0.3004 -0.3369
 4529TIP3    H135002   1.813   4.981  14.646  1.4626  2.2426  2.6714
 4529TIP3    H235003   1.667   5.017  14.667  1.2458  1.6842  2.1409
 4530TIP3   OH235004   5.009   5.717   2.361  0.1354  0.1473  0.1000
 4530TIP3    H135005   5.094   5.758   2.346  0.2168 -0.1759 -0.3215
 4530TIP3    H235006   5.007   5.701   2.456  1.0883 -1.0409 -0.0704
 4531TIP3   OH235007   0.441   6.527   4.639  0.2094 -0.2715 -0.1943
 4531TIP3    H135008   0.455   6.443   4.595 -0.5608 -0.4515 -0.1250
 4531TIP3    H235009   0.353   6.553   4.612  0.0395  0.0079  0.6041
 4532TIP3   OH235010   1.649   1.420  13.584  0.3370 -0.1037  0.4906
 4532TIP3    H135011   1.682   1.397  13.496 -0.3822 -2.4730  0.7545
 4532TIP3    H235012   1.609   1.339  13.616 -1.1416  1.2410  2.2558
 4533TIP3   OH235013   1.966   5.219  13.174  0.0039  0.1012 -0.5541
 4533TIP3    H135014   1.988   5.186  13.086 -2.6184 -0.2634 -1.1552
 4533TIP3    H235015   1.955   5.313  13.163  2.0617  0.4544 -0.0248
 4534TIP3   OH235016   0.444   0.577  15.514 -0.1918  0.2678 -0.3235
 4534TIP3    H135017   0.533   0.542  15.528  0.1671  1.8238  1.9712
 4534TIP3    H235018   0.451   0.629  15.434  1.3459  1.3630  0.4620
 4535TIP3   OH235019   0.993   5.234   4.629 -0.2658  0.3638 -0.4944
 4535TIP3    H135020   0.917   5.234   4.572  0.0688  1.2120 -0.9700
 4535TIP3    H235021   1.006   5.143   4.654  0.4956 -0.2893 -3.0145
 4536TIP3   OH235022   6.772   2.770  16.305  0.6292  0.0573  0.2383
 4536TIP3    H135023   6.802   2.860  16.309 -0.1171  0.3210  0.1184
 4536TIP3    H235024   6.681   2.774  16.335  0.6700 -0.6950  0.4976
 4537TIP3   OH235025   2.393   6.250   3.779 -0.5182  0.5471 -0.5903
 4537TIP3    H135026   2.381   6.292   3.864 -2.2978 -2.2841  0.7197
 4537TIP3    H235027   2.332   6.295   3.721 -1.0077  0.9906  0.2435
 4538TIP3   OH235028   6.226   0.523   3.444  0.3042 -0.4142  0.4755
 4538TIP3    H135029   6.206   0.605   3.399 -1.3718 -1.6538 -1.1789
 4538TIP3    H235030   6.296   0.484   3.392 -1.2362 -1.5725 -0.8370
 4539TIP3   OH235031   1.396   1.557   0.024  0.3180  0.1894 -0.2856
 4539TIP3    H135032   1.335   1.494   0.062  0.8678 -0.4567 -0.4572
 4539TIP3    H235033   1.413   1.525  -0.065  0.0092  1.0032 -0.6506
 4540TIP3   OH235034   4.215   1.388  13.193  0.8260 -0.0523  0.1652
 4540TIP3    H135035   4.296   1.383  13.244 -0.5468 -2.2044  2.3486
 4540TIP3    H235036   4.242   1.428  13.110  3.6290  1.4799  1.6687
 4541TIP3   OH235037   2.201   3.325  11.022  0.9234 -0.4949  0.3835
 4541TIP3    H135038   2.197   3.280  11.106  0.3907 -0.5062  0.3495
 4541TIP3    H235039   2.292   3.312  10.993  1.8897  1.7481  2.1679
 4542TIP3   OH235040   0.768   5.151   5.381  0.3198 -0.2145 -0.2581
 4542TIP3    H135041   0.840   5.096   5.351  0.0337 -0.8195  0.1572
 4542TIP3    H235042   0.708   5.091   5.425 -0.9516  0.1041 -1.4998
 4543TIP3   OH235043   6.331   5.122   5.542 -0.1201  0.0577  0.0108
 4543TIP3    H135044   6.246   5.125   5.586 -0.0927  0.0404  0.0650
 4543TIP3    H235045   6.357   5.214   5.535 -0.7865  0.1789 -1.2670
 4544TIP3   OH235046   3.256   5.749   2.163  0.1706 -0.2795  0.3052
 4544TIP3    H135047   3.318   5.817   2.189  0.2414  0.5316 -1.8153
 4544TIP3    H235048   3.306   5.667   2.169  1.4794  0.3508 -1.3081
 4545TIP3   OH235049   1.332   5.411   1.965  0.0497 -0.1036  0.2946
 4545TIP3    H135050   1.248   5.438   2.002 -0.0936  0.4407 -0.4117
 4545TIP3    H235051   1.390   5.486   1.981  0.8849 -1.0707  2.2239
 4546TIP3   OH235052   1.477   5.649  12.319  0.5202 -0.3525 -0.1343
 4546TIP3    H135053   1.382   5.658  12.326  0.5394 -0.5847  0.5276
 4546TIP3    H235054   1.506   5.632  12.409  1.4457  1.9721  0.0544
 4547TIP3   OH235055   4.219   3.211  12.743  0.8145 -0.7019 -0.5635
 4547TIP3    H135056   4.223   3.247  12.832 -0.7368 -0.4254 -0.5907
 4547TIP3    H235057   4.309   3.182  12.726  0.8093 -2.3423  1.7242
 4548TIP3   OH235058   6.404   6.467  13.611 -0.3740 -0.0667  0.0435
 4548TIP3    H135059   6.358   6.548  13.589 -0.5153  0.1525  1.1154
 4548TIP3    H235060   6.415   6.422  13.527  0.1381  1.2846 -0.6441
 4549TIP3   OH235061   0.931   3.182  11.997 -0.2358  0.0312  0.3592
 4549TIP3    H135062   0.849   3.221  12.029 -0.4837 -0.6230  0.5423
 4549TIP3    H235063   0.987   3.178  12.075 -0.6371 -1.0458  0.6098
 4550TIP3   OH235064   4.382   4.287   3.924  0.0178 -0.6109 -0.5980
 4550TIP3    H135065   4.457   4.347   3.927 -1.5461  1.4374  2.3578
 4550TIP3    H235066   4.398   4.232   3.847  2.7614  2.0117 -2.0894
 4551TIP3   OH235067   5.693   4.510  15.514 -0.1438 -0.0654  0.3420
 4551TIP3    H135068   5.612   4.521  15.464 -0.6169 -0.6615  0.9449
 4551TIP3    H235069   5.758   4.485  15.449 -0.9621 -1.7572  0.1177
 4552TIP3   OH235070   4.580   1.660  11.280 -0.3452 -0.1848 -0.4096
 4552TIP3    H135071   4.595   1.720  11.353 -0.8123 -0.5746  0.0174
 4552TIP3    H235072   4.667   1.642  11.245  0.0139 -0.9231  0.8043
 4553TIP3   OH235073   4.330   5.890  13.374 -0.0216 -0.0945  0.0045
 4553TIP3    H135074   4.264   5.942  13.419 -0.0025  0.6694 -0.8343
 4553TIP3    H235075   4.372   5.840  13.444 -1.0274 -0.0972  0.6355
 4554TIP3   OH235076   3.561   5.830   0.807  0.1169  0.1683 -0.0954
 4554TIP3    H135077   3.587   5.886   0.734  0.8505 -1.6423 -1.2857
 4554TIP3    H235078   3.484   5.873   0.845  2.1429  3.3749  0.7618
 4555TIP3   OH235079   4.997   4.199   4.692  0.2575 -0.0230 -0.2911
 4555TIP3    H135080   5.001   4.104   4.680 -0.0296 -0.3184  1.6094
 4555TIP3    H235081   4.999   4.235   4.603  0.9830 -1.7704 -1.0299
 4556TIP3   OH235082   1.795   5.458  13.308 -0.3339  0.0373 -0.3497
 4556TIP3    H135083   1.707   5.496  13.314 -0.5231 -0.5544  1.2392
 4556TIP3    H235084   1.851   5.530  13.278 -0.9086  1.2324  1.2750
 4557TIP3   OH235085   4.123   3.206   0.393  0.2086  0.0279  0.3163
 4557TIP3    H135086   4.180   3.203   0.317 -0.0764 -0.4901  0.1162
 4557TIP3    H235087   4.088   3.296   0.393 -1.4879 -0.5621 -1.4516
 4558TIP3   OH235088   1.347   0.122   0.741 -0.5706 -0.4863  0.6963
 4558TIP3    H135089   1.266   0.169   0.760 -0.3887 -0.3495  1.1375
 4558TIP3    H235090   1.416   0.187   0.752 -0.2136 -1.1008  2.4247
 4559TIP3   OH235091   2.057   4.202  12.255 -0.8445 -0.0367  0.1011
 4559TIP3    H135092   2.143   4.207  12.212 -0.9583 -0.1193 -0.1341
 4559TIP3    H235093   2.046   4.110  12.276 -0.6280  0.0506  0.6437
 4560TIP3   OH235094   5.677   4.088   0.537  0.0400 -0.1565  0.7693
 4560TIP3    H135095   5.747   4.100   0.473 -0.0380  0.6273  0.8190
 4560TIP3    H235096   5.679   3.995   0.559  0.1029 -0.4263 -0.3372
 4561TIP3   OH235097   5.254   0.567  16.177 -0.1752 -0.0304 -0.1360
 4561TIP3    H135098   5.329   0.507  16.182 -0.9455 -0.9400  1.6152
 4561TIP3    H235099   5.179   0.512  16.201 -0.8705  1.6550  1.8561
 4562TIP3   OH235100   3.459   4.276  12.687  0.2875 -0.2675 -0.3812
 4562TIP3    H135101   3.473   4.298  12.780 -1.5567  0.2971 -0.1979
 4562TIP3    H235102   3.547   4.260  12.653  0.9243 -1.9720  1.8218
 4563TIP3   OH235103   2.133   5.406  13.951  0.2916 -0.4722 -0.0585
 4563TIP3    H135104   2.131   5.376  14.042  0.5744 -0.1180  0.0660
 4563TIP3    H235105   2.164   5.496  13.956  3.6904 -1.4620 -0.7483
 4564TIP3   OH235106   5.855   1.898  15.793 -0.2032 -0.3220  0.0213
 4564TIP3    H135107   5.883   1.822  15.741  2.1132  0.0768  0.5729
 4564TIP3    H235108   5.827   1.962  15.729  2.2504  0.0190 -0.8235
 4565TIP3   OH235109   3.221   6.428  11.268 -0.0816  0.4962  0.9033
 4565TIP3    H135110   3.254   6.413  11.179 -1.0111 -2.6773  0.9633
 4565TIP3    H235111   3.162   6.502  11.260  0.0302  0.4112 -1.0834
 4566TIP3   OH235112   6.817   3.028  15.800  0.0493  0.2465  0.5518
 4566TIP3    H135113   6.903   3.003  15.765 -1.3231 -1.1202 -2.1363
 4566TIP3    H235114   6.789   2.952  15.850  0.2587  0.5850  1.1947
 4567TIP3   OH235115   4.452   1.891  11.096  0.2418  0.2502  0.3184
 4567TIP3    H135116   4.459   1.868  11.189 -3.3670  1.6597  1.0795
 4567TIP3    H235117   4.471   1.984  11.093  0.3350  0.2105 -0.4008
 4568TIP3   OH235118   3.008   2.666   0.737 -0.0920 -0.0994 -0.6474
 4568TIP3    H135119   3.093   2.699   0.707  0.3231 -1.9475 -1.7073
 4568TIP3    H235120   2.977   2.612   0.664 -1.1892 -1.1527  0.5492
 4569TIP3   OH235121   0.781   1.453   5.589  0.7597 -0.3521 -0.6233
 4569TIP3    H135122   0.730   1.401   5.651 -0.7017 -0.5610 -1.9355
 4569TIP3    H235123   0.726   1.529   5.570  1.2664 -0.1840 -1.4843
 4570TIP3   OH235124   5.318   4.842  13.733  0.2826  0.0602 -0.0568
 4570TIP3    H135125   5.310   4.932  13.699 -1.1759 -0.9865 -2.8383
 4570TIP3    H235126   5.365   4.796  13.664 -1.8775 -1.9996 -0.2741
 4571TIP3   OH235127   0.643   4.796  13.938  0.5827 -0.5364  0.5781
 4571TIP3    H135128   0.617   4.778  14.028  1.6373 -0.1414  0.9738
 4571TIP3    H235129   0.608   4.722  13.888 -1.8839  0.2735  0.9273
 4572TIP3   OH235130   0.064   1.166   4.542 -0.3020  0.7364  0.1746
 4572TIP3    H135131   0.045   1.255   4.572 -0.6636  1.1975 -1.3268
 4572TIP3    H235132  -0.019   1.135   4.505 -0.1558 -0.2107  0.6074
 4573TIP3   OH235133   6.560   2.965   2.600  0.7678  0.2989 -1.2108
 4573TIP3    H135134   6.619   3.029   2.561  0.0316  0.5071 -2.0077
 4573TIP3    H235135   6.512   2.928   2.526 -0.0101  0.0433 -0.5983
 4574TIP3   OH235136   3.464   5.453   1.620 -0.0735 -0.0928  0.3010
 4574TIP3    H135137   3.513   5.521   1.667  0.0299  2.4409 -3.1132
 4574TIP3    H235138   3.530   5.406   1.569 -0.5056 -0.7558  0.3409
 4575TIP3   OH235139   5.967   6.452  15.660 -0.2135  0.3046  0.2389
 4575TIP3    H135140   6.034   6.451  15.592 -0.9878  1.7278 -0.5921
 4575TIP3    H235141   5.887   6.425  15.615 -0.1765 -1.7236  1.2930
 4576TIP3   OH235142   4.950   1.998  13.553 -0.0563  0.4322  0.5892
 4576TIP3    H135143   4.930   2.037  13.468  1.3594  1.7404  0.8233
 4576TIP3    H235144   4.881   1.933  13.566  0.7573 -1.2289 -2.4313
 4577TIP3   OH235145   2.356   5.377  13.286 -0.3631  0.5444 -0.0970
 4577TIP3    H135146   2.319   5.461  13.313 -1.1572  0.3875 -0.6752
 4577TIP3    H235147   2.436   5.400  13.239  0.0134  0.9123  0.6947
 4578TIP3   OH235148   0.097   3.866   1.931 -0.3113  0.2908 -0.0203
 4578TIP3    H135149   0.058   3.861   2.019  1.0264  1.1019  0.6498
 4578TIP3    H235150   0.022   3.875   1.872 -1.2517 -0.6066  1.0052
 4579TIP3   OH235151   1.950   4.148  14.686  0.4000 -0.4679 -0.1114
 4579TIP3    H135152   2.017   4.114  14.745 -0.1339  0.5766  1.1547
 4579TIP3    H235153   1.993   4.221  14.641 -0.4464  1.7102  2.3755
 4580TIP3   OH235154   4.195   4.936   5.283 -0.8099  1.2029 -0.2936
 4580TIP3    H135155   4.199   4.919   5.378 -1.0991 -1.2680 -0.6446
 4580TIP3    H235156   4.130   5.006   5.274 -2.3629  0.0538  1.2382
 4581TIP3   OH235157   1.246   2.231  14.825 -0.2793  0.0299 -0.0055
 4581TIP3    H135158   1.333   2.234  14.865  0.6617  0.3910 -1.9530
 4581TIP3    H235159   1.224   2.322  14.809 -1.0644 -0.0572  0.5447
 4582TIP3   OH235160   2.105   2.064  13.053 -0.2163 -0.2072  0.1233
 4582TIP3    H135161   2.032   2.087  13.110  0.1632  0.5624  0.3144
 4582TIP3    H235162   2.183   2.077  13.108  0.1412  0.3809 -0.5174
 4583TIP3   OH235163   0.251   3.428  12.497 -0.1745 -0.1755 -0.1127
 4583TIP3    H135164   0.249   3.348  12.549  0.1593  0.7007  1.3159
 4583TIP3    H235165   0.320   3.481  12.537  1.6531 -0.3286 -2.8414
 4584TIP3   OH235166   0.281   0.848   2.126 -0.3576 -0.3771 -0.2189
 4584TIP3    H135167   0.289   0.782   2.056 -0.3917 -0.2212 -0.3701
 4584TIP3    H235168   0.188   0.867   2.131 -0.1719  1.0990 -1.5264
 4585TIP3   OH235169   2.159   5.871  14.912 -0.1907 -0.3911  0.2680
 4585TIP3    H135170   2.127   5.876  15.002  0.4252 -0.6227  0.5060
 4585TIP3    H235171   2.124   5.789  14.877 -1.0259  0.0457  0.0517
 4586TIP3   OH235172   1.821   6.105   3.801  0.2939  0.3691 -0.1106
 4586TIP3    H135173   1.911   6.073   3.813  0.3200  0.9660  1.5984
 4586TIP3    H235174   1.831   6.187   3.754  0.4353 -0.6827 -2.0050
 4587TIP3   OH235175   5.409   1.591   0.541  0.2544  0.2077 -0.5259
 4587TIP3    H135176   5.433   1.498   0.536 -0.2265  0.0660 -0.2481
 4587TIP3    H235177   5.456   1.632   0.469  1.9550  0.0648  0.4475
 4588TIP3   OH235178   1.413   5.194  13.747 -1.0373  0.5737 -0.2467
 4588TIP3    H135179   1.322   5.166  13.735 -0.5006 -0.5825 -1.9322
 4588TIP3    H235180   1.454   5.179  13.662  0.8679  0.5738  0.6241
 4589TIP3   OH235181   3.304   1.330  15.797  0.0970 -0.1163 -0.0551
 4589TIP3    H135182   3.304   1.368  15.710 -2.3503 -0.4782 -0.2865
 4589TIP3    H235183   3.260   1.245  15.787  0.0019 -0.2840  1.4553
 4590TIP3   OH235184   1.711   1.824   0.245  0.1023 -0.2417  0.7074
 4590TIP3    H135185   1.687   1.732   0.237  0.4074 -0.2273 -0.5018
 4590TIP3    H235186   1.629   1.872   0.229  0.1578 -0.2799  0.3064
 4591TIP3   OH235187   2.188   3.126  14.685  0.4152 -0.4013  0.8036
 4591TIP3    H135188   2.203   3.039  14.649 -1.0540  0.0122 -0.9599
 4591TIP3    H235189   2.102   3.119  14.727  0.2094  0.2348  0.4925
 4592TIP3   OH235190   6.026   0.037  11.356 -0.5813 -0.1917  0.2228
 4592TIP3    H135191   6.058  -0.053  11.358 -1.5194 -0.5337  0.1440
 4592TIP3    H235192   6.025   0.064  11.448 -1.5725 -0.7286  0.3795
 4593TIP3   OH235193   4.096   1.656   0.802 -0.2692 -0.6120 -0.0507
 4593TIP3    H135194   4.076   1.710   0.726  0.2187 -0.8347 -0.3375
 4593TIP3    H235195   4.048   1.698   0.874 -1.2433 -0.7523 -0.5956
 4594TIP3   OH235196   1.203   1.076  14.367 -0.0250 -0.4137 -0.3634
 4594TIP3    H135197   1.221   1.170  14.364 -0.4408 -0.2178  1.7160
 4594TIP3    H235198   1.138   1.066  14.437 -0.6806 -2.1612 -1.1620
 4595TIP3   OH235199   1.848   4.027  17.009 -0.2507 -0.2846  0.0770
 4595TIP3    H135200   1.810   4.108  17.042 -2.4096 -2.0651  2.4238
 4595TIP3    H235201   1.909   3.999  17.077  0.2362 -0.7794 -0.5460
 4596TIP3   OH235202   0.834   5.417  10.555 -0.3835  0.0836 -0.2348
 4596TIP3    H135203   0.757   5.421  10.611 -0.7511  0.0721 -0.7319
 4596TIP3    H235204   0.864   5.326  10.560  0.5059  0.4287  1.1505
 4597TIP3   OH235205   6.628   4.894  16.415 -0.2759 -0.5891 -0.0891
 4597TIP3    H135206   6.579   4.924  16.339 -0.0532  0.0078  0.0024
 4597TIP3    H235207   6.560   4.874  16.480 -0.4097  0.2984  0.0600
 4598TIP3   OH235208   2.886   4.579  15.392 -0.1546  0.0467  0.1775
 4598TIP3    H135209   2.887   4.485  15.411  0.5589 -0.0818 -0.4352
 4598TIP3    H235210   2.811   4.591  15.333 -0.8412  0.0377  1.0250
 4599TIP3   OH235211   5.711   0.966  14.762  0.0508  0.3542 -0.3550
 4599TIP3    H135212   5.714   1.011  14.677  2.9138 -0.1199 -0.5841
 4599TIP3    H235213   5.778   1.009  14.814 -0.8567 -0.1604  1.3086
 4600TIP3   OH235214   6.089   6.538  11.375 -0.4106 -0.2254 -0.5731
 4600TIP3    H135215   6.183   6.524  11.368 -0.2018  1.5986 -2.3964
 4600TIP3    H235216   6.050   6.467  11.324  0.1573  0.5675 -2.1873
 4601TIP3   OH235217   6.186   1.944   0.611  0.2986  0.3724  0.2280
 4601TIP3    H135218   6.171   1.906   0.698 -0.5986 -1.5366 -0.6845
 4601TIP3    H235219   6.188   1.868   0.553  0.9714  1.6035 -1.4178
 4602TIP3   OH235220   5.225   0.445  13.839 -0.1837 -0.0679  0.0790
 4602TIP3    H135221   5.163   0.374  13.824 -1.1692  0.4022  1.7139
 4602TIP3    H235222   5.303   0.402  13.874 -0.8649 -0.3492  1.2965
 4603TIP3   OH235223   2.096   4.603   1.626 -0.0187  0.0276 -0.0570
 4603TIP3    H135224   2.130   4.520   1.593  0.9700  0.0469  0.8621
 4603TIP3    H235225   2.050   4.641   1.551 -1.5570 -1.8693 -0.1773
 4604TIP3   OH235226   4.745   0.515   4.818 -0.0181 -0.1001 -0.4780
 4604TIP3    H135227   4.754   0.446   4.752  0.1074  0.2163 -0.7979
 4604TIP3    H235228   4.662   0.496   4.861  1.2200 -1.9935  1.2656
 4605TIP3   OH235229   3.771   6.526   1.187 -0.3918  0.0826  0.1741
 4605TIP3    H135230   3.862   6.500   1.195  0.0099 -0.2455 -3.6020
 4605TIP3    H235231   3.729   6.454   1.140 -1.7815  1.6343 -1.0930
 4606TIP3   OH235232   3.665   4.631  13.614  0.2367 -1.0847 -0.0592
 4606TIP3    H135233   3.603   4.683  13.665  0.5474 -1.5381  0.7932
 4606TIP3    H235234   3.741   4.689  13.603  0.9505 -1.6376  1.6662
 4607TIP3   OH235235   6.307   1.260   1.570  0.4943  0.7135  0.6002
 4607TIP3    H135236   6.344   1.221   1.650 -2.8456 -0.9502  1.4928
 4607TIP3    H235237   6.279   1.347   1.596 -0.1918  0.3350  1.1459
 4608TIP3   OH235238   0.554   0.468   2.089  0.3221 -0.6487  0.3704
 4608TIP3    H135239   0.542   0.464   2.184  0.6319 -2.2601  0.3697
 4608TIP3    H235240   0.465   0.473   2.054  0.1627 -0.8942  0.7305
 4609TIP3   OH235241   6.447   0.010  12.577  0.3097 -0.8633 -0.1436
 4609TIP3    H135242   6.395  -0.069  12.595 -1.8001  0.1838 -1.3286
 4609TIP3    H235243   6.524  -0.023  12.530 -1.0548 -2.1655 -1.6080
 4610TIP3   OH235244   2.467   0.064  16.584 -0.1203 -0.1836  0.0501
 4610TIP3    H135245   2.529   0.121  16.538  0.0420  0.9614  1.6157
 4610TIP3    H235246   2.382   0.106  16.573 -0.5493 -1.3825 -1.4989
 4611TIP3   OH235247   1.819   4.871   2.278 -0.4439 -0.4178 -0.6408
 4611TIP3    H135248   1.865   4.902   2.357  0.8586 -1.0465 -1.1189
 4611TIP3    H235249   1.831   4.776   2.280  1.4869 -0.2906 -2.6723
 4612TIP3   OH235250   2.802   2.402  13.815 -0.3052 -0.2928 -0.3121
 4612TIP3    H135251   2.878   2.404  13.874 -0.1178 -0.0096 -0.5590
 4612TIP3    H235252   2.825   2.463  13.745 -0.7990 -0.1444 -0.3463
 4613TIP3   OH235253   4.941   5.001   2.840  0.4816  0.5897 -0.0891
 4613TIP3    H135254   4.898   5.047   2.913  2.4624 -0.5560  1.9249
 4613TIP3    H235255   4.990   5.068   2.795 -0.1905  1.2027  0.0737
 4614TIP3   OH235256   1.806   5.936   2.495  0.5780 -0.4451  0.2082
 4614TIP3    H135257   1.711   5.943   2.496  0.6109  0.0510  0.2328
 4614TIP3    H235258   1.835   6.005   2.435  0.9704  0.0728  0.9774
 4615TIP3   OH235259   5.328   4.799   1.168  0.1604 -0.6251  1.0360
 4615TIP3    H135260   5.274   4.761   1.098  0.0027 -1.1352  1.4258
 4615TIP3    H235261   5.291   4.886   1.183  1.8390  0.6400 -1.3574
 4616TIP3   OH235262   0.110   4.425   5.762  0.6332  0.6573  0.3249
 4616TIP3    H135263   0.149   4.377   5.835  0.8629  0.3072 -0.0269
 4616TIP3    H235264   0.069   4.357   5.708  1.8783  0.7178 -0.7503
 4617TIP3   OH235265   5.324   0.829   1.989  0.3009 -0.0185  0.8949
 4617TIP3    H135266   5.253   0.836   1.926  1.9710 -0.2436 -1.1124
 4617TIP3    H235267   5.323   0.737   2.015  0.0627 -0.0988  0.6083
 4618TIP3   OH235268   6.332   4.970  11.044  0.1230  0.5721  0.1357
 4618TIP3    H135269   6.377   5.039  10.996  2.0521 -0.2702  0.6304
 4618TIP3    H235270   6.300   5.012  11.123 -1.4423  1.5519 -0.9634
 4619TIP3   OH235271   6.574   0.791   0.658  0.1836 -0.0562  0.1829
 4619TIP3    H135272   6.565   0.839   0.740  1.4852 -1.4018  1.1840
 4619TIP3    H235273   6.624   0.849   0.602  0.8251  0.2078  0.9971
 4620TIP3   OH235274   5.808   6.127  11.372 -0.0065 -0.4902 -0.5174
 4620TIP3    H135275   5.757   6.187  11.317  1.0938  0.2551 -0.7460
 4620TIP3    H235276   5.758   6.045  11.370 -1.4956  0.3627 -0.2908
 4621TIP3   OH235277   2.157   1.435  13.317 -0.0521 -0.4851 -0.2070
 4621TIP3    H135278   2.183   1.344  13.308  1.8375 -0.0817  0.5549
 4621TIP3    H235279   2.195   1.478  13.240 -1.1509 -0.3619 -0.6967
 4622TIP3   OH235280   0.976   2.045   2.211 -0.1542  0.3306  0.4147
 4622TIP3    H135281   0.913   2.116   2.199 -2.2455 -1.5533 -0.4896
 4622TIP3    H235282   0.923   1.965   2.207  2.1532 -1.3224  0.8726
 4623TIP3   OH235283   2.130   1.104   3.287  0.6425  0.0788 -0.1156
 4623TIP3    H135284   2.170   1.058   3.361  1.0737 -1.9936 -1.5378
 4623TIP3    H235285   2.198   1.165   3.257  0.6627  0.5407  0.8594
 4624TIP3   OH235286   5.607   6.378   4.606  0.0678  0.0935 -0.4829
 4624TIP3    H135287   5.546   6.377   4.680 -0.0557  0.0478 -0.5862
 4624TIP3    H235288   5.583   6.302   4.554  1.6121 -1.1896  0.5991
 4625TIP3   OH235289   3.017   3.123   3.544  0.0962 -0.0034  0.6384
 4625TIP3    H135290   2.965   3.054   3.503 -1.0338  1.1032  0.1219
 4625TIP3    H235291   3.002   3.200   3.488  0.6969  0.8568  1.6265
 4626TIP3   OH235292   2.299   4.293  12.518  0.0405 -0.0994  0.3312
 4626TIP3    H135293   2.271   4.379  12.486 -0.5334 -0.6345 -0.6353
 4626TIP3    H235294   2.374   4.312  12.575  0.6474  0.9376 -0.7751
 4627TIP3   OH235295   4.021   2.698   2.385 -0.1067 -0.1563  0.2185
 4627TIP3    H135296   4.117   2.706   2.380 -0.0843 -0.7843 -0.6090
 4627TIP3    H235297   3.990   2.748   2.309 -0.3444 -1.1838 -0.3816
 4628TIP3   OH235298   2.801   3.852   0.693  0.5110  0.1672 -0.4734
 4628TIP3    H135299   2.781   3.770   0.648 -1.4896 -0.1239  0.8489
 4628TIP3    H235300   2.865   3.827   0.760  0.7634 -0.0897 -0.8048
 4629TIP3   OH235301   5.302   0.956  16.574 -0.3849 -0.3448  0.0967
 4629TIP3    H135302   5.280   1.005  16.495 -1.6606 -1.2635 -0.1395
 4629TIP3    H235303   5.397   0.948  16.572 -0.1750  1.7072 -0.0874
 4630TIP3   OH235304   4.630   3.882   6.326  0.5119 -0.7436  0.1184
 4630TIP3    H135305   4.689   3.870   6.400 -0.7723 -1.0157  1.1361
 4630TIP3    H235306   4.581   3.961   6.347 -1.9683 -2.4065  1.1086
 4631TIP3   OH235307   3.826   5.952  14.278  0.0075  0.2861 -0.5975
 4631TIP3    H135308   3.916   5.967  14.248 -0.6050  1.7451 -1.8164
 4631TIP3    H235309   3.786   6.039  14.280 -1.3220 -0.3085  0.1777
 4632TIP3   OH235310   6.425   0.623  12.029 -0.4096 -0.6364 -0.2406
 4632TIP3    H135311   6.481   0.689  12.071 -3.1526  3.6931 -2.6763
 4632TIP3    H235312   6.401   0.563  12.100  3.7079 -0.2603  1.7589
 4633TIP3   OH235313   1.541   5.067   0.622  0.0815 -1.2910  0.1960
 4633TIP3    H135314   1.602   5.040   0.554  0.2090 -0.2613 -0.1134
 4633TIP3    H235315   1.585   5.044   0.704  1.6965  0.9616  0.0417
 4634TIP3   OH235316   5.668   5.968  14.795  0.0969  0.7580 -0.1075
 4634TIP3    H135317   5.753   5.930  14.773 -0.2706  0.2044 -0.5951
 4634TIP3    H235318   5.689   6.039  14.856  0.8465  0.1852  0.3275
 4635TIP3   OH235319   3.653   5.590  17.038  0.6030 -0.0607 -0.1537
 4635TIP3    H135320   3.647   5.663  16.977 -1.2505  0.2773  0.3853
 4635TIP3    H235321   3.586   5.528  17.009  0.1249 -0.1851  1.1531
 4636TIP3   OH235322   6.289   4.056   3.364  0.1499 -0.4006  0.3479
 4636TIP3    H135323   6.301   4.080   3.456 -1.2237 -1.2053  0.7633
 4636TIP3    H235324   6.206   4.010   3.362 -0.7719  1.2185 -1.6259
 4637TIP3   OH235325   5.987   3.906  10.345  0.3535  0.1554 -0.5816
 4637TIP3    H135326   5.970   3.998  10.363 -0.0759 -0.6474  4.6431
 4637TIP3    H235327   5.908   3.875  10.300 -1.3675  1.5538  1.2988
 4638TIP3   OH235328   1.287   4.990  15.879  0.4373 -0.0186 -0.2702
 4638TIP3    H135329   1.268   5.044  15.802 -0.8837 -0.2496 -0.1363
 4638TIP3    H235330   1.220   5.016  15.943  0.1519 -1.3697  0.0106
 4639TIP3   OH235331   0.200   5.890  12.982 -0.0149  0.4822 -0.3226
 4639TIP3    H135332   0.160   5.871  12.897 -0.7276 -1.4655  0.3747
 4639TIP3    H235333   0.148   5.838  13.044  0.4942  1.8368  1.3039
 4640TIP3   OH235334   1.453   6.130   1.255  0.0088 -0.3656  0.0608
 4640TIP3    H135335   1.487   6.133   1.165  1.3034  0.0008  0.5392
 4640TIP3    H235336   1.528   6.104   1.308 -0.0870  1.7496  1.3345
 4641TIP3   OH235337   4.104   1.897  13.971  0.4553  0.6093  0.4677
 4641TIP3    H135338   4.073   1.908  13.881  1.7540  1.3476  0.0901
 4641TIP3    H235339   4.080   1.978  14.015  1.5378  1.0480  0.2624
 4642TIP3   OH235340   4.515   1.243   1.741 -0.1195 -0.2963  0.1077
 4642TIP3    H135341   4.556   1.220   1.825  1.0122  0.2872 -0.2654
 4642TIP3    H235342   4.519   1.339   1.738  0.2775 -0.3310 -0.8060
 4643TIP3   OH235343   4.536   6.372   0.952  0.2370  0.4992 -0.2098
 4643TIP3    H135344   4.586   6.400   0.876 -0.2671 -0.7855 -1.0441
 4643TIP3    H235345   4.466   6.436   0.961  0.6853  1.0210 -0.4162
 4644TIP3   OH235346   0.045   2.907  12.227  0.3690 -0.0533 -0.9294
 4644TIP3    H135347   0.005   2.820  12.222  0.3081 -0.1979  1.1812
 4644TIP3    H235348   0.111   2.900  12.296  1.5985  1.1247 -1.9335
 4645TIP3   OH235349   5.838   3.620  12.028 -0.6217 -0.0572  0.4442
 4645TIP3    H135350   5.867   3.710  12.016  0.3263 -0.5837 -1.9896
 4645TIP3    H235351   5.744   3.626  12.042 -0.3215  1.3675  2.0975
 4646TIP3   OH235352   5.828   1.466  13.574 -0.3286  0.0442 -0.1960
 4646TIP3    H135353   5.781   1.522  13.512 -0.4619 -0.6789 -0.7552
 4646TIP3    H235354   5.779   1.475  13.656 -0.9257 -0.0129 -0.5420
 4647TIP3   OH235355   2.235   6.660   1.714  0.3483 -0.4605  0.0629
 4647TIP3    H135356   2.154   6.680   1.666  1.3827  1.1868 -1.0945
 4647TIP3    H235357   2.255   6.569   1.692 -0.1506 -0.2729 -1.2312
 4648TIP3   OH235358   0.556   3.267   5.860 -0.6772  0.0191 -0.1808
 4648TIP3    H135359   0.483   3.260   5.799 -1.2995 -0.8634  0.6299
 4648TIP3    H235360   0.515   3.263   5.947  0.1205  1.7961  0.3354
 4649TIP3   OH235361   1.897   0.454   6.408  0.1365 -0.1853  0.5877
 4649TIP3    H135362   1.804   0.474   6.399 -0.1284 -1.2477  0.8474
 4649TIP3    H235363   1.918   0.403   6.330  0.1180 -1.2529  1.2613
 4650TIP3   OH235364   2.986   1.182  12.379 -0.7234  0.0929 -0.4605
 4650TIP3    H135365   3.037   1.238  12.437 -0.4705 -1.3335  0.7600
 4650TIP3    H235366   2.895   1.201  12.401 -0.6272 -0.6386  0.6424
 4651TIP3   OH235367   2.037   2.317  16.273  0.2227 -0.5628 -0.3155
 4651TIP3    H135368   2.091   2.293  16.198  1.0704 -1.6955  0.6007
 4651TIP3    H235369   1.947   2.299  16.245  0.4778 -0.4652 -1.2247
 4652TIP3   OH235370   3.728   4.693   1.421  0.3280 -0.5098 -0.1265
 4652TIP3    H135371   3.632   4.687   1.428  0.4445 -2.3376  0.4660
 4652TIP3    H235372   3.749   4.779   1.456 -1.0031 -0.6305  1.0697
 4653TIP3   OH235373   4.282   4.247   1.713 -0.1791  0.2584 -0.4781
 4653TIP3    H135374   4.221   4.320   1.710 -0.0122  0.3823 -1.0224
 4653TIP3    H235375   4.367   4.285   1.689  0.1164  0.0859  0.2561
 4654TIP3   OH235376   2.092   4.009   3.025  0.0174 -0.1845  0.4061
 4654TIP3    H135377   2.101   3.949   3.099  0.4159 -0.1954  0.3463
 4654TIP3    H235378   2.149   4.083   3.046 -1.1432  0.6106  0.9101
 4655TIP3   OH235379   0.076   4.628  10.313  0.0875  0.0942 -0.0861
 4655TIP3    H135380   0.054   4.718  10.339 -2.6868 -0.6536  0.3967
 4655TIP3    H235381   0.124   4.592  10.387  0.1541  0.7935  0.2174
 4656TIP3   OH235382   3.826   4.531   5.020 -0.2911 -0.6384 -0.3228
 4656TIP3    H135383   3.840   4.623   4.995 -0.6045  0.2695  2.4877
 4656TIP3    H235384   3.914   4.493   5.019 -0.1182 -0.2424 -1.2396
 4657TIP3   OH235385   6.621   4.688  14.866 -0.3572  0.6007 -0.3370
 4657TIP3    H135386   6.708   4.647  14.872 -0.3670  0.1701 -2.4568
 4657TIP3    H235387   6.598   4.706  14.957  0.1188 -3.1087  0.7157
 4658TIP3   OH235388   2.430   5.479  13.636 -0.3255 -0.1002  0.5436
 4658TIP3    H135389   2.352   5.438  13.599  1.0128 -0.3845 -2.2828
 4658TIP3    H235390   2.484   5.406  13.666 -0.5504  0.0085  1.2210
 4659TIP3   OH235391   0.734   3.585  11.253 -0.3996  0.4743  0.2919
 4659TIP3    H135392   0.758   3.656  11.193  1.1199  0.7399  1.1601
 4659TIP3    H235393   0.765   3.614  11.338 -1.4584 -0.4305  1.0143
 4660TIP3   OH235394   4.341   3.793  13.343 -0.2062 -0.5350  0.2250
 4660TIP3    H135395   4.418   3.849  13.350  1.3781 -2.5962  0.0168
 4660TIP3    H235396   4.298   3.801  13.428 -0.5504  1.6352 -0.0826
 4661TIP3   OH235397   5.328   1.995  12.106 -0.2175  0.3328  0.2327
 4661TIP3    H135398   5.275   2.036  12.175 -0.5938  2.0638 -1.0216
 4661TIP3    H235399   5.354   2.067  12.049  1.9195 -0.7392 -0.2735
 4662TIP3   OH235400   1.728   5.131   2.191 -0.1514  0.5329  0.4416
 4662TIP3    H135401   1.725   5.037   2.208 -3.0676  0.4398 -0.0255
 4662TIP3    H235402   1.809   5.144   2.141 -0.1145 -1.8827 -0.2481
 4663TIP3   OH235403   2.184   1.497  14.540  0.3878 -0.1197 -0.7265
 4663TIP3    H135404   2.089   1.507  14.548  0.1474 -1.1074 -2.0232
 4663TIP3    H235405   2.201   1.509  14.446  1.4557 -0.6237 -0.6085
 4664TIP3   OH235406   6.750   6.545  15.943 -0.4998 -0.0087  0.2794
 4664TIP3    H135407   6.703   6.477  15.991  0.5153 -1.7597 -1.0716
 4664TIP3    H235408   6.824   6.499  15.903  0.9601  2.1454  0.3052
 4665TIP3   OH235409   4.908   5.185  14.393 -0.6623 -0.2093 -0.1271
 4665TIP3    H135410   4.971   5.133  14.343 -0.9154  0.9799 -1.7447
 4665TIP3    H235411   4.845   5.120  14.424  0.1168 -1.1321 -0.3945
 4666TIP3   OH235412   1.595   0.969  15.599 -0.2515  0.5455  0.1139
 4666TIP3    H135413   1.563   0.994  15.686 -1.1322 -1.2182  0.3449
 4666TIP3    H235414   1.539   1.017  15.538 -2.0698 -0.9036  0.5457
 4667TIP3   OH235415   5.604   3.224   2.463  0.0373  0.0977 -0.5233
 4667TIP3    H135416   5.661   3.296   2.439  1.0963 -0.7689 -0.6762
 4667TIP3    H235417   5.548   3.259   2.532  1.2305  0.7618  0.1280
 4668TIP3   OH235418   0.793   0.362  14.559 -0.5986 -0.1927  0.3367
 4668TIP3    H135419   0.863   0.354  14.495 -0.7191 -1.7282  0.3672
 4668TIP3    H235420   0.723   0.408  14.512 -0.3986 -0.6165 -0.3865
 4669TIP3   OH235421   4.660   0.144  17.041  0.5112  0.1120 -0.3086
 4669TIP3    H135422   4.634   0.075  17.102 -3.4118  2.5271  1.1561
 4669TIP3    H235423   4.606   0.129  16.963 -0.7594  1.6070  0.2083
 4670TIP3   OH235424   4.543   1.483  16.469 -1.1319  0.0357  0.0149
 4670TIP3    H135425   4.571   1.571  16.443 -0.0829  0.2095  1.5954
 4670TIP3    H235426   4.469   1.463  16.412  0.0423  1.0054 -1.9633
 4671TIP3   OH235427   6.662   5.504   3.437 -0.5245  0.2135 -0.0513
 4671TIP3    H135428   6.578   5.482   3.476 -0.5053  0.0235 -0.1120
 4671TIP3    H235429   6.695   5.420   3.403  0.9355 -0.2732  2.3536
 4672TIP3   OH235430   4.082   5.768   4.924  0.0214 -0.2483 -0.2953
 4672TIP3    H135431   4.003   5.768   4.870 -0.4050  0.0093  0.3086
 4672TIP3    H235432   4.051   5.742   5.011  0.5266  0.2715  0.0504
 4673TIP3   OH235433   0.916   5.138  14.457 -0.3158  0.4428  0.1089
 4673TIP3    H135434   0.893   5.135  14.364  2.0057  2.5733 -0.6426
 4673TIP3    H235435   0.979   5.067  14.468 -0.2521  0.4741 -0.0474
 4674TIP3   OH235436   3.465   5.403  11.510  0.3383 -0.6262 -0.1714
 4674TIP3    H135437   3.444   5.326  11.457  0.7430 -0.5379 -0.4616
 4674TIP3    H235438   3.516   5.459  11.452  1.3151 -0.8058  0.5001
 4675TIP3   OH235439   3.591   4.425  13.855  0.5804 -0.0856 -0.7907
 4675TIP3    H135440   3.576   4.511  13.894  2.3875  0.2302 -0.6901
 4675TIP3    H235441   3.600   4.442  13.761 -0.8451 -0.4374 -1.0075
 4676TIP3   OH235442   2.430   1.147   3.875  0.2714 -0.2521  0.3489
 4676TIP3    H135443   2.480   1.177   3.951  0.7376  0.0402 -0.0687
 4676TIP3    H235444   2.398   1.227   3.833  1.3379 -0.3218 -0.6471
 4677TIP3   OH235445   5.503   5.847  13.650 -0.1360  0.6215 -0.8663
 4677TIP3    H135446   5.448   5.829  13.726 -0.8174  1.9621 -1.0159
 4677TIP3    H235447   5.508   5.942  13.645 -0.5473  0.5953 -2.7755
 4678TIP3   OH235448   4.564   2.436  12.486  0.1112  0.6764 -0.3118
 4678TIP3    H135449   4.549   2.530  12.474  0.4088  0.8212  0.4208
 4678TIP3    H235450   4.483   2.395  12.458  0.0581  1.1363 -0.8518
 4679TIP3   OH235451   6.138   4.204   0.507 -0.3851  0.1924 -0.0640
 4679TIP3    H135452   6.149   4.298   0.520  1.5940  0.0633 -0.5413
 4679TIP3    H235453   6.196   4.164   0.571 -0.1822 -0.6743 -0.7672
 4680TIP3   OH235454   6.570   1.616  13.860 -0.1960  0.4535  0.3118
 4680TIP3    H135455   6.526   1.689  13.815 -0.8759  0.2620  0.6567
 4680TIP3    H235456   6.509   1.590  13.928  0.2216 -0.1860  0.4440
 4681TIP3   OH235457   6.490   5.625  14.739 -0.1170  0.3981 -0.0574
 4681TIP3    H135458   6.422   5.558  14.738  0.1828  0.0294  1.6271
 4681TIP3    H235459   6.554   5.595  14.674 -0.8300 -0.0038 -0.5970
 4682TIP3   OH235460   3.477   6.224   3.946  0.0940 -0.0915  0.8532
 4682TIP3    H135461   3.505   6.239   4.036 -0.0383 -1.1837  1.0985
 4682TIP3    H235462   3.550   6.177   3.906 -0.2726 -0.5412  0.7043
 4683TIP3   OH235463   0.554   0.739   0.617 -0.0357 -0.2697  0.4381
 4683TIP3    H135464   0.491   0.701   0.679 -1.1738 -0.1152 -0.5851
 4683TIP3    H235465   0.508   0.815   0.581  0.7838 -0.1027 -0.2677
 4684TIP3   OH235466   3.338   6.027  11.846 -0.1826 -0.0330  0.4007
 4684TIP3    H135467   3.374   5.939  11.859 -0.0035 -0.0479 -0.1847
 4684TIP3    H235468   3.327   6.035  11.752 -1.9313 -0.1047  0.5764
 4685TIP3   OH235469   1.860   3.640  14.106  0.0741  0.1639 -0.5323
 4685TIP3    H135470   1.896   3.691  14.178 -0.1097  1.4845 -1.3308
 4685TIP3    H235471   1.767   3.662  14.104 -0.6759 -2.5191  0.9376
 4686TIP3   OH235472   2.546   5.930  13.464  0.5633  1.5147  0.2204
 4686TIP3    H135473   2.483   5.930  13.393  1.3894 -0.7512 -0.6318
 4686TIP3    H235474   2.533   6.013  13.510 -1.2617  2.1945 -1.4375
 4687TIP3   OH235475   3.068   6.010  13.945  0.3440  0.2206 -0.0157
 4687TIP3    H135476   2.983   6.042  13.914  0.9159  1.2354 -0.5816
 4687TIP3    H235477   3.074   5.921  13.909 -0.7555 -0.1272  0.5952
 4688TIP3   OH235478   1.966   5.327  16.560  0.6264 -0.5178  0.0319
 4688TIP3    H135479   1.910   5.404  16.548  0.3895 -0.3268  1.9771
 4688TIP3    H235480   2.040   5.341  16.501 -0.0662  0.5314 -0.6266
 4689TIP3   OH235481   6.691   6.067   4.736 -0.1412  0.2811 -0.1437
 4689TIP3    H135482   6.683   6.122   4.658  2.0615  0.4617 -0.2979
 4689TIP3    H235483   6.606   6.074   4.779 -1.3692  0.3017 -2.4293
 4690TIP3   OH235484   4.202   6.817   3.370  0.4162  0.0734 -0.0176
 4690TIP3    H135485   4.168   6.808   3.281 -1.6017 -0.6841  0.7540
 4690TIP3    H235486   4.240   6.904   3.372  0.3819  0.1607 -1.5795
 4691TIP3   OH235487   1.145   5.790  12.372 -0.4065 -0.0375 -0.0008
 4691TIP3    H135488   1.182   5.703  12.356 -1.1194 -0.1394 -1.1578
 4691TIP3    H235489   1.054   5.783  12.344 -0.5505  0.9987  0.1838
 4692TIP3   OH235490   6.770   6.491  14.315 -0.0033  0.2493 -0.2874
 4692TIP3    H135491   6.822   6.456  14.243  0.4391 -0.9769  0.5890
 4692TIP3    H235492   6.705   6.423  14.333  0.1938  0.3101  0.7539
 4693TIP3   OH235493   2.490   5.323  10.831 -0.2495 -0.3875  0.0114
 4693TIP3    H135494   2.415   5.377  10.856  0.5284  0.8458 -0.2934
 4693TIP3    H235495   2.458   5.270  10.758 -1.4706 -1.4766  1.2587
 4694TIP3   OH235496   2.146   4.407   4.597  0.1456 -0.1454  0.1483
 4694TIP3    H135497   2.151   4.311   4.602 -1.7771 -0.2761  0.3119
 4694TIP3    H235498   2.211   4.438   4.661  0.5258 -1.3353  0.3643
 4695TIP3   OH235499   1.834   2.189  13.494  0.5353 -0.6509 -0.1101
 4695TIP3    H135500   1.886   2.179  13.574  1.6159  1.5609 -0.4579
 4695TIP3    H235501   1.769   2.256  13.516  2.4371  1.9109 -1.6880
 4696TIP3   OH235502   0.224   3.343   2.616 -0.1762  0.0376 -0.7063
 4696TIP3    H135503   0.240   3.404   2.544 -1.1682  0.2869 -0.7264
 4696TIP3    H235504   0.257   3.259   2.585  0.3507  0.3588 -1.0377
 4697TIP3   OH235505   3.173   2.135  16.167 -0.2260 -0.5388 -0.0811
 4697TIP3    H135506   3.179   2.040  16.165 -1.5570 -0.6705  0.8538
 4697TIP3    H235507   3.263   2.165  16.155  0.3969 -1.9404  0.7945
 4698TIP3   OH235508   1.972   2.618   0.483 -0.2922  0.6571  0.5106
 4698TIP3    H135509   2.025   2.696   0.468  1.4277 -0.3883  0.9405
 4698TIP3    H235510   1.961   2.580   0.396  2.8005 -1.0435  0.7498
 4699TIP3   OH235511   2.000   2.256   1.858  0.1252  0.6992  0.0234
 4699TIP3    H135512   2.016   2.336   1.810  0.5302  0.3549 -0.4154
 4699TIP3    H235513   2.066   2.255   1.927 -1.3490  1.9285  1.5571
 4700TIP3   OH235514   2.961   5.043  12.403 -0.1806  0.9697 -0.7790
 4700TIP3    H135515   3.018   4.994  12.462 -1.2592 -1.2041 -1.4428
 4700TIP3    H235516   2.875   5.042  12.444 -1.0772 -1.0261 -2.5006
 4701TIP3   OH235517   5.836   4.315  13.420  0.5741  0.1632 -0.6060
 4701TIP3    H135518   5.753   4.291  13.378  1.3543 -0.4863 -1.8755
 4701TIP3    H235519   5.811   4.360  13.500 -1.0116 -1.4841 -0.0925
 4702TIP3   OH235520   5.268   0.904   5.407 -0.4146  0.3106 -0.1240
 4702TIP3    H135521   5.361   0.919   5.422 -0.3774 -1.1279  1.4309
 4702TIP3    H235522   5.227   0.990   5.422  0.6916  1.1537 -1.6516
 4703TIP3   OH235523   3.206   0.220  10.462  0.6014  0.1450  0.1906
 4703TIP3    H135524   3.217   0.227  10.367 -0.0567 -0.9997  0.0031
 4703TIP3    H235525   3.201   0.310  10.493  1.5319  0.5448 -0.7697
 4704TIP3   OH235526   3.071   1.146   4.347  0.5798  0.1259 -0.0042
 4704TIP3    H135527   3.132   1.184   4.284  0.4211  1.3299  0.5614
 4704TIP3    H235528   3.116   1.149   4.431  0.9623 -1.8769 -0.0854
 4705TIP3   OH235529   5.810   2.219   2.951 -0.1695  0.1983 -0.4824
 4705TIP3    H135530   5.822   2.231   3.045  0.3376  0.9345 -0.6310
 4705TIP3    H235531   5.794   2.125   2.941 -0.6743  0.1758  0.3751
 4706TIP3   OH235532   2.958   0.267   3.735 -0.2727  0.1892  0.1087
 4706TIP3    H135533   3.004   0.335   3.686 -1.6498  0.1618 -1.3091
 4706TIP3    H235534   3.020   0.194   3.738  0.0396  0.3658 -1.2172
 4707TIP3   OH235535   4.190   1.233   5.121  0.0213 -0.9070  0.4311
 4707TIP3    H135536   4.126   1.163   5.134  0.3199 -1.1279  0.7118
 4707TIP3    H235537   4.275   1.192   5.137  0.0818  0.3717  4.4545
 4708TIP3   OH235538   4.187   0.824  12.814  0.3818  0.1609 -0.2516
 4708TIP3    H135539   4.144   0.738  12.803 -1.7581  1.2391 -0.8772
 4708TIP3    H235540   4.241   0.813  12.893  3.5141 -2.9740 -2.4989
 4709TIP3   OH235541   3.526   2.299   2.421 -0.4453  0.2436 -0.9358
 4709TIP3    H135542   3.583   2.376   2.418  1.1171 -0.7303  1.3833
 4709TIP3    H235543   3.580   2.228   2.386 -0.5121 -0.5157  0.4421
 4710TIP3   OH235544   0.746   6.508  14.134 -0.5187  0.7916  0.1177
 4710TIP3    H135545   0.740   6.599  14.163 -0.2004  0.6114  0.7698
 4710TIP3    H235546   0.789   6.462  14.206  0.3099  0.3312 -0.6498
 4711TIP3   OH235547   5.590   3.747  12.151 -0.0648  0.0165  0.0296
 4711TIP3    H135548   5.562   3.772  12.063 -0.8776 -2.7362 -0.5870
 4711TIP3    H235549   5.509   3.730  12.198  0.3245  2.0518  1.6119
 4712TIP3   OH235550   4.754   5.253   0.527  0.2791  0.2904  0.0480
 4712TIP3    H135551   4.729   5.162   0.542  0.4410  0.1552 -0.5077
 4712TIP3    H235552   4.782   5.257   0.436 -1.7213  1.3516 -0.5621
 4713TIP3   OH235553   3.579   1.035  10.570  0.1810 -0.0353 -0.0186
 4713TIP3    H135554   3.662   1.079  10.551  1.1322 -1.6837  0.1520
 4713TIP3    H235555   3.600   0.942  10.568 -2.0775 -0.6139 -1.9642
 4714TIP3   OH235556   0.650   2.933  13.408  0.3957  0.0665 -0.3096
 4714TIP3    H135557   0.555   2.921  13.408  0.4189 -1.6981  3.8742
 4714TIP3    H235558   0.684   2.844  13.401  1.6452  0.4435  0.7533
 4715TIP3   OH235559   6.803   3.477  12.715  0.1938 -0.6847 -0.4701
 4715TIP3    H135560   6.797   3.572  12.711 -0.6691 -0.7339 -0.3916
 4715TIP3    H235561   6.896   3.460  12.731 -0.0063  0.2135  2.0331
 4716TIP3   OH235562   6.026   0.465  16.013  0.1571 -0.0697  0.0959
 4716TIP3    H135563   6.027   0.551  16.053 -0.2672 -0.9375  2.0714
 4716TIP3    H235564   6.064   0.407  16.079 -0.5592 -1.5706 -0.7576
 4717TIP3   OH235565   4.020   3.184  13.513  0.0449 -0.1412 -0.0232
 4717TIP3    H135566   4.098   3.215  13.561  0.0770  0.8143 -0.6774
 4717TIP3    H235567   4.056   3.140  13.436 -0.0415 -0.8573  0.3285
 4718TIP3   OH235568   2.391   3.785  11.856 -0.1052  0.0390 -0.4341
 4718TIP3    H135569   2.322   3.756  11.796 -1.5186 -1.3188  1.7279
 4718TIP3    H235570   2.429   3.703  11.888  2.2799  0.7584 -1.2301
 4719TIP3   OH235571   3.688   0.830   0.273  0.3260 -0.2931 -0.3890
 4719TIP3    H135572   3.648   0.911   0.239 -1.0070 -0.6396  0.3126
 4719TIP3    H235573   3.757   0.861   0.331  0.0799  0.3402 -0.4182
 4720TIP3   OH235574   1.681   1.982  13.611  0.2960 -0.0975 -0.3436
 4720TIP3    H135575   1.663   1.907  13.554  1.6263 -0.8089  0.1325
 4720TIP3    H235576   1.705   1.943  13.695  0.5460  0.8787  0.0488
 4721TIP3   OH235577   3.254   2.145   2.721  0.4987  0.3275 -1.0683
 4721TIP3    H135578   3.269   2.218   2.661  0.3764  0.0553 -1.4395
 4721TIP3    H235579   3.221   2.185   2.801 -2.6748  0.4794 -2.2984
 4722TIP3   OH235580   6.183   1.047  10.794  0.4169  0.2683  0.1410
 4722TIP3    H135581   6.147   1.005  10.716  0.3005  0.5878  0.0191
 4722TIP3    H235582   6.112   1.103  10.826  0.2368 -0.3370  0.8438
 4723TIP3   OH235583   5.832   2.378   3.319  0.1024  0.4712 -0.2579
 4723TIP3    H135584   5.780   2.447   3.360  0.9910  0.4488  0.9894
 4723TIP3    H235585   5.921   2.414   3.315  0.1851  0.1812 -1.5308
 4724TIP3   OH235586   0.717   2.103  16.981  0.4093 -0.7050 -0.4539
 4724TIP3    H135587   0.771   2.066  16.911  0.0068 -2.0470 -0.0851
 4724TIP3    H235588   0.657   2.033  17.005 -1.9338  0.9088 -1.2296
 4725TIP3   OH235589   4.604   2.907   1.003  0.3917  0.3842  0.2512
 4725TIP3    H135590   4.615   2.871   1.091  0.9285  1.1958  0.5285
 4725TIP3    H235591   4.693   2.927   0.974  0.1262  1.4050  0.0847
 4726TIP3   OH235592   6.396   0.509   0.046  0.3451 -0.6703  0.0622
 4726TIP3    H135593   6.352   0.428   0.072  0.8396 -0.6521  0.9825
 4726TIP3    H235594   6.369   0.574   0.110  0.7382 -0.3501 -0.0920
 4727TIP3   OH235595   0.705   3.909   3.287  0.6025 -0.5768 -0.7094
 4727TIP3    H135596   0.769   3.949   3.345 -0.2063 -1.3000  0.7479
 4727TIP3    H235597   0.628   3.965   3.293 -0.6275 -2.2893  1.5402
 4728TIP3   OH235598   5.290   5.356  16.946  0.2548 -0.7234  0.5510
 4728TIP3    H135599   5.366   5.350  16.888  0.7392 -3.6918  1.3570
 4728TIP3    H235600   5.304   5.288  17.011 -1.5788  0.7506  2.6446
 4729TIP3   OH235601   0.788   0.231  13.986  0.2727 -0.6053  0.1499
 4729TIP3    H135602   0.859   0.183  13.942  0.1397  1.0332 -2.0268
 4729TIP3    H235603   0.830   0.311  14.017 -0.3119 -0.3028  0.1648
 4730TIP3   OH235604   1.929   4.100  11.778  0.2920 -0.6303  0.0275
 4730TIP3    H135605   1.868   4.169  11.805 -0.2726 -0.8815 -0.5647
 4730TIP3    H235606   1.967   4.133  11.697 -1.2450 -1.7041 -1.2025
 4731TIP3   OH235607   4.867   5.037   4.337  0.6846 -0.3887 -0.2284
 4731TIP3    H135608   4.940   5.039   4.399  1.8110 -0.1373 -1.5280
 4731TIP3    H235609   4.885   5.109   4.277 -0.7265 -0.2344 -0.4970
 4732TIP3   OH235610   4.022   6.021  11.364 -0.1192 -0.2288  0.1841
 4732TIP3    H135611   4.018   5.971  11.282 -0.4284 -0.0687  0.0988
 4732TIP3    H235612   4.098   5.986  11.410  0.8638  0.6003 -0.7597
 4733TIP3   OH235613   6.632   0.743  14.428  0.0391  0.7571  0.5038
 4733TIP3    H135614   6.608   0.650  14.434  1.4684  0.4120  1.2351
 4733TIP3    H235615   6.593   0.773  14.346 -0.5370 -0.4567  0.3160
 4734TIP3   OH235616   5.775   4.768  11.413 -0.2673 -0.0851 -0.1624
 4734TIP3    H135617   5.742   4.733  11.330 -2.8356 -0.2215  0.8293
 4734TIP3    H235618   5.763   4.697  11.475 -0.2352  0.6715  0.7269
 4735TIP3   OH235619   0.814   4.631   0.954  0.3649  0.0676  0.7065
 4735TIP3    H135620   0.908   4.645   0.940  0.2211 -0.4013 -0.9199
 4735TIP3    H235621   0.772   4.682   0.885 -0.7286  1.8569  2.5463
 4736TIP3   OH235622   1.131   2.587   2.993  0.8645  0.3155  0.1312
 4736TIP3    H135623   1.095   2.625   3.074 -1.3552 -0.6487 -0.3419
 4736TIP3    H235624   1.164   2.662   2.944 -1.0633  1.3683  0.3605
 4737TIP3   OH235625   0.276   5.252   1.584  0.0559  0.0148  0.0181
 4737TIP3    H135626   0.253   5.291   1.499  0.3492  0.3879  0.1065
 4737TIP3    H235627   0.361   5.291   1.606  0.8117 -1.3551 -0.3246
 4738TIP3   OH235628   4.236   6.218  16.124 -0.2479  0.1486  0.2509
 4738TIP3    H135629   4.189   6.141  16.091  0.2821 -0.4710  0.9015
 4738TIP3    H235630   4.270   6.260  16.045 -0.6719 -0.1904 -0.1260
 4739TIP3   OH235631   1.934   5.321   3.874  0.6201 -0.0853 -0.2440
 4739TIP3    H135632   1.968   5.341   3.961  0.0803  0.1829 -0.0916
 4739TIP3    H235633   1.941   5.403   3.825  0.6991 -0.1727 -0.3804
 4740TIP3   OH235634   0.081   6.363   0.054 -0.8252  0.0063 -0.4297
 4740TIP3    H135635   0.011   6.299   0.040  0.0017 -0.9133 -0.5199
 4740TIP3    H235636   0.161   6.314   0.037 -0.1237  0.8515  0.3229
 4741TIP3   OH235637   0.887   2.123   4.254 -0.3770  0.3282 -0.1538
 4741TIP3    H135638   0.953   2.138   4.321 -0.8683 -0.2394  0.4642
 4741TIP3    H235639   0.867   2.029   4.259 -0.7334  0.3571 -0.7996
 4742TIP3   OH235640   2.288   0.295  14.394 -0.1187 -0.1928  0.5743
 4742TIP3    H135641   2.350   0.315  14.323  0.8460 -0.9074  1.1991
 4742TIP3    H235642   2.208   0.267  14.349  0.3522 -0.2601 -0.2368
 4743TIP3   OH235643   0.595   4.050   2.572 -0.2511  0.1134 -0.2388
 4743TIP3    H135644   0.649   4.128   2.555  0.1570 -0.3016 -0.9371
 4743TIP3    H235645   0.545   4.038   2.491 -2.1287  1.0253  0.7261
 4744TIP3   OH235646   5.766   6.716  14.824 -0.0818  0.4094  0.3383
 4744TIP3    H135647   5.743   6.763  14.744 -1.2035 -2.8468 -1.4592
 4744TIP3    H235648   5.683   6.699  14.867  0.2895  0.0805  0.9446
 4745TIP3   OH235649   1.454   0.269   3.451 -0.5135 -0.2457  0.2739
 4745TIP3    H135650   1.435   0.314   3.534 -0.1999  0.7880 -0.1966
 4745TIP3    H235651   1.394   0.195   3.450 -1.7361  0.6915  0.6590
 4746TIP3   OH235652   6.401   1.502  13.351  0.3962  0.1297 -0.3566
 4746TIP3    H135653   6.307   1.510  13.368  0.4503  1.3543 -0.5398
 4746TIP3    H235654   6.433   1.592  13.349  1.4414 -0.2334 -1.0650
 4747TIP3   OH235655   3.947   5.531  16.289 -0.2919  0.1035 -0.1448
 4747TIP3    H135656   3.881   5.496  16.349  1.0475 -1.5273  0.4510
 4747TIP3    H235657   3.962   5.621  16.319 -1.3149  0.0717  0.4981
 4748TIP3   OH235658   5.135   2.924  13.503 -0.0402  0.2849  0.0831
 4748TIP3    H135659   5.098   2.843  13.538 -0.2910  1.1600  1.9600
 4748TIP3    H235660   5.178   2.965  13.578 -0.9759  2.4848 -0.5116
 4749TIP3   OH235661   2.718   5.295   1.658  0.7695 -0.0852 -0.7584
 4749TIP3    H135662   2.754   5.279   1.745 -2.2642 -1.1724  0.4424
 4749TIP3    H235663   2.669   5.377   1.667  0.5888 -0.1023 -1.5168
 4750TIP3   OH235664   2.550   4.254  15.608 -0.3505 -0.6204 -0.3302
 4750TIP3    H135665   2.518   4.231  15.695 -0.8209 -1.1086 -0.6318
 4750TIP3    H235666   2.560   4.350  15.611 -1.1186 -0.5467  0.0064
 4751TIP3   OH235667   0.354   4.375  12.195 -0.0809  0.3461  0.1539
 4751TIP3    H135668   0.389   4.442  12.137 -0.7753  1.4766  1.0016
 4751TIP3    H235669   0.271   4.349  12.155 -0.1155  0.4485  0.1604
 4752TIP3   OH235670   0.730   4.447   3.232 -0.4173 -0.0270 -0.0362
 4752TIP3    H135671   0.659   4.422   3.173 -0.8390 -1.1854  0.9254
 4752TIP3    H235672   0.698   4.525   3.277 -0.8861 -0.2495  0.0219
 4753TIP3   OH235673   4.334   5.364   3.661 -0.0385 -0.5358  0.4792
 4753TIP3    H135674   4.307   5.455   3.649  0.1099 -0.5931 -0.3918
 4753TIP3    H235675   4.338   5.329   3.572  2.1796 -0.7201  0.5916
 4754TIP3   OH235676   3.714   2.715   5.714 -0.2818 -0.4050  0.3655
 4754TIP3    H135677   3.623   2.692   5.731 -0.9889  0.7201 -1.5740
 4754TIP3    H235678   3.716   2.740   5.622  1.6456  1.1866  0.7656
 4755TIP3   OH235679   0.320   3.252   5.731 -0.7055  0.0447 -0.1150
 4755TIP3    H135680   0.293   3.175   5.680 -0.9852  0.5993 -0.8091
 4755TIP3    H235681   0.263   3.251   5.808  0.2643 -1.2627  0.6350
 4756TIP3   OH235682   3.111   1.791   3.597  0.8372 -0.1936 -0.5502
 4756TIP3    H135683   3.125   1.701   3.625 -2.2265 -0.2716  1.1135
 4756TIP3    H235684   3.106   1.842   3.678  0.3883  1.0946 -1.3490
 4757TIP3   OH235685   5.432   0.324  12.168 -0.2146  0.1145  0.5892
 4757TIP3    H135686   5.506   0.378  12.197 -0.8655 -0.4574  3.6992
 4757TIP3    H235687   5.354   0.374  12.194 -0.8895 -0.3879 -0.4227
 4758TIP3   OH235688   1.771   0.122  11.541  0.1306 -0.3733  0.0273
 4758TIP3    H135689   1.736   0.109  11.629 -1.1242  0.2769 -0.3540
 4758TIP3    H235690   1.703   0.088  11.482  0.8339 -0.5512 -0.7042
 4759TIP3   OH235691   4.356   1.919  14.888  0.0786  0.0036  0.2290
 4759TIP3    H135692   4.421   1.964  14.834  0.6014 -1.8442 -0.7634
 4759TIP3    H235693   4.368   1.956  14.975  0.5443  1.6803 -0.5111
 4760TIP3   OH235694   0.975   1.707   4.448 -0.1801  0.1082  0.1022
 4760TIP3    H135695   0.930   1.737   4.369  0.5536 -3.0331 -1.6875
 4760TIP3    H235696   0.914   1.645   4.489  0.0395  0.5961  1.2155
 4761TIP3   OH235697   2.382   6.582  10.834 -0.6744 -0.4321  0.0755
 4761TIP3    H135698   2.441   6.507  10.836  1.3034  1.0508  0.4993
 4761TIP3    H235699   2.384   6.611  10.743  2.9990  2.2566  0.7479
 4762TIP3   OH235700   4.719   5.233  12.026  0.3450 -0.2626  0.2622
 4762TIP3    H135701   4.747   5.299  11.963  0.6196 -0.3593  0.2823
 4762TIP3    H235702   4.660   5.280  12.086  0.1833 -0.1426  0.0121
 4763TIP3   OH235703   4.792   2.623   4.141 -0.1406  0.0340 -0.6475
 4763TIP3    H135704   4.829   2.624   4.052 -0.4673  1.9250 -0.7997
 4763TIP3    H235705   4.697   2.626   4.127 -0.2261 -0.5109 -0.2180
 4764TIP3   OH235706   4.821   0.807  11.810 -0.1645  0.6422 -0.1069
 4764TIP3    H135707   4.860   0.724  11.781  0.5361  1.2023 -0.8083
 4764TIP3    H235708   4.757   0.781  11.876  0.6031 -0.4010  0.2647
 4765TIP3   OH235709   3.604   3.425   4.241 -0.0047  0.3339  0.0412
 4765TIP3    H135710   3.624   3.356   4.304  1.1914  1.6029  1.1296
 4765TIP3    H235711   3.514   3.451   4.260  0.0905  0.1715  0.7110
 4766TIP3   OH235712   2.043   5.095   2.312  0.5457 -0.0324  0.3589
 4766TIP3    H135713   2.058   5.111   2.218 -0.2897  0.2950  0.2700
 4766TIP3    H235714   1.985   5.167   2.339 -0.7445 -1.1637  0.6870
 4767TIP3   OH235715   6.292   3.524   3.136  0.1182  0.7857  0.5757
 4767TIP3    H135716   6.246   3.452   3.178  1.0024 -0.2284 -0.1568
 4767TIP3    H235717   6.372   3.535   3.187  0.1588  1.0060  0.4667
 4768TIP3   OH235718   2.256   2.338  11.182 -0.2534  0.0164  0.1522
 4768TIP3    H135719   2.329   2.386  11.221 -1.9015  2.0413  0.9121
 4768TIP3    H235720   2.219   2.398  11.118 -0.7714 -1.3045 -0.8365
 4769TIP3   OH235721   5.796   3.231   0.734 -0.1273 -0.4355 -0.2503
 4769TIP3    H135722   5.754   3.245   0.818 -0.2542 -0.9831 -0.2202
 4769TIP3    H235723   5.885   3.202   0.756 -0.3842 -1.2697 -0.2958
 4770TIP3   OH235724   0.276   2.487  16.053  0.0677  0.1025 -0.4000
 4770TIP3    H135725   0.231   2.497  15.969 -1.2653  2.0344  0.4925
 4770TIP3    H235726   0.263   2.394  16.075 -1.8222  0.1549 -1.1034
 4771TIP3   OH235727   0.308   6.085   5.555  0.5201 -0.2270  0.1404
 4771TIP3    H135728   0.259   6.143   5.497 -2.6080 -2.1739  0.6384
 4771TIP3    H235729   0.353   6.025   5.497  0.1940 -0.0409 -0.3104
 4772TIP3   OH235730   1.744   5.740  16.909 -0.3683  0.2306  1.0575
 4772TIP3    H135731   1.687   5.706  16.977 -1.3649  1.0391  0.6583
 4772TIP3    H235732   1.688   5.747  16.832  1.2635 -2.9666 -0.6449
 4773TIP3   OH235733   1.293   2.126   2.874  0.4406  0.3058  0.6105
 4773TIP3    H135734   1.239   2.050   2.894 -0.2347  0.0090 -1.9893
 4773TIP3    H235735   1.234   2.186   2.828  2.2423 -0.1023 -2.4723
 4774TIP3   OH235736   3.208   4.350   6.715 -0.5860  0.4464  0.1353
 4774TIP3    H135737   3.231   4.306   6.796 -0.1795  0.5491  0.0773
 4774TIP3    H235738   3.262   4.308   6.648  1.6996  2.6106  0.4322
 4775TIP3   OH235739   6.166   2.024  14.276 -0.0418  0.2165  0.3913
 4775TIP3    H135740   6.075   2.000  14.293 -0.5310  0.3039 -1.8272
 4775TIP3    H235741   6.177   2.109  14.320 -0.9928  0.1633  0.7578
 4776TIP3   OH235742   6.703   1.793  13.352  0.1887  0.1699  0.2836
 4776TIP3    H135743   6.610   1.815  13.354  0.2038  0.2167  0.5537
 4776TIP3    H235744   6.711   1.728  13.283 -0.5393 -2.0023  2.1356
 4777TIP3   OH235745   2.287   6.433  11.461  0.4371  0.2031  0.1395
 4777TIP3    H135746   2.379   6.453  11.479  0.2425  1.9343 -0.5933
 4777TIP3    H235747   2.239   6.475  11.532  0.1776 -0.7347  0.5455
 4778TIP3   OH235748   3.913   3.542   3.078 -0.0251 -0.3850  0.1010
 4778TIP3    H135749   3.989   3.587   3.114 -1.1175  1.2794  0.4144
 4778TIP3    H235750   3.919   3.555   2.984 -0.5279  0.8082  0.2142
 4779TIP3   OH235751   4.170   4.422   1.440  0.1035 -0.1761  0.2797
 4779TIP3    H135752   4.227   4.470   1.500 -1.7855  1.4169  0.9240
 4779TIP3    H235753   4.158   4.480   1.365 -1.5443  0.0601  0.6802
 4780TIP3   OH235754   5.003   5.064   5.376 -0.3271  0.2253 -0.0593
 4780TIP3    H135755   5.013   5.001   5.447  0.6542  0.5935  0.1411
 4780TIP3    H235756   5.016   5.149   5.418 -2.6051  0.6658 -0.1310
 4781TIP3   OH235757   0.100   3.879  14.808  0.3972  0.1671 -0.5995
 4781TIP3    H135758   0.017   3.925  14.820  1.6765  2.3086  0.6592
 4781TIP3    H235759   0.150   3.898  14.888  1.6238 -2.1776 -0.7094
 4782TIP3   OH235760   3.210   1.402  14.084 -0.6056 -0.5328  0.3246
 4782TIP3    H135761   3.227   1.313  14.114  0.7188 -0.3914  0.0496
 4782TIP3    H235762   3.118   1.401  14.055 -0.7834 -1.6357  0.8903
 4783TIP3   OH235763   0.661   2.209   0.213  0.0740  0.0400 -0.0580
 4783TIP3    H135764   0.629   2.285   0.165  0.3248  0.5206  0.5254
 4783TIP3    H235765   0.688   2.147   0.145 -0.8499  0.1541 -0.5443
 4784TIP3   OH235766   4.263   0.382  11.296  0.4046  0.1968 -0.1481
 4784TIP3    H135767   4.307   0.467  11.293  1.1083 -0.1791 -2.9640
 4784TIP3    H235768   4.286   0.340  11.213 -0.7871 -2.3257  0.7083
 4785TIP3   OH235769   0.047   4.402   2.668 -0.9060 -0.0268  0.1309
 4785TIP3    H135770  -0.032   4.375   2.622 -0.5833 -0.4219 -0.1968
 4785TIP3    H235771   0.052   4.497   2.653 -1.1716 -0.0449 -0.0748
 4786TIP3   OH235772   2.286   5.229   2.099 -0.3414 -0.1423  0.6060
 4786TIP3    H135773   2.195   5.260   2.106 -0.0996  0.5848  0.6335
 4786TIP3    H235774   2.295   5.201   2.008  0.1023  2.1079 -0.1013
 4787TIP3   OH235775   1.916   2.287   4.807  0.0990 -0.3944 -0.0361
 4787TIP3    H135776   1.912   2.380   4.831  1.2143 -0.8121  1.9900
 4787TIP3    H235777   2.004   2.276   4.772 -0.2842 -0.5700 -0.9785
 4788TIP3   OH235778   3.764   0.141   1.969  0.0660 -0.0286  0.3843
 4788TIP3    H135779   3.773   0.062   2.022 -1.4527  0.1928  1.0416
 4788TIP3    H235780   3.793   0.212   2.026  1.3529 -0.0875 -0.1773
 4789TIP3   OH235781   6.138   3.884   1.239  0.2943  0.0088 -0.4646
 4789TIP3    H135782   6.112   3.843   1.157 -3.9805 -1.1007  1.1712
 4789TIP3    H235783   6.161   3.811   1.297 -1.4292  0.2901  0.6564
 4790TIP3   OH235784   2.762   0.190   3.359  0.1857  0.1487 -0.3752
 4790TIP3    H135785   2.688   0.149   3.315  2.2042 -1.5961 -2.3077
 4790TIP3    H235786   2.739   0.283   3.362 -2.4568 -0.4347 -0.0135
 4791TIP3   OH235787   5.302   6.605   1.900 -0.0036  0.7273 -0.1773
 4791TIP3    H135788   5.318   6.648   1.984  1.4220  2.4436 -1.2547
 4791TIP3    H235789   5.284   6.677   1.839  0.2153 -0.3710 -1.5996
 4792TIP3   OH235790   0.059   3.247   2.891 -0.3423 -0.3955 -0.0008
 4792TIP3    H135791   0.005   3.306   2.837  2.1587  1.0440 -1.1249
 4792TIP3    H235792   0.128   3.303   2.925  1.2647 -2.3914  0.2012
 4793TIP3   OH235793   1.578   0.721  16.951  0.5634 -0.0752 -0.1758
 4793TIP3    H135794   1.541   0.737  16.863 -0.6673  1.1995  0.5269
 4793TIP3    H235795   1.512   0.669  16.995  1.5181 -1.3599 -0.2087
 4794TIP3   OH235796   5.697   1.804   4.720 -0.3269 -0.3548 -0.5033
 4794TIP3    H135797   5.640   1.787   4.645 -0.0845  1.0915 -1.0542
 4794TIP3    H235798   5.662   1.749   4.790 -1.5007 -0.5873 -1.2427
 4795TIP3   OH235799   2.589   6.115  14.715 -0.3007 -0.5236  0.1968
 4795TIP3    H135800   2.598   6.121  14.620  2.8868  1.5347  0.4767
 4795TIP3    H235801   2.609   6.024  14.735 -2.4880 -1.3717 -1.1336
 4796TIP3   OH235802   4.353   1.659  10.467  0.3345  0.7800 -0.0838
 4796TIP3    H135803   4.406   1.582  10.448  0.0791  0.6766 -0.3921
 4796TIP3    H235804   4.387   1.692  10.549  1.3423  1.1191 -0.6219
 4797TIP3   OH235805   6.106   3.785  11.450  0.4495 -0.2562 -0.1825
 4797TIP3    H135806   6.140   3.701  11.479  1.8079 -0.1929 -1.4731
 4797TIP3    H235807   6.167   3.849  11.488 -0.3831  0.1494  0.5133
 4798TIP3   OH235808   6.543   6.142   2.301  0.1711 -0.0921  0.0856
 4798TIP3    H135809   6.575   6.070   2.356 -1.7047 -0.4738  0.7452
 4798TIP3    H235810   6.448   6.140   2.311 -0.0333  1.5583 -1.0665
 4799TIP3   OH235811   1.423   3.442   5.291  0.3174 -0.2201 -0.6902
 4799TIP3    H135812   1.355   3.440   5.224 -0.4777 -2.5116  0.1094
 4799TIP3    H235813   1.498   3.483   5.248 -0.3026 -1.2160 -2.8227
 4800TIP3   OH235814   2.553   0.275   2.609 -0.5732  0.3397 -0.2338
 4800TIP3    H135815   2.504   0.251   2.688 -0.7373 -0.0991 -0.4659
 4800TIP3    H235816   2.610   0.347   2.637 -0.3120 -0.1059  0.3968
 4801TIP3   OH235817   4.833   0.712  10.636  0.1352 -0.4444  0.4217
 4801TIP3    H135818   4.929   0.714  10.636  0.1628 -1.2590 -0.1006
 4801TIP3    H235819   4.808   0.780  10.573  0.4104 -1.0480 -0.3597
 4802TIP3   OH235820   4.625   3.548   4.893  0.0559  0.0246 -0.4846
 4802TIP3    H135821   4.544   3.531   4.845  0.7349 -1.9880 -0.9951
 4802TIP3    H235822   4.597   3.597   4.970 -1.7658 -1.2619 -0.2596
 4803TIP3   OH235823   2.146   1.162  10.770 -0.1628 -0.0082 -0.5337
 4803TIP3    H135824   2.123   1.070  10.783  0.3934 -0.0094  0.5081
 4803TIP3    H235825   2.218   1.160  10.708  1.2606 -0.4411  1.0703
 4804TIP3   OH235826   1.148   3.609   6.054 -0.3299  0.3467 -0.7265
 4804TIP3    H135827   1.170   3.517   6.039 -0.4646  0.3736 -1.1101
 4804TIP3    H235828   1.214   3.658   6.004  0.1760  0.4799  0.0493
 4805TIP3   OH235829   6.801   6.091  16.395  0.2752 -0.4001 -0.0068
 4805TIP3    H135830   6.842   6.177  16.387  0.6021 -0.5155  0.4059
 4805TIP3    H235831   6.710   6.106  16.368  0.2000  0.1807  0.5473
 4806TIP3   OH235832   0.829   6.264   0.946 -0.0903  0.2681  0.4677
 4806TIP3    H135833   0.898   6.206   0.913 -0.8662 -0.6993  0.4869
 4806TIP3    H235834   0.758   6.205   0.971 -0.1952  1.0942  2.2829
 4807TIP3   OH235835   1.629   2.763  15.718 -0.3755  0.0020 -0.3221
 4807TIP3    H135836   1.604   2.844  15.674 -0.2508  0.1333 -0.1491
 4807TIP3    H235837   1.692   2.790  15.785  0.6957 -0.3820 -1.1392
 4808TIP3   OH235838   0.016   3.538   6.318 -0.1651 -0.1423  0.2481
 4808TIP3    H135839  -0.019   3.461   6.274  0.7852 -1.1105  1.1069
 4808TIP3    H235840   0.111   3.530   6.307  0.2512 -1.2190  3.5684
 4809TIP3   OH235841   1.285   1.468   0.610  0.2281  0.1004  0.0423
 4809TIP3    H135842   1.359   1.518   0.576  1.0283 -1.4812 -0.6353
 4809TIP3    H235843   1.217   1.478   0.543  0.3644  0.3037 -0.0654
 4810TIP3   OH235844   3.609   2.446   6.088 -0.1284 -0.2520 -0.0011
 4810TIP3    H135845   3.652   2.429   6.172 -1.8955  2.3007  1.5906
 4810TIP3    H235846   3.577   2.361   6.059  1.9638 -1.4725  1.0020
 4811TIP3   OH235847   5.217   4.574  14.155  0.2156 -0.1805  0.2308
 4811TIP3    H135848   5.137   4.603  14.199 -1.3701 -1.2837 -1.7530
 4811TIP3    H235849   5.281   4.644  14.172 -0.8633  0.3099  2.5998
 4812TIP3   OH235850   5.981   4.288  12.874 -0.6149  0.6451  0.4026
 4812TIP3    H135851   6.001   4.340  12.952  0.2927 -0.7507  1.1315
 4812TIP3    H235852   6.032   4.208  12.885  0.7744  1.0210 -2.3573
 4813TIP3   OH235853   2.555   3.690   5.109 -0.0818  0.5151  0.6009
 4813TIP3    H135854   2.629   3.704   5.168  0.3369  1.3165 -0.0981
 4813TIP3    H235855   2.505   3.771   5.115 -0.5525  0.2278  0.5689
 4814TIP3   OH235856   1.567   2.614  12.797 -0.0853 -0.7516  0.0522
 4814TIP3    H135857   1.481   2.580  12.774 -0.1564 -0.4668 -0.1129
 4814TIP3    H235858   1.614   2.539  12.834 -0.3431 -0.9492 -0.0209
 4815TIP3   OH235859   0.011   5.597   3.023 -0.0060 -0.0165 -0.1805
 4815TIP3    H135860  -0.042   5.663   2.977  0.9242  1.0849  0.2748
 4815TIP3    H235861  -0.052   5.531   3.050 -0.9375  0.5447 -0.9007
 4816TIP3   OH235862   1.239   1.113  10.598 -0.6879  0.6170 -0.1529
 4816TIP3    H135863   1.210   1.127  10.688 -0.3510  2.4399 -0.2971
 4816TIP3    H235864   1.218   1.194  10.553  0.7254  0.3811 -1.2953
 4817TIP3   OH235865   5.282   4.360   1.252 -0.2050  0.2434  0.0965
 4817TIP3    H135866   5.207   4.301   1.246 -0.3137  0.3582  0.3207
 4817TIP3    H235867   5.313   4.350   1.342  1.3419 -1.3796 -0.5441
 4818TIP3   OH235868   4.814   1.426   3.718  0.1221 -0.3283 -0.0219
 4818TIP3    H135869   4.884   1.488   3.739 -1.2204  0.9015  1.0214
 4818TIP3    H235870   4.766   1.469   3.647 -0.6171 -0.3082  0.4802
 4819TIP3   OH235871   0.114   1.807   6.239 -0.4131 -0.1598 -0.1429
 4819TIP3    H135872   0.189   1.866   6.233 -0.2000 -0.4341 -0.2073
 4819TIP3    H235873   0.048   1.857   6.289  0.8433 -0.9546  2.5120
 4820TIP3   OH235874   2.020   5.595  12.779  0.2657 -0.2030  0.5147
 4820TIP3    H135875   2.098   5.650  12.776  0.6986 -0.7810  1.0381
 4820TIP3    H235876   1.999   5.578  12.687  1.4061 -0.9461  0.3752
 4821TIP3   OH235877   5.096   5.047   4.025  0.9224  0.0806 -0.0760
 4821TIP3    H135878   5.163   4.979   4.028  1.3878  0.2188 -3.2153
 4821TIP3    H235879   5.020   5.004   3.984  0.4104  0.8855 -0.0040
 4822TIP3   OH235880   0.441   3.301  11.550  0.0157  0.1562  0.2289
 4822TIP3    H135881   0.462   3.389  11.520 -0.5809  0.1954 -0.0861
 4822TIP3    H235882   0.520   3.272  11.597 -0.3835  1.4643  1.7632
 4823TIP3   OH235883   3.738   5.467   0.764  0.4791 -0.0982  0.3170
 4823TIP3    H135884   3.717   5.543   0.818 -0.7255  0.6612 -1.1437
 4823TIP3    H235885   3.816   5.429   0.805  2.0083  2.7336  0.2991
 4824TIP3   OH235886   6.112   0.774  14.094  0.6049  0.7728 -0.1517
 4824TIP3    H135887   6.155   0.806  14.173  1.1956 -0.4362  0.0411
 4824TIP3    H235888   6.033   0.828  14.086  0.3117  0.6440  1.4889
 4825TIP3   OH235889   4.545   0.556  15.616  0.2364  0.0361 -0.3124
 4825TIP3    H135890   4.544   0.461  15.606  2.3241 -0.3981  2.2369
 4825TIP3    H235891   4.476   0.574  15.680  1.3843 -0.1636  1.0495
 4826TIP3   OH235892   4.631   4.750  15.810 -0.1884  1.0797  0.0867
 4826TIP3    H135893   4.669   4.803  15.739  2.6894 -0.4643  0.3329
 4826TIP3    H235894   4.639   4.805  15.888  1.0368  1.0547  0.0034
 4827TIP3   OH235895   6.533   2.667   4.373  0.1810  0.5094 -0.3207
 4827TIP3    H135896   6.571   2.635   4.291 -0.2043 -1.0707  0.0916
 4827TIP3    H235897   6.486   2.747   4.348 -1.2789 -0.7955 -1.9557
 4828TIP3   OH235898   2.362   3.523   2.294  0.4229 -0.1836 -0.1885
 4828TIP3    H135899   2.307   3.490   2.223  0.5416  0.7354 -0.7223
 4828TIP3    H235900   2.390   3.444   2.341  0.2014 -0.7926 -1.0522
 4829TIP3   OH235901   4.410   6.111  14.724  0.2374 -0.2167  0.3867
 4829TIP3    H135902   4.401   6.204  14.744 -1.5974 -0.2644 -0.0175
 4829TIP3    H235903   4.458   6.109  14.642  1.6002  0.2802  1.1389
 4830TIP3   OH235904   1.280   6.497   1.286  0.6088  0.1954  0.1271
 4830TIP3    H135905   1.308   6.588   1.270  0.3493 -0.1336 -2.8008
 4830TIP3    H235906   1.351   6.444   1.251 -0.1508 -0.7135 -0.0718
 4831TIP3   OH235907   5.797   5.687   4.076  0.0734  1.5428  0.1806
 4831TIP3    H135908   5.847   5.684   3.995  0.0460  0.2300  0.1997
 4831TIP3    H235909   5.726   5.624   4.064 -0.6641  2.2347  0.7563
 4832TIP3   OH235910   1.511   3.206  11.746  0.1996 -0.0511  0.2753
 4832TIP3    H135911   1.504   3.122  11.791  1.3903 -2.2067 -3.1531
 4832TIP3    H235912   1.421   3.235  11.734 -0.3448 -1.6769  0.2169
 4833TIP3   OH235913   2.373   4.799   4.137 -0.2076 -0.7606 -0.2350
 4833TIP3    H135914   2.286   4.836   4.154 -0.1714 -0.5577 -0.4773
 4833TIP3    H235915   2.386   4.734   4.206  0.0077  0.1611  0.6261
 4834TIP3   OH235916   4.327   2.048  11.908  0.6529 -0.0609  0.3881
 4834TIP3    H135917   4.416   2.083  11.896  0.7049 -0.4100 -0.2884
 4834TIP3    H235918   4.298   2.026  11.819  0.1373 -0.5620  0.6766
 4835TIP3   OH235919   0.112   6.201   5.389  0.3066  0.0774  0.0313
 4835TIP3    H135920   0.068   6.283   5.413 -0.7094 -0.0671 -1.2317
 4835TIP3    H235921   0.050   6.133   5.415  1.2550 -0.3322  1.3002
 4836TIP3   OH235922   0.118   6.023  16.668  0.0289  0.0573 -0.4257
 4836TIP3    H135923   0.117   6.078  16.590 -1.2564 -0.1441 -0.5683
 4836TIP3    H235924   0.192   5.963  16.655 -0.4560 -0.2888 -1.7106
 4837TIP3   OH235925   3.538   3.979  16.928  0.5044 -0.4330  0.0160
 4837TIP3    H135926   3.601   4.007  16.995 -0.7505 -0.9288  1.4626
 4837TIP3    H235927   3.453   4.004  16.965 -0.3854 -2.8257 -0.3073
 4838TIP3   OH235928   5.445   3.719  11.359  0.1348 -0.4336 -0.0748
 4838TIP3    H135929   5.504   3.790  11.336 -1.6081  0.6092 -1.6422
 4838TIP3    H235930   5.412   3.742  11.446 -1.2532  1.3437 -1.0145
 4839TIP3   OH235931   1.615   3.163  16.065 -0.3308  0.2851 -0.5043
 4839TIP3    H135932   1.609   3.084  16.119  3.4648  0.7415  0.9326
 4839TIP3    H235933   1.541   3.157  16.005 -1.0778 -3.6027  0.5204
 4840TIP3   OH235934   0.937   0.872   0.173 -0.2365 -0.3436 -0.4214
 4840TIP3    H135935   0.943   0.948   0.116 -0.7538  0.7069  0.8750
 4840TIP3    H235936   0.847   0.874   0.206  0.3535 -0.2616  1.2754
 4841TIP3   OH235937   1.686   5.183   4.001  0.0242  0.3067 -0.2655
 4841TIP3    H135938   1.766   5.207   3.954  0.6446  1.4092  1.2676
 4841TIP3    H235939   1.631   5.141   3.934  1.3134  0.7545 -1.6785
 4842TIP3   OH235940   1.521   4.209  16.488 -0.1002 -0.2685  0.1127
 4842TIP3    H135941   1.522   4.113  16.486  0.9155 -0.2540 -1.0857
 4842TIP3    H235942   1.441   4.234  16.442  0.1067 -0.5366 -0.3956
 4843TIP3   OH235943   3.845   2.710   1.136  0.6423  0.0878  0.1728
 4843TIP3    H135944   3.898   2.788   1.114  0.9456  0.4381  1.9747
 4843TIP3    H235945   3.779   2.706   1.067  0.9616  1.6330 -0.2729
 4844TIP3   OH235946   0.812   3.040   2.432 -0.0208 -0.3100  0.1248
 4844TIP3    H135947   0.849   3.119   2.471 -0.3636  0.2922 -0.7672
 4844TIP3    H235948   0.810   2.977   2.505 -1.2180  0.9717  1.2685
 4845TIP3   OH235949   6.725   1.214  15.156 -0.3343 -0.7152 -0.2006
 4845TIP3    H135950   6.739   1.198  15.063 -0.5268 -1.8929 -0.0351
 4845TIP3    H235951   6.687   1.302  15.160 -0.9062 -0.9034 -1.2830
 4846TIP3   OH235952   4.440   5.023  12.454  0.0723  0.2880  0.0268
 4846TIP3    H135953   4.448   4.995  12.545 -3.6652 -4.6608 -0.7484
 4846TIP3    H235954   4.511   4.977  12.409 -0.2608 -0.2185  0.0095
 4847TIP3   OH235955   2.188   2.340  12.976 -0.6967 -0.3683 -0.1772
 4847TIP3    H135956   2.119   2.287  12.937  1.3213 -1.3523 -2.7879
 4847TIP3    H235957   2.248   2.277  13.016  0.6220  0.0229 -1.4070
 4848TIP3   OH235958   2.390   1.510  10.053 -0.1539  0.4833  0.1816
 4848TIP3    H135959   2.338   1.590  10.061  1.7539  1.7185  0.9113
 4848TIP3    H235960   2.411   1.486  10.143 -0.6612 -0.8487 -0.0339
 4849TIP3   OH235961   3.254   2.195  14.586  0.1020  0.0466  0.2959
 4849TIP3    H135962   3.331   2.140  14.573  0.4974  0.6746 -0.0847
 4849TIP3    H235963   3.180   2.134  14.588  0.5776 -0.5326  0.3492
 4850TIP3   OH235964   6.293   6.597  15.745  0.2540 -0.1824 -0.0445
 4850TIP3    H135965   6.362   6.563  15.689  0.2348  0.8415 -0.7225
 4850TIP3    H235966   6.291   6.538  15.820  1.1240 -0.8505 -0.5344
 4851TIP3   OH235967   4.433   6.415  11.365 -0.0836 -0.3670 -0.1610
 4851TIP3    H135968   4.459   6.378  11.281  0.2354  0.8608 -0.6194
 4851TIP3    H235969   4.515   6.429  11.412 -0.2205 -0.4209  0.1005
 4852TIP3   OH235970   4.283   3.359  13.389 -0.5864  0.1395  0.6151
 4852TIP3    H135971   4.354   3.408  13.347 -1.0471 -0.0935 -0.4851
 4852TIP3    H235972   4.321   3.325  13.470  0.5856 -0.0624  0.0045
 4853TIP3   OH235973   3.438   5.622  10.892 -0.2338  0.2815 -0.1234
 4853TIP3    H135974   3.376   5.643  10.823 -0.3215  1.7443  0.3644
 4853TIP3    H235975   3.457   5.706  10.934  0.7777 -0.3859  0.8221
 4854TIP3   OH235976   0.200   0.987  11.723  0.1745  0.1888 -0.5498
 4854TIP3    H135977   0.126   1.046  11.740 -0.3166 -0.3086 -0.9007
 4854TIP3    H235978   0.259   1.039  11.667  0.1912  0.6592 -0.1041
 4855TIP3   OH235979   2.706   1.584   3.149 -0.2297  0.2782  0.5071
 4855TIP3    H135980   2.725   1.540   3.065 -1.4002  1.4660 -0.4249
 4855TIP3    H235981   2.659   1.518   3.200 -1.7337  0.3176 -0.7710
 4856TIP3   OH235982   5.115   6.615  11.892 -0.3984 -0.0422 -0.7795
 4856TIP3    H135983   5.079   6.564  11.965  0.1703  2.7881  1.6575
 4856TIP3    H235984   5.042   6.671  11.864 -0.7730 -1.4464 -2.8703
 4857TIP3   OH235985   5.176   2.203   3.376 -0.3449  0.3605  0.0053
 4857TIP3    H135986   5.258   2.215   3.423 -1.3944 -2.6108  2.9673
 4857TIP3    H235987   5.114   2.260   3.423 -0.4937  0.7741 -0.6850
 4858TIP3   OH235988   2.073   0.123  15.148  0.2547  0.2072  0.2222
 4858TIP3    H135989   2.130   0.099  15.221 -0.6975 -0.7320  0.6843
 4858TIP3    H235990   2.095   0.214  15.129  1.0838  0.2126  1.1463
 4859TIP3   OH235991   5.614   3.452   2.141  0.6260  0.6500  0.1905
 4859TIP3    H135992   5.588   3.544   2.150  0.1794  0.3714  2.1723
 4859TIP3    H235993   5.708   3.455   2.122  0.2459  1.5375 -1.7777
 4860TIP3   OH235994   0.207   0.498  11.770 -0.4244  0.2518 -0.3371
 4860TIP3    H135995   0.163   0.467  11.690  2.2165 -0.9691 -1.4457
 4860TIP3    H235996   0.235   0.587  11.750  0.7620 -0.2605 -1.0727
 4861TIP3   OH235997   5.945   1.510  12.757  1.1256  0.2358  0.1913
 4861TIP3    H135998   5.950   1.468  12.671 -1.5433  0.9354 -0.3928
 4861TIP3    H235999   6.018   1.572  12.757  0.3896  1.2095 -2.1610
 4862TIP3   OH236000   0.410   1.425  15.034  0.6617 -0.1021 -0.3108
 4862TIP3    H136001   0.376   1.458  14.951  0.3041  0.7628  0.1725
 4862TIP3    H236002   0.437   1.503  15.082  0.8848 -0.5964  0.3800
 4863TIP3   OH236003   3.190   5.255   0.204 -0.0185 -0.1115 -0.1204
 4863TIP3    H136004   3.116   5.241   0.263 -1.4347  1.3958 -1.4137
 4863TIP3    H236005   3.169   5.337   0.159  2.3710  0.2637 -0.6978
 4864TIP3   OH236006   2.748   1.249  13.380 -0.4542  0.2519  0.3779
 4864TIP3    H136007   2.666   1.298  13.381 -0.6556 -0.0840  0.3695
 4864TIP3    H236008   2.766   1.232  13.473  0.3004  1.4794  0.4639
 4865TIP3   OH236009   2.391   3.152   1.341 -0.1770  0.0649 -0.0210
 4865TIP3    H136010   2.371   3.138   1.248 -0.6641  1.0106 -0.0738
 4865TIP3    H236011   2.345   3.234   1.363  0.2753  0.0693  0.9439
 4866TIP3   OH236012   1.787   3.831  12.767 -0.2097 -0.1674 -0.5017
 4866TIP3    H136013   1.743   3.828  12.852 -0.3782 -0.8914 -0.6040
 4866TIP3    H236014   1.716   3.826  12.704 -0.0892  0.4487 -0.6934
 4867TIP3   OH236015   0.390   4.803  11.111 -0.5358  0.2270 -0.3494
 4867TIP3    H136016   0.422   4.878  11.160 -0.3672 -0.9562  1.4482
 4867TIP3    H236017   0.468   4.763  11.074 -0.6590  1.0971 -1.6085
 4868TIP3   OH236018   2.313   6.663  16.930  0.0248  0.4350  0.9057
 4868TIP3    H136019   2.305   6.582  16.980  0.9189  0.0488  0.4497
 4868TIP3    H236020   2.364   6.721  16.986  0.5483  0.1963  0.6862
 4869TIP3   OH236021   2.336   6.102  12.470 -0.0926 -0.1798  0.6059
 4869TIP3    H136022   2.371   6.156  12.541  0.3138 -1.2978  1.2840
 4869TIP3    H236023   2.241   6.110  12.478 -0.0396  0.2841  0.8040
 4870TIP3   OH236024   3.439   6.639  11.037 -0.1996 -0.0580  0.1528
 4870TIP3    H136025   3.485   6.601  10.962 -1.4939 -1.3710 -0.0234
 4870TIP3    H236026   3.360   6.678  11.000 -0.7858 -0.6020  0.7922
 4871TIP3   OH236027   0.595   3.140  12.972  0.0029 -0.0061 -0.5622
 4871TIP3    H136028   0.522   3.140  13.033 -0.4997  1.2360 -1.1361
 4871TIP3    H236029   0.665   3.094  13.018 -0.4331  0.7193  0.8629
 4872TIP3   OH236030   4.067   2.219  13.085 -0.0788 -0.3315  0.2209
 4872TIP3    H136031   4.045   2.225  12.992  0.5607 -1.7468 -0.0427
 4872TIP3    H236032   3.986   2.189  13.127 -0.9555  2.1105  0.4493
 4873TIP3   OH236033   0.743   4.652  15.623  0.6489  0.1675 -0.7265
 4873TIP3    H136034   0.800   4.729  15.613  0.8148  0.2554  0.6897
 4873TIP3    H236035   0.676   4.664  15.556  0.0710  2.1225  0.1166
 4874TIP3   OH236036   2.294   0.463   2.556  0.1895 -0.5833 -0.3106
 4874TIP3    H136037   2.286   0.523   2.630  1.3072  0.2211 -0.8112
 4874TIP3    H236038   2.351   0.393   2.587  0.3660 -0.4335 -0.3000
 4875TIP3   OH236039   4.451   3.333  16.492  0.1046  0.5419 -0.0226
 4875TIP3    H136040   4.432   3.426  16.505  1.3190  1.0456 -1.5889
 4875TIP3    H236041   4.535   3.332  16.447 -0.7822 -1.2453 -1.7452
 4876TIP3   OH236042   5.473   1.618   3.944 -0.2947  0.5284  0.2647
 4876TIP3    H136043   5.436   1.625   3.856  0.8343  0.4796 -0.2277
 4876TIP3    H236044   5.549   1.677   3.943  0.5726 -0.5473  0.7500
 4877TIP3   OH236045   2.114   6.012  14.263  0.4384  0.1178 -0.8696
 4877TIP3    H136046   2.061   6.086  14.232  0.8692  0.4066 -0.9398
 4877TIP3    H236047   2.176   6.052  14.325 -1.6528 -0.7175  1.9671
 4878TIP3   OH236048   0.153   2.518  13.030 -0.4437 -0.2935  0.1654
 4878TIP3    H136049   0.149   2.563  12.945 -0.9553 -1.0168 -0.1975
 4878TIP3    H236050   0.126   2.428  13.011 -2.4054 -0.0152  1.4207
 4879TIP3   OH236051   3.959   2.654   3.090  0.1059  0.2496 -0.1206
 4879TIP3    H136052   3.910   2.711   3.151  0.1068 -0.8331  0.9327
 4879TIP3    H236053   3.922   2.674   3.004 -1.0775  0.6138  0.4496
 4880TIP3   OH236054   1.228   6.327  11.219  0.3420  0.3228  0.1111
 4880TIP3    H136055   1.264   6.252  11.172 -0.2433 -0.3194  0.6713
 4880TIP3    H236056   1.191   6.382  11.151  0.0357 -0.3017 -0.2331
 4881TIP3   OH236057   1.825   4.628   0.756 -0.1203 -0.1114  0.1769
 4881TIP3    H136058   1.903   4.655   0.708 -0.7890 -0.0818 -0.9114
 4881TIP3    H236059   1.787   4.558   0.704 -0.8250 -0.1154  0.6861
 4882TIP3   OH236060   0.460   3.920  11.603  0.2754  0.7933  0.5832
 4882TIP3    H136061   0.505   3.900  11.521 -0.7706 -0.0107  0.1808
 4882TIP3    H236062   0.477   4.013  11.618  2.2394  0.4719  0.5841
 4883TIP3   OH236063   4.179   5.529   2.876  0.3385  0.6714  0.1264
 4883TIP3    H136064   4.128   5.542   2.796 -1.0761 -1.8233  0.4980
 4883TIP3    H236065   4.270   5.545   2.850 -0.1598  0.6032 -1.8053
 4884TIP3   OH236066   3.688   6.411   5.693 -0.6078 -0.0259 -0.6009
 4884TIP3    H136067   3.604   6.384   5.656  0.3351 -0.7416 -2.3495
 4884TIP3    H236068   3.712   6.489   5.644 -0.8324  0.9606  0.8041
 4885TIP3   OH236069   1.725   0.590   1.641 -0.2379 -0.9745 -0.1284
 4885TIP3    H136070   1.697   0.586   1.549 -2.0286  1.3518  0.1990
 4885TIP3    H236071   1.820   0.597   1.637 -0.3121 -0.4924 -1.8503
 4886TIP3   OH236072   5.539   3.520  15.717 -0.1109  0.2630 -0.5146
 4886TIP3    H136073   5.583   3.603  15.736 -2.5436  1.3272  0.9444
 4886TIP3    H236074   5.544   3.471  15.798  1.7226 -1.3176 -1.5033
 4887TIP3   OH236075   2.491   1.613   4.885  0.1654  0.1341 -0.4908
 4887TIP3    H136076   2.450   1.604   4.971  2.7867  0.5326  0.8995
 4887TIP3    H236077   2.555   1.683   4.896  1.6168 -0.8134 -2.3250
 4888TIP3   OH236078   4.957   3.349  16.049 -0.1305 -0.4087 -0.6545
 4888TIP3    H136079   5.000   3.279  16.097  1.0629 -0.2659 -1.4796
 4888TIP3    H236080   5.026   3.387  15.994 -0.2659  2.6070  1.0792
 4889TIP3   OH236081   4.557   5.188   1.572  0.7041 -0.6147  0.6150
 4889TIP3    H136082   4.556   5.273   1.528  1.4567 -0.3330  1.1226
 4889TIP3    H236083   4.465   5.170   1.589  0.4525 -0.4247 -0.4776
 4890TIP3   OH236084   2.496   5.875  14.001 -0.3761  0.0253  0.1834
 4890TIP3    H136085   2.418   5.846  14.049 -1.5473 -0.7196 -2.0200
 4890TIP3    H236086   2.492   5.827  13.919  1.1342  1.7826 -0.9896
 4891TIP3   OH236087   0.498   0.729   0.330  0.5418  0.0309  0.0219
 4891TIP3    H136088   0.478   0.647   0.376 -0.5885 -0.1029 -0.6764
 4891TIP3    H236089   0.439   0.793   0.369  1.0986  0.4117  0.2441
 4892TIP3   OH236090   1.853   1.429   4.988 -0.1256 -0.5070 -0.1695
 4892TIP3    H136091   1.812   1.454   4.906 -0.0337 -0.9909 -0.3656
 4892TIP3    H236092   1.946   1.444   4.975  0.1065 -2.2419 -0.7894
 4893TIP3   OH236093   6.761   5.886  16.104 -0.3534 -0.2000  0.2827
 4893TIP3    H136094   6.823   5.835  16.052  0.5548  0.5123  0.6520
 4893TIP3    H236095   6.704   5.821  16.145  1.5892 -1.0095  1.8000
 4894TIP3   OH236096   1.985   1.555  16.027  0.1066  0.0335  0.1605
 4894TIP3    H136097   1.944   1.475  15.994  0.2093  0.6294 -1.5039
 4894TIP3    H236098   2.012   1.533  16.116 -0.4981 -1.5501 -0.0112
 4895TIP3   OH236099   3.000   5.785   3.808 -0.2647  0.3132  0.1785
 4895TIP3    H136100   2.907   5.763   3.815 -0.3322  0.7362  0.6136
 4895TIP3    H236101   3.045   5.701   3.815 -0.7057 -0.2195 -2.3527
 4896TIP3   OH236102   6.005   2.927  15.358 -0.4020 -0.2605 -0.3797
 4896TIP3    H136103   6.001   2.832  15.351 -1.5106 -0.4714  2.0597
 4896TIP3    H236104   6.096   2.945  15.382 -0.4734 -0.8681  0.4203
 4897TIP3   OH236105   5.115   0.823   3.406 -0.4441  0.1820  0.0086
 4897TIP3    H136106   5.135   0.773   3.327 -0.7384 -0.3164  0.2471
 4897TIP3    H236107   5.020   0.821   3.413 -0.4591  0.7352  0.0503
 4898TIP3   OH236108   3.568   4.610   0.994  0.5045 -0.1560 -0.4048
 4898TIP3    H136109   3.536   4.526   0.962  0.9903 -0.5043 -0.0047
 4898TIP3    H236110   3.513   4.675   0.951 -0.3139 -0.7080 -0.2132
 4899TIP3   OH236111   3.781   4.757   1.099 -0.1618  0.1182  0.8361
 4899TIP3    H136112   3.744   4.755   1.187 -2.2136  0.2915  0.0354
 4899TIP3    H236113   3.724   4.700   1.048  0.6474  0.4702 -0.5166
 4900TIP3   OH236114   3.529   5.052  11.913  0.0492  0.5022  0.6261
 4900TIP3    H136115   3.494   4.965  11.928  1.2776 -0.3124 -0.9304
 4900TIP3    H236116   3.492   5.079  11.829 -0.6745  1.7001  1.2974
 4901TIP3   OH236117   1.100   6.577  12.942 -0.1538 -0.1943 -0.0435
 4901TIP3    H136118   1.022   6.529  12.915  1.4000 -1.4949 -2.6970
 4901TIP3    H236119   1.112   6.643  12.874  0.2929  0.9545  1.1100
 4902TIP3   OH236120   3.045   6.332   1.979 -0.8420 -0.1818 -0.1949
 4902TIP3    H136121   3.001   6.361   2.059 -1.1940  0.7808 -0.7196
 4902TIP3    H236122   2.984   6.356   1.908  0.2053  0.5212 -0.8825
 4903TIP3   OH236123   4.800   4.139   2.690 -0.0411  0.2142  0.8302
 4903TIP3    H136124   4.794   4.045   2.672 -0.7263  0.6156 -1.3702
 4903TIP3    H236125   4.716   4.161   2.732 -0.2214 -0.0264  0.5996
 4904TIP3   OH236126   1.578   5.121  13.533 -0.2741  0.0515  0.0401
 4904TIP3    H136127   1.587   5.041  13.584  0.4516 -0.4738 -0.9034
 4904TIP3    H236128   1.658   5.127  13.481 -0.9856  0.5876 -1.0329
 4905TIP3   OH236129   4.766   2.806   4.828  0.0755 -0.4974 -0.2051
 4905TIP3    H136130   4.754   2.872   4.897  0.9419 -1.9868  1.4577
 4905TIP3    H236131   4.858   2.813   4.804 -0.0739 -0.4245 -0.7764
 4906TIP3   OH236132   6.400   1.973   5.155  0.0562  0.1153 -0.0939
 4906TIP3    H136133   6.445   2.054   5.133 -0.5682  0.7262  0.7817
 4906TIP3    H236134   6.417   1.961   5.249 -0.5079 -0.3405 -0.0433
 4907TIP3   OH236135   0.766   6.442   0.180  0.3896  0.1227  0.1904
 4907TIP3    H136136   0.720   6.359   0.191 -0.6095  0.3721 -1.6113
 4907TIP3    H236137   0.833   6.443   0.247 -0.9515 -1.1971  1.6047
 4908TIP3   OH236138   5.568   4.103  14.406  0.7893 -1.2977  0.1616
 4908TIP3    H136139   5.655   4.109  14.443  0.7894 -0.9452  0.1015
 4908TIP3    H236140   5.561   4.177  14.346  0.8933 -2.0102 -0.7648
 4909TIP3   OH236141   2.518   4.969  11.778  0.0145 -0.0260 -0.0166
 4909TIP3    H136142   2.450   4.988  11.843  1.4665 -2.4466  2.4031
 4909TIP3    H236143   2.510   4.876  11.760  0.1093  0.4294 -2.9483
 4910TIP3   OH236144   2.332   3.537   4.995 -0.2336 -0.1138  0.1183
 4910TIP3    H136145   2.425   3.561   5.000  0.5551 -2.4796 -1.4134
 4910TIP3    H236146   2.290   3.614   4.955  1.0384  0.9948  0.8057
 4911TIP3   OH236147   2.858   0.176  13.319 -0.6573 -1.0050 -0.4963
 4911TIP3    H136148   2.908   0.120  13.377 -0.4142 -1.2350 -0.9186
 4911TIP3    H236149   2.778   0.127  13.301  0.3130 -2.0538 -2.2713
 4912TIP3   OH236150   3.655   2.860  13.490 -0.2020  0.7890 -0.0673
 4912TIP3    H136151   3.703   2.815  13.420 -0.3597  0.1352  0.2365
 4912TIP3    H236152   3.661   2.953  13.468  0.4793  0.6487 -0.4894
 4913TIP3   OH236153   1.880   2.355   4.457 -0.3683  0.0257 -0.1624
 4913TIP3    H136154   1.975   2.354   4.463 -0.3220 -0.2366 -0.9628
 4913TIP3    H236155   1.852   2.281   4.511 -0.1024 -0.1639 -0.2837
 4914TIP3   OH236156   3.379   5.373  12.184 -0.7484  0.1315 -0.1218
 4914TIP3    H136157   3.452   5.365  12.122 -0.9156  0.1025 -0.3170
 4914TIP3    H236158   3.366   5.284  12.217 -0.9753  0.0541 -0.4124
 4915TIP3   OH236159   3.325   5.838   3.837  0.2547 -0.2479 -0.0255
 4915TIP3    H136160   3.268   5.774   3.796 -0.5440  1.3646 -1.5810
 4915TIP3    H236161   3.383   5.867   3.767  1.7682 -0.5009  1.0765
 4916TIP3   OH236162   5.281   0.886  11.428 -0.1973  0.1892 -0.2145
 4916TIP3    H136163   5.375   0.875  11.410  0.2909  0.8312  1.6606
 4916TIP3    H236164   5.243   0.908  11.343  1.1580 -1.1357 -1.2262
 4917TIP3   OH236165   0.996   4.003   2.048 -0.6102  0.6852 -0.1147
 4917TIP3    H136166   1.059   3.955   2.102  0.9624  1.5516 -1.1075
 4917TIP3    H236167   0.961   4.070   2.106  0.0259  0.7382  0.2187
 4918TIP3   OH236168   2.476   4.126   5.840 -0.2860 -0.4733 -0.1650
 4918TIP3    H136169   2.554   4.099   5.888 -1.6685 -2.6530  1.0689
 4918TIP3    H236170   2.486   4.087   5.753 -0.7443 -2.3319  0.5605
 4919TIP3   OH236171   1.591   0.426  12.923 -0.3959 -0.0448 -0.3083
 4919TIP3    H136172   1.508   0.449  12.881 -0.4102 -0.7965 -0.6985
 4919TIP3    H236173   1.577   0.339  12.959 -0.4396  0.6500  1.4443
 4920TIP3   OH236174   3.861   0.022   3.518 -0.6344 -0.2257 -0.5687
 4920TIP3    H136175   3.803  -0.004   3.447  0.2696 -1.6605 -0.7949
 4920TIP3    H236176   3.924   0.082   3.478 -0.4869 -0.5660 -0.8414
 4921TIP3   OH236177   0.952   3.727   0.961  0.0227 -0.0309 -0.0945
 4921TIP3    H136178   0.878   3.689   0.913 -0.0806 -0.5529  0.4568
 4921TIP3    H236179   0.912   3.764   1.040  0.3744 -0.5162  0.3152
 4922TIP3   OH236180   5.471   1.489   2.988 -0.7554  0.1396 -0.6220
 4922TIP3    H136181   5.433   1.570   3.024 -0.2666  1.4293 -2.8302
 4922TIP3    H236182   5.562   1.490   3.019 -0.9766 -0.0133  0.0446
 4923TIP3   OH236183   4.102   3.535   1.563  0.0937  0.2039  0.0212
 4923TIP3    H136184   4.148   3.615   1.587  1.0484 -0.3845  0.1785
 4923TIP3    H236185   4.009   3.560   1.565  0.3894  1.4130 -0.3489
 4924TIP3   OH236186   4.872   3.907   2.379  0.5970  0.1810 -0.7004
 4924TIP3    H136187   4.917   3.913   2.294  1.8560  0.9362 -0.0174
 4924TIP3    H236188   4.827   3.823   2.376  2.2873 -0.7689 -1.3729
 4925TIP3   OH236189   1.876   6.358  14.767  0.3627  0.8539 -0.2349
 4925TIP3    H136190   1.891   6.268  14.738  1.0353  0.3703  1.5002
 4925TIP3    H236191   1.921   6.412  14.702  1.8124 -0.1861 -0.1466
 4926TIP3   OH236192   3.081   5.486   4.977 -0.2200 -0.0534 -0.4872
 4926TIP3    H136193   3.108   5.576   4.956  3.2424 -1.1338 -1.3089
 4926TIP3    H236194   3.147   5.455   5.039 -2.4780 -1.4817  1.3887
 4927TIP3   OH236195   5.853   2.846   5.286 -0.4441 -0.7472  0.1016
 4927TIP3    H136196   5.837   2.851   5.192  0.4129  0.9909  0.0030
 4927TIP3    H236197   5.861   2.753   5.304  0.9922 -1.0726 -1.8667
 4928TIP3   OH236198   3.670   3.243   1.000 -0.0183  0.3040 -0.1580
 4928TIP3    H136199   3.749   3.295   0.983 -0.1110  0.1124 -1.2139
 4928TIP3    H236200   3.671   3.176   0.932 -0.0160 -0.9649  1.0570
 4929TIP3   OH236201   3.087   2.091   0.045 -0.4405  0.8059  0.3346
 4929TIP3    H136202   3.038   2.084  -0.036  0.3998  1.0119 -0.2069
 4929TIP3    H236203   3.137   2.172   0.036  0.6824  0.1507  0.4659
 4930TIP3   OH236204   3.034   0.411  16.239  0.0316  0.4583 -0.4165
 4930TIP3    H136205   3.059   0.376  16.325 -0.6298  1.4576  0.2159
 4930TIP3    H236206   3.089   0.365  16.177 -0.4003 -1.2700  0.4141
 4931TIP3   OH236207   4.121   5.083   0.922  0.1801 -0.2187  0.3846
 4931TIP3    H136208   4.185   5.018   0.953  1.6149  1.3198  0.7602
 4931TIP3    H236209   4.128   5.079   0.826  1.3944  0.4366  0.4301
 4932TIP3   OH236210   6.332   3.204  12.399 -0.2862  0.1165  0.4704
 4932TIP3    H136211   6.362   3.207  12.309  2.2115 -0.5182  1.2140
 4932TIP3    H236212   6.298   3.115  12.411 -2.5595  0.8029 -0.3386
 4933TIP3   OH236213   6.730   1.234   1.831 -0.2163 -0.4061 -0.0287
 4933TIP3    H136214   6.776   1.195   1.756 -0.5585 -1.2811  0.1943
 4933TIP3    H236215   6.763   1.185   1.907  1.2580  1.4821  0.6140
 4934TIP3   OH236216   4.799   0.009   2.506  0.4717 -0.3660 -0.2072
 4934TIP3    H136217   4.841  -0.059   2.559 -0.4566 -1.0274 -0.3129
 4934TIP3    H236218   4.868   0.038   2.446  0.8897 -1.1897 -0.1396
 4935TIP3   OH236219   3.054   5.359  13.363 -0.0197  0.6781 -0.8159
 4935TIP3    H136220   3.042   5.432  13.302 -0.6002  1.4751  0.2159
 4935TIP3    H236221   3.117   5.302  13.320  2.4973  3.0573 -0.5711
 4936TIP3   OH236222   6.105   3.435   1.131  0.4125  0.5412  0.3994
 4936TIP3    H136223   6.101   3.476   1.044  2.1732 -0.7928 -0.3668
 4936TIP3    H236224   6.047   3.359   1.124  1.0975  0.0285  0.1225
 4937TIP3   OH236225   5.723   0.717  13.342 -0.5024 -0.4383  0.3783
 4937TIP3    H136226   5.650   0.778  13.346 -1.4234 -1.3613 -1.2485
 4937TIP3    H236227   5.698   0.645  13.401 -0.4886 -0.3369  0.5083
 4938TIP3   OH236228   3.171   3.724   5.848  0.0218  0.3209  0.5899
 4938TIP3    H136229   3.081   3.733   5.879  0.8288  0.2140  3.1232
 4938TIP3    H236230   3.224   3.718   5.927  2.4584  2.0615 -0.7711
 4939TIP3   OH236231   6.787   0.206  12.098  0.5611  0.0119 -0.4941
 4939TIP3    H136232   6.840   0.280  12.068 -0.5776  1.8278  1.6435
 4939TIP3    H236233   6.698   0.227  12.069  0.1310 -0.1998  0.6241
 4940TIP3   OH236234   0.907   2.829  13.041 -0.4882  0.0996  0.1201
 4940TIP3    H136235   0.988   2.808  13.087  0.0499 -1.2670 -1.3687
 4940TIP3    H236236   0.841   2.773  13.082 -0.8476  1.5753  1.6754
 4941TIP3   OH236237   1.300   6.710  13.163 -0.2304  0.1966 -0.4877
 4941TIP3    H136238   1.350   6.648  13.110  0.8164  1.8051 -1.4906
 4941TIP3    H236239   1.254   6.765  13.099  0.5632  1.7876  0.2530
 4942TIP3   OH236240   2.722   4.539  10.768 -0.3312  0.2060  0.4502
 4942TIP3    H136241   2.709   4.632  10.748 -0.5807 -0.0204 -0.5070
 4942TIP3    H236242   2.817   4.530  10.779 -0.2742  0.5194  0.2346
 4943TIP3   OH236243   5.505   6.466  14.571 -0.4047  0.4925  0.3636
 4943TIP3    H136244   5.443   6.457  14.643  0.8390 -1.3786  1.3008
 4943TIP3    H236245   5.588   6.436  14.607  0.8282  1.8170 -1.1764
 4944TIP3   OH236246   1.668   6.004   2.843 -0.4243  0.2369 -0.1995
 4944TIP3    H136247   1.604   6.065   2.807 -2.6667 -0.6089  2.1019
 4944TIP3    H236248   1.720   6.056   2.903 -0.2893  0.4852 -0.5267
 4945TIP3   OH236249   6.707   2.120  11.898 -0.6574 -0.2788 -0.4787
 4945TIP3    H136250   6.749   2.080  11.822 -0.5225 -0.6794 -0.1956
 4945TIP3    H236251   6.615   2.097  11.890 -0.6886 -0.0899 -0.6648
 4946TIP3   OH236252   5.827   6.091  15.612  0.0628  0.1709  0.3652
 4946TIP3    H136253   5.900   6.030  15.611  0.3060  0.3588  2.4236
 4946TIP3    H236254   5.856   6.164  15.558  1.2994  0.1174  0.9241
 4947TIP3   OH236255   0.518   2.731   2.277 -0.0260 -1.1592  0.1952
 4947TIP3    H136256   0.527   2.824   2.254  2.5999 -0.8408  2.0505
 4947TIP3    H236257   0.559   2.685   2.203  1.9077 -0.5729  0.8413
 4948TIP3   OH236258   3.222   3.069   5.273 -0.0490  0.0147 -0.2997
 4948TIP3    H136259   3.292   3.031   5.327 -0.4417 -2.2886 -1.2967
 4948TIP3    H236260   3.268   3.121   5.208  0.6256 -0.0079  0.1457
 4949TIP3   OH236261   3.012   4.377   0.741 -0.4063  0.1352  0.6901
 4949TIP3    H136262   3.091   4.324   0.753 -0.5359  0.2441  2.2172
 4949TIP3    H236263   2.961   4.330   0.674 -0.1836 -1.2777  1.4739
 4950TIP3   OH236264   3.941   2.653   2.680  0.1439  0.1157  0.3107
 4950TIP3    H136265   3.973   2.567   2.705 -2.2056 -0.8631  0.1493
 4950TIP3    H236266   3.977   2.668   2.593 -0.9441 -1.5781 -0.4661
 4951TIP3   OH236267   1.135   3.760   4.974 -0.3067 -0.4230  0.0751
 4951TIP3    H136268   1.186   3.691   4.930  1.4088  0.5125  0.5064
 4951TIP3    H236269   1.123   3.827   4.908 -0.2599 -0.2839  0.2073
 4952TIP3   OH236270   4.046   5.616   3.831  0.2333 -0.0122 -0.1288
 4952TIP3    H136271   3.951   5.603   3.834  0.3248 -0.5818  0.9073
 4952TIP3    H236272   4.082   5.533   3.862  1.1223 -0.2271 -1.6545
 4953TIP3   OH236273   0.738   0.542   0.397 -0.6188 -0.7907  0.0944
 4953TIP3    H136274   0.764   0.519   0.487  0.1732 -1.0539 -0.2008
 4953TIP3    H236275   0.664   0.601   0.409  1.2724  1.5282  1.0004
 4954TIP3   OH236276   0.544   4.309   6.727  0.5190 -0.3632 -0.7459
 4954TIP3    H136277   0.573   4.399   6.743 -1.2110  0.1104  0.0039
 4954TIP3    H236278   0.493   4.315   6.646 -0.7893 -0.3509  0.0535
 4955TIP3   OH236279   6.445   2.563  10.894 -0.3729 -0.3215  0.0655
 4955TIP3    H136280   6.488   2.552  10.809  0.1944  1.0170  0.1600
 4955TIP3    H236281   6.512   2.600  10.951 -0.7424 -1.1920  1.1289
 4956TIP3   OH236282   5.623   4.146  13.241  0.9211  0.5711 -0.4491
 4956TIP3    H136283   5.640   4.077  13.177 -0.3835  0.4390 -0.6669
 4956TIP3    H236284   5.537   4.126  13.276  0.9578  1.5293  0.2194
 4957TIP3   OH236285   1.571   3.718  16.288 -0.4664 -0.3348 -0.0924
 4957TIP3    H136286   1.656   3.674  16.293 -0.9695 -1.3592 -0.2097
 4957TIP3    H236287   1.507   3.647  16.298 -1.3047  0.4055 -0.1140
 4958TIP3   OH236288   0.880   6.200  15.458  0.3321 -0.1084  0.2006
 4958TIP3    H136289   0.886   6.143  15.534 -1.5540  0.9436  1.2189
 4958TIP3    H236290   0.866   6.287  15.495  0.0518  0.5359 -1.3585
 4959TIP3   OH236291   1.932   2.477  12.619  0.4055  0.2868  0.1970
 4959TIP3    H136292   1.869   2.437  12.560 -0.0232 -0.8791  1.3838
 4959TIP3    H236293   1.980   2.539  12.565 -0.0722 -0.6165 -1.3219
 4960TIP3   OH236294   1.979   3.346  16.511 -0.0325  0.3771 -0.5447
 4960TIP3    H136295   2.008   3.296  16.435  0.3676 -0.4581  0.1532
 4960TIP3    H236296   1.981   3.284  16.584 -0.0784  1.2554  0.2251
 4961TIP3   OH236297   3.871   1.505   1.146  0.1341 -0.3021  0.6147
 4961TIP3    H136298   3.900   1.414   1.155  1.0320  0.0425  1.3678
 4961TIP3    H236299   3.800   1.514   1.210 -0.5298 -0.6873 -0.0485
 4962TIP3   OH236300   6.382   5.066   4.893  0.0226  0.0058 -0.2238
 4962TIP3    H136301   6.384   5.038   4.985  0.7188  1.8026  0.3482
 4962TIP3    H236302   6.296   5.106   4.882  0.4761  1.0984  0.0849
 4963TIP3   OH236303   1.153   6.707   6.118 -0.4205  0.3879  0.1796
 4963TIP3    H136304   1.080   6.735   6.173 -1.2938  0.1237 -0.8066
 4963TIP3    H236305   1.218   6.672   6.179 -0.8953  1.0839  1.1128
 4964TIP3   OH236306   6.024   6.085  13.046 -0.0502 -0.0365  0.1727
 4964TIP3    H136307   6.081   6.161  13.057 -0.6704  0.5070 -0.3320
 4964TIP3    H236308   5.993   6.091  12.956  0.0061 -0.9725  0.0858
 4965TIP3   OH236309   5.871   3.672   2.315 -0.1833  0.1633 -0.5340
 4965TIP3    H136310   5.781   3.646   2.330  0.3787 -0.7829  1.5064
 4965TIP3    H236311   5.885   3.745   2.375  1.3232 -1.8734  1.7708
 4966TIP3   OH236312   3.617   5.078  12.387  0.0024  0.6170 -0.4397
 4966TIP3    H136313   3.709   5.059  12.406 -0.9405 -1.9084  2.4288
 4966TIP3    H236314   3.591   5.013  12.322 -0.5984 -1.3856  1.6528
 4967TIP3   OH236315   0.510   6.330   2.991  0.3546  0.5804  0.1098
 4967TIP3    H136316   0.426   6.333   3.037  1.4932  2.2119  2.2546
 4967TIP3    H236317   0.551   6.249   3.022  0.2982  0.6923  0.4899
 4968TIP3   OH236318   1.198   2.253  17.020 -0.0091 -0.1660  0.1695
 4968TIP3    H136319   1.143   2.295  16.954 -0.8907 -1.2405  0.1833
 4968TIP3    H236320   1.172   2.293  17.103 -1.8222 -1.5958  0.3699
 4969TIP3   OH236321   3.422   1.072  14.432  0.0380 -0.7911  0.6033
 4969TIP3    H136322   3.352   1.056  14.495 -1.4092  0.2693 -0.6532
 4969TIP3    H236323   3.428   0.991  14.381 -1.1054 -0.5114 -0.0148
 4970TIP3   OH236324   5.382   4.469  11.122  0.2144 -0.8711  0.0263
 4970TIP3    H136325   5.433   4.524  11.062 -1.0282  1.0554  0.6649
 4970TIP3    H236326   5.413   4.492  11.209 -0.1177 -1.4169  0.2959
 4971TIP3   OH236327   6.270   4.896  14.143  0.1905  0.0738 -0.1128
 4971TIP3    H136328   6.207   4.878  14.212 -0.8058  1.4459 -0.6210
 4971TIP3    H236329   6.299   4.810  14.114 -0.2307 -0.5492  1.2146
 4972TIP3   OH236330   4.154   1.843  12.945  0.1517 -0.6124 -0.2504
 4972TIP3    H136331   4.098   1.920  12.931  0.7566 -0.1842 -0.3707
 4972TIP3    H236332   4.097   1.768  12.930 -0.6044 -0.1911  0.4567
 4973TIP3   OH236333   5.659   6.653  15.816 -1.2989  0.8729  0.0783
 4973TIP3    H136334   5.590   6.720  15.819  0.0617  2.2933  1.8133
 4973TIP3    H236335   5.619   6.581  15.768 -3.6620  2.0040  0.1724
 4974TIP3   OH236336   3.711   0.721   2.615  0.2283 -0.1493  0.2070
 4974TIP3    H136337   3.670   0.687   2.694  0.7673  0.0243  0.5690
 4974TIP3    H236338   3.795   0.758   2.645  0.1917  0.4161 -0.3525
 4975TIP3   OH236339   1.946   5.575   3.727  0.1838  0.0510 -0.4496
 4975TIP3    H136340   1.913   5.660   3.695 -0.2052 -1.3073 -4.1937
 4975TIP3    H236341   2.041   5.586   3.732  0.1239  0.7509 -0.7048
 4976TIP3   OH236342   5.374   2.753  15.566 -0.3844  0.1249 -0.0334
 4976TIP3    H136343   5.342   2.727  15.653 -0.5737 -0.0318 -0.1475
 4976TIP3    H236344   5.433   2.682  15.540  2.0008  1.5383  1.2013
 4977TIP3   OH236345   3.572   3.462   1.271 -0.2454  0.1241  0.3177
 4977TIP3    H136346   3.577   3.396   1.340 -2.5085  2.0920  2.5605
 4977TIP3    H236347   3.644   3.523   1.291 -0.5279  0.3701  0.5949
 4978TIP3   OH236348   5.579   0.036  12.757  0.2372  0.1423  0.1849
 4978TIP3    H136349   5.653  -0.022  12.735  0.4975  0.2291  0.7976
 4978TIP3    H236350   5.539  -0.005  12.833  2.8779  2.7662  3.2829
 4979TIP3   OH236351   3.187   2.641  12.776  0.7237  0.1778 -0.4279
 4979TIP3    H136352   3.221   2.731  12.774 -2.3559  1.4742 -3.4064
 4979TIP3    H236353   3.245   2.593  12.717  0.8188  0.9172 -0.9608
 4980TIP3   OH236354   1.929   5.301   3.087  0.2179 -0.4059 -0.4583
 4980TIP3    H136355   2.023   5.290   3.072  0.1345 -1.8732 -0.0678
 4980TIP3    H236356   1.898   5.349   3.010  1.1031 -0.8550 -1.1072
 4981TIP3   OH236357   2.243   5.324  13.031  0.8014  0.2228  0.5349
 4981TIP3    H136358   2.315   5.362  13.081  0.3850  0.1467  1.1979
 4981TIP3    H236359   2.243   5.231  13.055  0.7115  0.1450  0.2461
 4982TIP3   OH236360   1.071   0.809   0.786 -0.0527  0.6258  0.0439
 4982TIP3    H136361   1.130   0.745   0.746 -1.0366  0.6521 -1.5497
 4982TIP3    H236362   0.986   0.792   0.744 -1.0394  0.9921  1.8167
 4983TIP3   OH236363   4.368   4.244  14.576 -0.4699 -0.2516 -0.5581
 4983TIP3    H136364   4.334   4.191  14.503 -0.0225 -3.3233  1.3111
 4983TIP3    H236365   4.407   4.321  14.533 -0.7616 -1.5952 -3.4950
 4984TIP3   OH236366   3.153   6.720  16.312  0.0353 -0.3428  0.2537
 4984TIP3    H136367   3.227   6.775  16.337  0.5846 -0.7690 -0.4059
 4984TIP3    H236368   3.082   6.746  16.372  1.1322 -0.9445  1.8732
 4985TIP3   OH236369   0.954   0.670  15.960  0.8604 -0.0186 -0.4074
 4985TIP3    H136370   0.892   0.682  15.888  1.0682 -1.0558 -0.7886
 4985TIP3    H236371   0.900   0.671  16.039  0.6480  1.2966 -0.5499
 4986TIP3   OH236372   3.516   2.656  13.252  0.3449 -0.2334  0.2884
 4986TIP3    H136373   3.481   2.717  13.187 -0.1344  0.6348  1.3267
 4986TIP3    H236374   3.611   2.664  13.244  0.2945 -0.2111 -0.3589
 4987TIP3   OH236375   0.163   6.005  13.946 -0.5704 -0.1711 -0.5938
 4987TIP3    H136376   0.118   5.997  13.862 -1.3937  0.5875 -0.2486
 4987TIP3    H236377   0.229   6.073  13.933  0.5516 -1.3201 -1.1164
 4988TIP3   OH236378   4.535   5.264  16.170  0.0656 -0.6911  0.0274
 4988TIP3    H136379   4.514   5.307  16.252  0.3898 -2.0352  0.8413
 4988TIP3    H236380   4.491   5.317  16.103 -2.2198 -0.8921  1.2643
 4989TIP3   OH236381   5.158   4.224  11.656 -0.2889  0.4243  0.7082
 4989TIP3    H136382   5.128   4.315  11.664  1.3921  0.8616  2.8058
 4989TIP3    H236383   5.201   4.220  11.571 -0.1768  1.6673  0.6955
 4990TIP3   OH236384   1.653   4.692  12.893 -0.6100  0.0413  0.4859
 4990TIP3    H136385   1.728   4.656  12.847  0.2165  1.9956  0.1941
 4990TIP3    H236386   1.585   4.699  12.827 -0.3702  0.1310  0.2478
 4991TIP3   OH236387   1.224   6.109  13.375  0.3140 -0.1039 -0.3946
 4991TIP3    H136388   1.316   6.135  13.365 -0.2609  1.8178 -1.1890
 4991TIP3    H236389   1.193   6.094  13.286 -0.5153  0.7676 -0.2672
 4992TIP3   OH236390   4.944   3.272   0.720 -0.0667  0.6238  0.1332
 4992TIP3    H136391   5.008   3.221   0.770  1.0989  0.9821 -0.9256
 4992TIP3    H236392   4.921   3.216   0.646 -0.3904  0.8061  0.0935
 4993TIP3   OH236393   1.346   4.087  12.769  0.1709 -0.0974 -0.6802
 4993TIP3    H136394   1.419   4.123  12.719 -0.1435 -0.1077 -1.1594
 4993TIP3    H236395   1.283   4.061  12.702 -0.2764 -0.0720 -0.2713
 4994TIP3   OH236396   0.431   0.883   3.967 -0.4266 -0.5024  0.7233
 4994TIP3    H136397   0.389   0.968   3.981 -1.9626 -0.9308 -0.9240
 4994TIP3    H236398   0.442   0.846   4.054  3.9916  2.9779  2.0206
 4995TIP3   OH236399   2.917   4.529   6.268  0.0606 -0.3674  0.5156
 4995TIP3    H136400   2.840   4.574   6.304  0.2176 -0.1890  0.6278
 4995TIP3    H236401   2.937   4.461   6.332  1.0658  0.7051  1.3798
 4996TIP3   OH236402   1.982   3.998   5.386  0.4560 -0.0143  0.4129
 4996TIP3    H136403   1.916   3.931   5.367  1.6261 -1.3251  0.8094
 4996TIP3    H236404   2.039   3.998   5.309  0.8895  0.0006  0.7316
 4997TIP3   OH236405   4.940   0.833  16.411 -0.5789 -0.2634 -0.2189
 4997TIP3    H136406   4.979   0.849  16.325 -0.9223 -0.8956 -0.4996
 4997TIP3    H236407   4.856   0.791  16.392 -1.7623  1.7205  0.3506
 4998TIP3   OH236408   5.786   0.730   4.977 -0.3258  0.1993 -0.0179
 4998TIP3    H136409   5.737   0.657   4.941 -0.7801  1.0723 -1.2446
 4998TIP3    H236410   5.873   0.695   4.995 -0.5928 -0.6785 -0.4157
 4999TIP3   OH236411   5.204   4.109   5.137  0.0378  0.5279  0.5912
 4999TIP3    H136412   5.273   4.107   5.071 -0.0052 -1.5571  0.5626
 4999TIP3    H236413   5.220   4.191   5.185  2.8017 -0.0615  0.8504
 5000TIP3   OH236414   0.258   4.944   6.190 -0.5938 -0.1432  0.1414
 5000TIP3    H136415   0.189   5.009   6.180  0.5290  1.4333  1.8851
 5000TIP3    H236416   0.212   4.860   6.190 -2.0334  0.5315 -2.6776
 5001TIP3   OH236417   4.260   5.529  16.200  0.3475 -0.5031 -0.7249
 5001TIP3    H136418   4.325   5.576  16.252  1.1826  1.0551 -3.0291
 5001TIP3    H236419   4.178   5.539  16.249  1.1823  0.4010  0.5456
 5002TIP3   OH236420   6.357   0.025   1.820 -0.1890 -0.2060  0.7209
 5002TIP3    H136421   6.311   0.105   1.793  1.5025  0.9212  1.0515
 5002TIP3    H236422   6.375   0.038   1.913  1.8636 -0.0308  0.3406
 5003TIP3   OH236423   4.986   0.010  11.794  0.7213 -0.5291  0.0820
 5003TIP3    H136424   4.934   0.047  11.723  1.3152  1.6439  0.7050
 5003TIP3    H236425   4.958   0.059  11.872  1.4191 -1.5588  1.0120
 5004TIP3   OH236426   6.810   4.287  16.836  0.6265  0.3361 -0.5698
 5004TIP3    H136427   6.813   4.321  16.747  1.1021  0.6921 -0.4202
 5004TIP3    H236428   6.769   4.201  16.828 -3.5221  2.1165 -0.5852
 5005TIP3   OH236429   3.510   4.246  10.893 -0.3906  0.0047 -0.0102
 5005TIP3    H136430   3.577   4.275  10.831  1.2986 -1.6609  0.9316
 5005TIP3    H236431   3.498   4.153  10.875 -0.3836 -0.3589  1.6440
 5006TIP3   OH236432   5.817   1.213   2.496  0.6843  0.0523  0.1910
 5006TIP3    H136433   5.804   1.305   2.475 -0.4761 -0.1489 -0.0524
 5006TIP3    H236434   5.769   1.166   2.428  0.9120 -0.7284  0.5578
 5007TIP3   OH236435   0.313   3.181   5.076 -0.2924 -0.1538  0.1650
 5007TIP3    H136436   0.240   3.229   5.037 -0.7486  0.5181  1.7408
 5007TIP3    H236437   0.296   3.089   5.056 -0.0332  0.2027 -1.9052
 5008TIP3   OH236438   5.232   3.105  16.436  0.4767 -0.1893  0.0476
 5008TIP3    H136439   5.297   3.144  16.495  0.6892 -0.6449  0.1191
 5008TIP3    H236440   5.152   3.101  16.487  0.1378  1.2085 -0.3281
 5009TIP3   OH236441   6.627   5.565  13.654  0.0566  0.3555  0.4585
 5009TIP3    H136442   6.698   5.598  13.709  0.8545  0.0533 -0.3593
 5009TIP3    H236443   6.564   5.529  13.715 -0.1201  2.0028  1.2895
 5010TIP3   OH236444   4.907   1.187   0.511  0.2287 -0.2443  0.2616
 5010TIP3    H136445   4.960   1.144   0.578  1.9698  1.0420 -0.2256
 5010TIP3    H236446   4.817   1.181   0.545  0.7754 -1.6095  1.5960
 5011TIP3   OH236447   2.311   3.208  16.571  0.1456 -0.1644  0.4550
 5011TIP3    H136448   2.224   3.214  16.530  0.7123  1.6333 -0.6100
 5011TIP3    H236449   2.324   3.114  16.587 -1.5183 -0.5804 -0.3977
 5012TIP3   OH236450   1.392   6.672  13.654 -0.2185  0.8018 -0.4299
 5012TIP3    H136451   1.370   6.580  13.638 -0.0122  0.7797 -0.5843
 5012TIP3    H236452   1.480   6.683  13.617 -0.3737  1.1419 -0.7096
 5013TIP3   OH236453   4.121   6.311   2.099  0.5834  0.0462  0.3620
 5013TIP3    H136454   4.031   6.318   2.131  1.0593  1.1529  1.5659
 5013TIP3    H236455   4.134   6.389   2.044  1.5477  1.3075  2.2628
 5014TIP3   OH236456   5.655   5.181  14.700  0.0126  0.5748 -0.6356
 5014TIP3    H136457   5.682   5.268  14.731 -0.6125  0.4884  0.1829
 5014TIP3    H236458   5.572   5.197  14.655  0.0225  0.4364 -0.7035
 5015TIP3   OH236459   3.616   1.732  14.560 -0.3554 -0.0311 -0.4122
 5015TIP3    H136460   3.610   1.762  14.650 -1.2752  0.2302 -0.5548
 5015TIP3    H236461   3.542   1.673  14.549  0.2912 -0.8043 -0.7282
 5016TIP3   OH236462   1.113   1.185   4.125  0.1079  0.0297  0.2866
 5016TIP3    H136463   1.208   1.187   4.117  0.1320  2.3013  0.5526
 5016TIP3    H236464   1.089   1.275   4.148 -2.0434 -0.6634  0.9446
 5017TIP3   OH236465   6.078   2.199   1.635  0.1555  0.1368  0.8155
 5017TIP3    H136466   6.142   2.246   1.689  0.3179  0.3493  0.4414
 5017TIP3    H236467   5.997   2.203   1.686  0.7341 -1.2663  1.9064
 5018TIP3   OH236468   0.161   5.113   3.799 -0.2055 -0.2333 -0.0796
 5018TIP3    H136469   0.136   5.112   3.891 -2.8402 -0.5650 -0.7194
 5018TIP3    H236470   0.120   5.035   3.761  1.3621 -0.4610 -1.4226
 5019TIP3   OH236471   6.164   0.317  14.503  0.2194  0.4384 -0.2419
 5019TIP3    H136472   6.229   0.253  14.534 -0.5007  0.9430  2.5728
 5019TIP3    H236473   6.083   0.267  14.495  0.2938  0.4165 -0.9656
 5020TIP3   OH236474   5.044   3.510  14.476 -0.2660 -0.6462 -0.1420
 5020TIP3    H136475   5.073   3.423  14.502 -0.4110 -0.6800 -0.0916
 5020TIP3    H236476   4.977   3.533  14.541 -0.9750 -0.9292 -0.7531
 5021TIP3   OH236477   1.503   2.949  15.186  0.1743 -0.1872 -0.6704
 5021TIP3    H136478   1.579   2.993  15.147 -1.0116  0.2509 -2.6520
 5021TIP3    H236479   1.501   2.980  15.276  0.8654  1.8291 -1.2931
 5022TIP3   OH236480   5.379   6.396  13.699  0.0464  0.3033  0.3555
 5022TIP3    H136481   5.385   6.302  13.715  0.5772  0.1869 -0.4704
 5022TIP3    H236482   5.429   6.435  13.770 -0.9812  0.0317  1.2645
 5023TIP3   OH236483   4.227   3.699   5.293  0.0583  0.2609  0.3317
 5023TIP3    H136484   4.270   3.620   5.261  1.1860  1.0537 -0.1881
 5023TIP3    H236485   4.149   3.668   5.338  1.8452 -1.3770  2.5087
 5024TIP3   OH236486   2.336   4.520  15.897 -0.3200  0.2435 -0.3256
 5024TIP3    H136487   2.303   4.536  15.985  2.8608  1.1516  0.8506
 5024TIP3    H236488   2.318   4.601  15.849 -0.7773  0.2934 -0.0712
 5025TIP3   OH236489   4.932   2.007   4.747  0.2083 -0.9006  0.5770
 5025TIP3    H136490   4.958   1.926   4.703 -0.2433  0.0437 -1.5858
 5025TIP3    H236491   5.009   2.033   4.798  1.3790 -1.2598 -0.9314
 5026TIP3   OH236492   5.459   1.760   0.322  0.4408  0.4911 -0.3847
 5026TIP3    H136493   5.405   1.816   0.267  1.2367  1.0762 -0.5834
 5026TIP3    H236494   5.544   1.756   0.278  0.2609 -1.3217 -0.6668
 5027TIP3   OH236495   0.386   5.050   1.327  0.2644  0.2135 -0.0154
 5027TIP3    H136496   0.409   5.064   1.235 -0.4271  0.5951 -0.1355
 5027TIP3    H236497   0.302   5.094   1.338  0.4322  0.3417  0.8517
 5028TIP3   OH236498   2.433   4.392   5.866 -0.0798  0.2785  0.3316
 5028TIP3    H136499   2.430   4.296   5.872 -2.1389  0.3558  1.6289
 5028TIP3    H236500   2.469   4.420   5.949  0.0983  0.6443  0.1317
 5029TIP3   OH236501   6.285   3.391  16.688 -0.3952  0.0972  0.1912
 5029TIP3    H136502   6.344   3.450  16.735 -0.1104 -0.3737  0.4370
 5029TIP3    H236503   6.341   3.347  16.625 -0.6735  0.3324 -0.2266
 5030TIP3   OH236504   4.086   0.067   4.475  0.5307  0.3202  0.7818
 5030TIP3    H136505   4.107   0.023   4.393 -0.7606 -0.4146  0.8204
 5030TIP3    H236506   4.158   0.045   4.534  0.9019 -0.0671  0.1826
 5031TIP3   OH236507   2.306   3.910  15.875 -0.2747 -0.3973 -0.0505
 5031TIP3    H136508   2.302   3.975  15.945  1.5121  0.3996 -0.6146
 5031TIP3    H236509   2.216   3.882  15.863 -0.8714  0.7960  1.3087
 5032TIP3   OH236510   3.003   6.241  11.208  1.0844 -0.7022  0.3983
 5032TIP3    H136511   2.937   6.295  11.251  2.3672 -0.4516  2.1565
 5032TIP3    H236512   3.086   6.269  11.247  2.0057 -2.5142 -0.1452
 5033TIP3   OH236513   6.432   0.906  10.854 -0.2554  0.9479 -0.2669
 5033TIP3    H136514   6.347   0.950  10.850 -0.8689 -0.2747 -2.1062
 5033TIP3    H236515   6.414   0.823  10.898  0.2387  1.1452  0.3268
 5034TIP3   OH236516   5.939   4.748   4.460  0.2437  0.2603 -0.1442
 5034TIP3    H136517   5.984   4.738   4.544 -1.5251  0.9851  0.9581
 5034TIP3    H236518   5.975   4.828   4.422  0.1667  0.6284  0.5474
 5035TIP3   OH236519   0.875   1.752   4.008 -0.6344  0.0261  0.0875
 5035TIP3    H136520   0.857   1.658   4.007 -1.9969  0.2223 -2.8212
 5035TIP3    H236521   0.951   1.762   3.950  0.2831  0.6370  1.3486
 5036TIP3   OH236522   4.095   5.401  15.533  0.1987 -0.1470 -0.8010
 5036TIP3    H136523   4.145   5.391  15.614 -0.7950  1.7544  0.1271
 5036TIP3    H236524   4.006   5.376  15.556 -0.2608  1.1461 -1.0473
 5037TIP3   OH236525   3.666   3.871  13.515  0.1370  0.3947 -0.3034
 5037TIP3    H136526   3.707   3.954  13.491  0.9676  0.9185  2.5599
 5037TIP3    H236527   3.588   3.897  13.564 -0.3908 -0.5433 -0.6378
 5038TIP3   OH236528   1.565   4.612   1.772 -0.4414 -0.6012 -0.3580
 5038TIP3    H136529   1.532   4.630   1.860 -0.3427  2.7317 -0.8720
 5038TIP3    H236530   1.498   4.557   1.732 -1.6621 -0.1838  1.0316
 5039TIP3   OH236531   6.022   1.973   1.859  0.2544  0.6658 -0.0707
 5039TIP3    H136532   6.056   1.912   1.925  1.8850  0.1871 -1.2812
 5039TIP3    H236533   6.100   2.012   1.821 -0.5752  0.2067 -2.3720
 5040TIP3   OH236534   3.857   3.646  15.735  0.4221  0.7829 -0.1321
 5040TIP3    H136535   3.888   3.556  15.743  1.3039  1.1108  0.2344
 5040TIP3    H236536   3.866   3.667  15.642  1.4071  0.9016 -0.0181
 5041TIP3   OH236537   1.031   1.146  11.368 -0.2505  0.1759 -0.6438
 5041TIP3    H136538   1.117   1.182  11.388  0.9366 -1.5301 -2.3527
 5041TIP3    H236539   0.982   1.155  11.450  1.7358  0.6239  0.5604
 5042TIP3   OH236540   5.991   4.927   2.071  0.3366 -0.3629  0.0473
 5042TIP3    H136541   5.950   4.895   1.991  1.7140 -1.5841 -0.2153
 5042TIP3    H236542   6.014   4.848   2.119  1.3246  0.3024  0.7054
 5043TIP3   OH236543   0.013   3.788   0.261 -0.4953 -0.3641 -0.1913
 5043TIP3    H136544   0.097   3.773   0.220  0.8162  1.0314  1.7968
 5043TIP3    H236545   0.009   3.723   0.332 -0.3816  0.5208  0.6525
 5044TIP3   OH236546   5.757   1.533   3.337 -0.5049 -0.0546 -0.0701
 5044TIP3    H136547   5.821   1.505   3.272 -2.9284 -3.4319 -1.2525
 5044TIP3    H236548   5.728   1.620   3.307  0.7852 -0.1129 -1.5949
 5045TIP3   OH236549   3.787   6.634   2.494  0.0536  0.4047 -0.0308
 5045TIP3    H136550   3.813   6.720   2.461  1.5184  0.6806  1.6365
 5045TIP3    H236551   3.694   6.626   2.472 -0.5660  3.1469  1.1624
 5046TIP3   OH236552   2.254   3.295  12.060  0.4829 -0.4221  0.9112
 5046TIP3    H136553   2.229   3.281  12.151  0.7332 -1.3619  0.8541
 5046TIP3    H236554   2.240   3.210  12.018  2.4319 -0.6446  0.5853
 5047TIP3   OH236555   2.189   5.338  14.212  0.1361 -0.2905 -0.4851
 5047TIP3    H136556   2.217   5.358  14.302 -0.6779 -1.4557  0.0558
 5047TIP3    H236557   2.239   5.259  14.189 -1.1414 -1.1828 -0.2737
 5048TIP3   OH236558   3.385   3.729  14.733  0.3120 -0.7217  0.6588
 5048TIP3    H136559   3.401   3.640  14.763 -1.5330 -2.0775 -2.0150
 5048TIP3    H236560   3.471   3.762  14.708  1.0481 -1.6255  1.8696
 5049TIP3   OH236561   1.299   4.228  15.987 -0.1614  0.5635  0.3395
 5049TIP3    H136562   1.227   4.199  15.930  0.8580 -0.4637 -0.5058
 5049TIP3    H236563   1.356   4.278  15.929  0.9717 -0.6225  0.3721
 5050TIP3   OH236564   0.143   5.936   2.912 -0.3025 -0.0808  0.0192
 5050TIP3    H136565   0.214   5.995   2.888 -1.4303  1.4863  0.3529
 5050TIP3    H236566   0.100   5.916   2.829  0.6802 -1.2959 -0.2264
 5051TIP3   OH236567   3.615   0.430  14.914 -0.1580  0.7711 -0.7913
 5051TIP3    H136568   3.544   0.409  14.974 -0.7182  0.6651 -1.4812
 5051TIP3    H236569   3.647   0.345  14.883 -0.3892  0.8445 -1.2391
 5052TIP3   OH236570   3.937   4.676   3.608 -0.0023 -0.2983 -0.2970
 5052TIP3    H136571   3.859   4.629   3.639 -1.1528  1.9371  0.4097
 5052TIP3    H236572   3.913   4.711   3.523 -1.0643  3.0478  1.2206
 5053TIP3   OH236573   5.195   6.380  13.208  0.1306 -0.7708 -0.0969
 5053TIP3    H136574   5.241   6.464  13.212 -1.5195  0.1363  1.2899
 5053TIP3    H236575   5.195   6.357  13.115  2.6242 -0.4453 -0.2440
 5054TIP3   OH236576   5.796   3.329  11.070  0.5410  0.8024  0.1558
 5054TIP3    H136577   5.830   3.274  11.000 -1.8798 -0.2831 -0.2429
 5054TIP3    H236578   5.835   3.415  11.053  2.7469 -0.2322 -0.4242
 5055TIP3   OH236579   2.881   5.399  16.575  0.2393  0.3595 -0.1168
 5055TIP3    H136580   2.818   5.395  16.647  0.9571 -2.6259  0.4926
 5055TIP3    H236581   2.831   5.432  16.501 -1.0818  1.4289  1.1860
 5056TIP3   OH236582   3.704   6.548  11.719 -0.3659 -0.0012 -0.1809
 5056TIP3    H136583   3.759   6.607  11.668  1.6649 -1.0221  0.7467
 5056TIP3    H236584   3.702   6.587  11.807 -0.5975 -0.3221 -0.0411
 5057TIP3   OH236585   2.123   3.507  13.320 -0.3085  0.1787 -0.2297
 5057TIP3    H136586   2.177   3.488  13.243 -0.4451 -0.5500 -0.1539
 5057TIP3    H236587   2.042   3.543  13.284 -0.2516  0.1268 -0.4113
 5058TIP3   OH236588   2.434   3.083   2.708  0.4637  0.3096 -0.2986
 5058TIP3    H136589   2.429   3.048   2.797 -0.3549  0.4900 -0.2661
 5058TIP3    H236590   2.486   3.163   2.716 -0.6789  1.0210  0.2484
 5059TIP3   OH236591   2.242   3.160   1.087  0.1494 -0.3133 -0.3026
 5059TIP3    H136592   2.163   3.114   1.060 -0.1364  1.2977 -2.4849
 5059TIP3    H236593   2.297   3.164   1.008  1.1322  1.0505  0.3922
 5060TIP3   OH236594   4.592   0.049  13.198 -0.3436 -0.0642 -0.3760
 5060TIP3    H136595   4.613  -0.041  13.172 -1.3271 -0.3323 -0.2623
 5060TIP3    H236596   4.534   0.081  13.129  1.9583  1.3861 -1.7949
 5061TIP3   OH236597   0.012   5.584  15.433  0.1458  0.2911  0.2166
 5061TIP3    H136598   0.025   5.497  15.470 -0.8497  0.6557  1.5250
 5061TIP3    H236599   0.073   5.589  15.360 -0.3984 -1.8292 -0.4561
 5062TIP3   OH236600   6.770   3.319  14.413 -0.2797  0.6718 -0.3376
 5062TIP3    H136601   6.797   3.400  14.455 -0.5891  1.3952 -1.4875
 5062TIP3    H236602   6.828   3.311  14.336  2.0405 -1.9259  1.4518
 5063TIP3   OH236603   4.782   3.389  13.652 -0.2101 -0.7842 -0.0716
 5063TIP3    H136604   4.836   3.467  13.640 -1.2649 -0.1708 -1.0330
 5063TIP3    H236605   4.830   3.320  13.606  1.5526 -1.1468  2.1520
 5064TIP3   OH236606   6.503   6.239   1.076  0.4510  0.0206 -0.3074
 5064TIP3    H136607   6.564   6.304   1.111 -0.2044 -0.0861  1.0914
 5064TIP3    H236608   6.509   6.250   0.981  1.4992  1.0623 -0.1460
 5065TIP3   OH236609   6.807   5.004  15.259  0.1591 -0.0946 -0.5836
 5065TIP3    H136610   6.837   4.928  15.209  0.7290  1.4145 -2.6811
 5065TIP3    H236611   6.741   5.046  15.203 -1.0882  0.2931  1.0790
 5066TIP3   OH236612   0.647   2.463  13.817  0.2099 -0.6619 -0.4963
 5066TIP3    H136613   0.574   2.425  13.768 -0.1827 -0.4551 -0.0680
 5066TIP3    H236614   0.670   2.396  13.881 -1.9751  0.6319  1.8284
 5067TIP3   OH236615   0.150   3.181   5.955  0.1487 -0.2112  0.0941
 5067TIP3    H136616   0.164   3.267   5.995 -1.5970 -0.7854  2.1426
 5067TIP3    H236617   0.172   3.119   6.025 -0.4539 -1.3638 -0.7098
 5068TIP3   OH236618   3.258   1.092   4.545 -0.2081  0.3826 -0.3100
 5068TIP3    H136619   3.198   1.073   4.617 -1.8416  2.6422 -0.9576
 5068TIP3    H236620   3.345   1.088   4.585 -1.0180  0.7065  1.5908
 5069TIP3   OH236621   2.301   2.166  11.472 -0.1124 -0.0382 -0.0516
 5069TIP3    H136622   2.379   2.211  11.503  0.8809 -1.4046 -0.4849
 5069TIP3    H236623   2.332   2.079  11.447 -1.4437 -0.0209 -1.9185
 5070TIP3   OH236624   1.370   0.327   4.533  0.0509  0.0565 -0.5022
 5070TIP3    H136625   1.459   0.295   4.545 -0.3510 -1.1018 -0.4959
 5070TIP3    H236626   1.352   0.378   4.612  0.3943 -0.4551 -0.0854
 5071TIP3   OH236627   0.657   2.018   2.648 -0.2255 -0.2878  0.1433
 5071TIP3    H136628   0.622   2.065   2.724 -0.9501 -1.6535  0.6819
 5071TIP3    H236629   0.747   1.998   2.670 -0.2630 -0.1676  0.4008
 5072TIP3   OH236630   0.183   0.186   3.132 -0.4897 -0.0257  0.1202
 5072TIP3    H136631   0.166   0.280   3.133 -2.7888 -0.3797  1.0468
 5072TIP3    H236632   0.240   0.171   3.207  0.1097  0.6412 -0.1923
 5073TIP3   OH236633   6.369   0.154  16.756  0.0349  0.4806 -0.1898
 5073TIP3    H136634   6.290   0.164  16.808 -0.5742 -0.1386 -0.9789
 5073TIP3    H236635   6.360   0.219  16.686  1.5410  2.3697  1.2456
 5074TIP3   OH236636   6.083   3.709  10.965 -0.9401 -0.6591  1.4422
 5074TIP3    H136637   6.086   3.653  11.043  1.3522 -1.8234  0.6184
 5074TIP3    H236638   6.167   3.694  10.921 -2.1562 -0.1259 -1.3111
 5075TIP3   OH236639   4.396   2.687   0.082  0.3848  0.5840 -0.1983
 5075TIP3    H136640   4.379   2.759   0.142 -2.0469 -1.7171  2.1376
 5075TIP3    H236641   4.476   2.646   0.116  2.6547  2.8042 -2.4002
 5076TIP3   OH236642   5.607   4.916  11.179 -0.0377 -0.1942  0.2120
 5076TIP3    H136643   5.534   4.880  11.230 -0.0484  0.1912  0.4784
 5076TIP3    H236644   5.637   4.843  11.124  0.9700 -1.0999  1.8685
 5077TIP3   OH236645   0.321   2.220   5.029  0.2735 -0.1552 -0.2287
 5077TIP3    H136646   0.273   2.244   5.109  0.1534 -0.7854 -0.1115
 5077TIP3    H236647   0.285   2.278   4.962 -0.4676 -0.4338 -0.0817
 5078TIP3   OH236648   4.952   2.881   0.566 -0.4820  0.4293 -0.0518
 5078TIP3    H136649   4.871   2.834   0.546 -0.4605  1.2110 -2.1416
 5078TIP3    H236650   4.947   2.961   0.515  1.0757  1.0761  0.7453
 5079TIP3   OH236651   4.398   1.820   3.791  0.4058 -0.2266  0.2005
 5079TIP3    H136652   4.436   1.799   3.705 -1.4719 -2.4352 -0.1805
 5079TIP3    H236653   4.335   1.890   3.773 -0.1743 -0.8678 -0.2773
 5080TIP3   OH236654   3.262   3.460   4.496 -0.2668  0.0912 -0.8544
 5080TIP3    H136655   3.243   3.499   4.581 -0.3116  1.7681 -1.5850
 5080TIP3    H236656   3.197   3.390   4.486 -0.3565 -0.0206  0.4119
 5081TIP3   OH236657   0.708   1.766   2.503  0.6374  0.6067  0.3300
 5081TIP3    H136658   0.654   1.830   2.456 -0.3806  1.4034  2.4415
 5081TIP3    H236659   0.757   1.818   2.566  1.2015 -0.5147  0.8365
 5082TIP3   OH236660   3.242   4.228  14.596  0.5564 -0.4801 -0.0018
 5082TIP3    H136661   3.209   4.175  14.668  0.1787  0.0230  0.1997
 5082TIP3    H236662   3.177   4.215  14.526 -0.6294  1.2640  0.7161
 5083TIP3   OH236663   6.146   0.055  14.122 -0.1070  0.1846 -0.6890
 5083TIP3    H136664   6.214   0.109  14.162 -1.1175  0.0212  1.4005
 5083TIP3    H236665   6.193  -0.017  14.080  1.1125  1.3585 -1.4331
 5084TIP3   OH236666   6.085   6.262  15.824 -0.8582  0.1210 -0.2702
 5084TIP3    H136667   6.149   6.236  15.758  0.5704  0.0907  1.0649
 5084TIP3    H236668   6.041   6.338  15.787 -0.5847 -0.3207 -1.5403
 5085TIP3   OH236669   5.986   5.875   3.272 -0.0445 -0.2327  0.4714
 5085TIP3    H136670   5.896   5.907   3.280  0.3915  1.9675 -2.1777
 5085TIP3    H236671   5.996   5.853   3.180  1.9689 -1.0603  0.8390
 5086TIP3   OH236672   0.414   2.574  12.662  0.3804 -0.4089  0.5153
 5086TIP3    H136673   0.382   2.659  12.693 -0.4796 -0.4156 -0.2944
 5086TIP3    H236674   0.345   2.512  12.687  0.3803 -0.6448 -0.0610
 5087TIP3   OH236675   5.323   6.675  12.770 -0.1104  0.0299  0.5413
 5087TIP3    H136676   5.283   6.720  12.696 -1.0405 -0.0495  0.9829
 5087TIP3    H236677   5.344   6.587  12.736  2.2189  0.8884 -0.4861
 5088TIP3   OH236678   2.503   6.279  10.744  0.1237  0.2454 -0.1910
 5088TIP3    H136679   2.516   6.362  10.698  0.3027  0.0351 -0.5168
 5088TIP3    H236680   2.582   6.228  10.726 -0.3270 -0.3086 -0.6441
 5089TIP3   OH236681   3.671   1.008   5.659  0.1443  0.2917 -0.4938
 5089TIP3    H136682   3.754   0.974   5.694  0.0423  0.2039 -0.3344
 5089TIP3    H236683   3.608   0.993   5.730  0.3041  1.7092 -0.0197
 5090TIP3   OH236684   1.326   5.584  15.189 -0.2624  0.2586  0.5409
 5090TIP3    H136685   1.373   5.627  15.118 -1.2572  0.4988  0.0087
 5090TIP3    H236686   1.322   5.492  15.164  1.5959 -0.1365  1.5306
 5091TIP3   OH236687   4.436   0.188  11.558 -0.3660  0.1227 -0.4691
 5091TIP3    H136688   4.523   0.222  11.581 -0.8725  0.8876  0.3446
 5091TIP3    H236689   4.375   0.241  11.608 -1.1697 -2.6275  1.6951
 5092TIP3   OH236690   2.510   2.623  14.990 -0.3488  0.0624  0.6136
 5092TIP3    H136691   2.487   2.649  15.080 -1.3799 -0.8897  0.6540
 5092TIP3    H236692   2.426   2.600  14.950  0.1848 -0.2142 -0.3700
 5093TIP3   OH236693   0.446   6.523  12.348 -0.1635 -0.9970  0.8868
 5093TIP3    H136694   0.505   6.515  12.274 -3.3734 -1.1458 -1.9125
 5093TIP3    H236695   0.454   6.440  12.395  1.7308 -1.0212  0.5611
 5094TIP3   OH236696   5.124   0.162   3.396 -0.1935 -0.8402  0.2868
 5094TIP3    H136697   5.058   0.100   3.365  1.0811 -1.8880 -0.4217
 5094TIP3    H236698   5.099   0.180   3.487 -1.5058 -1.1131 -0.0066
 5095TIP3   OH236699   0.321   5.786  12.214  0.1493  0.1120  0.1514
 5095TIP3    H136700   0.334   5.881  12.210 -0.3552  0.3186  2.3917
 5095TIP3    H236701   0.338   5.756  12.124  3.1829  1.9112 -0.0144
 5096TIP3   OH236702   4.623   1.825   0.507 -0.8219  0.2406  0.1286
 5096TIP3    H136703   4.529   1.826   0.488 -0.7018 -0.3509 -0.5268
 5096TIP3    H236704   4.659   1.895   0.452 -0.5828 -0.9782 -1.3485
 5097TIP3   OH236705   3.136   3.150  16.322  0.2280  0.4998  0.3818
 5097TIP3    H136706   3.183   3.191  16.249  0.6578 -0.8442 -0.1299
 5097TIP3    H236707   3.055   3.200  16.330  0.4001  0.9762 -0.6893
 5098TIP3   OH236708   4.408   6.786  12.709 -0.0044 -0.1472 -0.5328
 5098TIP3    H136709   4.428   6.864  12.658 -1.1388  1.8317  1.8170
 5098TIP3    H236710   4.315   6.769  12.691 -0.1341 -0.0605  0.0133
 5099TIP3   OH236711   2.376   0.098  13.541 -1.0637  1.0456 -0.5154
 5099TIP3    H136712   2.296   0.102  13.593 -1.4059 -0.5097 -0.8820
 5099TIP3    H236713   2.393   0.189  13.516 -2.1737  1.5156  0.3622
 5100TIP3   OH236714   3.758   2.314  12.692  0.2177 -0.4114 -0.0416
 5100TIP3    H136715   3.833   2.328  12.751 -0.4987 -0.1594  0.8331
 5100TIP3    H236716   3.781   2.235  12.643 -0.9737 -3.3546  3.6374
 5101TIP3   OH236717   2.733   0.099   6.442 -0.2686 -0.2949  0.5997
 5101TIP3    H136718   2.787   0.146   6.379  1.9875 -0.0188  2.6016
 5101TIP3    H236719   2.675   0.045   6.388  1.0215  0.4744 -1.6889
 5102TIP3   OH236720   2.620   2.262  13.465 -0.0421 -0.1471 -0.1531
 5102TIP3    H136721   2.647   2.207  13.392  2.2436  0.1780  0.3857
 5102TIP3    H236722   2.658   2.348  13.446 -0.3954  0.2444  0.8468
 5103TIP3   OH236723   5.711   1.955   5.177 -0.1554 -0.0715  0.4308
 5103TIP3    H136724   5.640   1.976   5.116 -1.1774  0.6925  1.8161
 5103TIP3    H236725   5.705   1.860   5.187  0.5986 -0.3414 -1.2811
 5104TIP3   OH236726   3.368   4.739   5.630 -0.7918  0.2663 -0.0509
 5104TIP3    H136727   3.449   4.735   5.682 -1.3286  1.0944  0.8963
 5104TIP3    H236728   3.310   4.676   5.673 -0.2477 -1.2835 -1.5118
 5105TIP3   OH236729   0.504   6.259   5.010  0.4362  0.6595 -0.2501
 5105TIP3    H136730   0.554   6.188   5.049  1.0338  2.0985  1.7108
 5105TIP3    H236731   0.426   6.266   5.065  1.2659  2.6889  0.7484
 5106TIP3   OH236732   5.467   3.047   1.426 -0.3752  0.1148  0.2402
 5106TIP3    H136733   5.511   3.061   1.509  2.2789 -0.4876 -0.9834
 5106TIP3    H236734   5.487   2.957   1.402  0.0276  0.6706 -1.6628
 5107TIP3   OH236735   2.408   3.309  14.048 -0.1669 -0.1667  0.5979
 5107TIP3    H136736   2.480   3.370  14.028 -0.2800  0.1612  1.1422
 5107TIP3    H236737   2.450   3.224  14.055  0.1898  0.0331  0.9773
 5108TIP3   OH236738   0.592   3.657  11.765 -0.1783 -0.5422 -0.0410
 5108TIP3    H136739   0.597   3.585  11.828 -0.6429 -0.2126  0.3810
 5108TIP3    H236740   0.575   3.614  11.681 -0.3854 -0.9304  0.1929
 5109TIP3   OH236741   5.685   3.711  15.148  0.4820  0.4973  0.2709
 5109TIP3    H136742   5.590   3.722  15.150  0.5934  1.8909  2.7988
 5109TIP3    H236743   5.699   3.617  15.137 -1.1217  0.3945 -1.2491
 5110TIP3   OH236744   1.539   4.081  16.901 -0.2249  0.5197  0.1244
 5110TIP3    H136745   1.607   4.081  16.968 -0.3877  1.1599  0.2996
 5110TIP3    H236746   1.534   3.990  16.871 -0.8044  0.0246  1.6507
 5111TIP3   OH236747   0.809   0.474   5.415 -0.3927  0.2262 -0.2857
 5111TIP3    H136748   0.893   0.461   5.461  1.1087  0.0080 -2.8942
 5111TIP3    H236749   0.783   0.386   5.388  0.0674  0.5557 -1.9208
 5112TIP3   OH236750   3.261   1.647  11.392  0.2088 -0.0098  0.0124
 5112TIP3    H136751   3.337   1.647  11.334  0.9671  0.9943  0.9472
 5112TIP3    H236752   3.296   1.674  11.477 -1.5213  2.8176 -0.0157
 5113TIP3   OH236753   0.982   0.116  10.472 -0.4157 -0.5096  0.0484
 5113TIP3    H136754   1.069   0.153  10.454 -0.6407 -0.7568 -1.6838
 5113TIP3    H236755   0.972   0.046  10.408 -1.8735 -0.5284  0.2751
 5114TIP3   OH236756   4.152   4.752   0.705 -0.2513  0.0789  0.5556
 5114TIP3    H136757   4.167   4.658   0.698  0.2928  0.0809  1.5134
 5114TIP3    H236758   4.104   4.764   0.786 -1.7775  0.4966 -0.3755
 5115TIP3   OH236759   3.246   6.100  11.598 -0.4798 -0.4339 -0.2645
 5115TIP3    H136760   3.161   6.065  11.621 -1.1423  0.0806 -1.7866
 5115TIP3    H236761   3.264   6.066  11.510  0.0661  0.8403 -0.6816
 5116TIP3   OH236762   0.433   3.930   4.310 -0.8941 -0.1512  0.5907
 5116TIP3    H136763   0.447   3.842   4.346  0.6282 -0.1109  0.1339
 5116TIP3    H236764   0.443   3.920   4.216  0.3123  0.6819  0.6111
 5117TIP3   OH236765   5.325   5.905   3.009  0.5008 -0.2755  0.3623
 5117TIP3    H136766   5.230   5.903   3.004  0.5752 -1.9690 -1.7517
 5117TIP3    H236767   5.351   5.813   3.019  1.9263  0.2192  1.6822
 5118TIP3   OH236768   4.157   4.132   0.043 -0.0999 -0.3167 -0.6185
 5118TIP3    H136769   4.190   4.092  -0.037  2.3428  0.0521  0.1032
 5118TIP3    H236770   4.236   4.161   0.090 -1.4227 -0.4498  1.8894
 5119TIP3   OH236771   6.231   0.105  12.114 -0.1621  0.7772 -0.3385
 5119TIP3    H136772   6.162   0.158  12.076 -0.7829 -0.9343 -1.7545
 5119TIP3    H236773   6.310   0.158  12.107 -0.0757  0.4158 -4.7281
 5120TIP3   OH236774   6.190   5.322  11.294 -0.2626  0.3366 -0.1716
 5120TIP3    H136775   6.180   5.416  11.304  0.6213  0.4668 -0.4129
 5120TIP3    H236776   6.270   5.312  11.243  0.1535 -0.5660  0.6197
 5121TIP3   OH236777   4.886   0.585   0.352 -0.0405 -0.3610 -0.0131
 5121TIP3    H136778   4.884   0.562   0.259  0.9654  0.8629 -0.3738
 5121TIP3    H236779   4.811   0.540   0.390 -0.9541 -0.2321 -1.5737
 5122TIP3   OH236780   6.751   5.477   1.433 -0.2772  0.3156  0.5038
 5122TIP3    H136781   6.785   5.440   1.351  0.0698 -0.0910  0.8236
 5122TIP3    H236782   6.656   5.481   1.420 -0.0746  2.1330 -0.6754
 5123TIP3   OH236783   6.660   0.962   4.654  0.6717  0.1001  0.7959
 5123TIP3    H136784   6.616   1.015   4.721 -1.3323 -0.3971 -0.0704
 5123TIP3    H236785   6.650   1.013   4.573  0.8126 -0.4985  0.3993
 5124TIP3   OH236786   1.392   0.326  13.133  1.0643 -0.1976 -1.1426
 5124TIP3    H136787   1.473   0.351  13.178  0.4311  0.0690 -0.1065
 5124TIP3    H236788   1.342   0.407  13.127  0.1551 -0.6602 -0.2101
 5125TIP3   OH236789   0.496   5.092  14.812  0.3012  0.1370  0.0535
 5125TIP3    H136790   0.460   5.042  14.885 -1.6118 -1.4485 -1.8525
 5125TIP3    H236791   0.465   5.181  14.826 -0.3803 -0.2304  0.9629
 5126TIP3   OH236792   6.436   6.621   5.915  0.1191 -0.0226 -0.1465
 5126TIP3    H136793   6.341   6.632   5.924 -0.1075 -0.2486 -1.9475
 5126TIP3    H236794   6.456   6.652   5.827  1.7350  0.0285  0.2091
 5127TIP3   OH236795   2.147   1.697  13.418  0.0902 -0.2524  0.4264
 5127TIP3    H136796   2.069   1.708  13.472 -0.1572 -0.2599  0.0750
 5127TIP3    H236797   2.157   1.602  13.411  1.6139 -0.3142  2.5844
 5128TIP3   OH236798   0.397   3.422  16.059  0.5347  0.2825 -0.0235
 5128TIP3    H136799   0.423   3.512  16.080 -0.8632  1.2518 -2.1133
 5128TIP3    H236800   0.302   3.428  16.044  0.8859 -0.8233 -3.3066
 5129TIP3   OH236801   4.163   1.270   5.944 -0.0980 -0.4744 -0.2429
 5129TIP3    H136802   4.150   1.301   5.854 -1.6352 -2.3318 -0.7181
 5129TIP3    H236803   4.257   1.278   5.959  0.6466 -2.5843 -3.0006
 5130TIP3   OH236804   4.713   5.891   2.238  0.0568  0.5143 -0.0415
 5130TIP3    H136805   4.780   5.930   2.295  0.4721  2.0591 -1.5105
 5130TIP3    H236806   4.658   5.965   2.212  0.9088  0.2439 -2.9876
 5131TIP3   OH236807   1.298   2.091  14.401  0.5207  0.4845  0.0486
 5131TIP3    H136808   1.234   2.110  14.470  1.9773  2.9274  0.8542
 5131TIP3    H236809   1.264   2.013  14.358 -1.8241  0.3978  1.8436
 5132TIP3   OH236810   5.392   1.615  13.555 -0.5880  0.1210  0.8566
 5132TIP3    H136811   5.422   1.628  13.465 -0.8815 -1.3251  0.5245
 5132TIP3    H236812   5.367   1.703  13.585  0.4712  0.7828 -0.1055
 5133TIP3   OH236813   4.239   1.419   4.572  0.0413  0.0713 -0.0724
 5133TIP3    H136814   4.144   1.433   4.572 -0.3718 -2.1062  2.0857
 5133TIP3    H236815   4.272   1.484   4.510 -3.2097 -1.7937 -4.2404
 5134TIP3   OH236816   4.704   1.915   4.066  0.0927  0.3376  0.5483
 5134TIP3    H136817   4.712   1.952   4.154 -1.4370 -0.1164  0.9106
 5134TIP3    H236818   4.617   1.874   4.066  0.6059 -0.7991 -0.7453
 5135TIP3   OH236819   2.242   1.277  12.110 -0.2017  0.3304  0.6063
 5135TIP3    H136820   2.239   1.187  12.078  0.0843  0.6544 -0.3634
 5135TIP3    H236821   2.270   1.329  12.034 -0.6483  1.2731  1.0696
 5136TIP3   OH236822   0.249   0.735   3.812 -0.3559 -0.2139  0.5174
 5136TIP3    H136823   0.296   0.786   3.879 -1.1523  2.1338 -0.5876
 5136TIP3    H236824   0.304   0.744   3.734 -0.1139 -1.8043  0.4735
 5137TIP3   OH236825   0.773   3.361   3.414  0.1596 -0.3565 -0.2225
 5137TIP3    H136826   0.804   3.369   3.504  0.0740 -1.0028 -0.1315
 5137TIP3    H236827   0.767   3.452   3.383 -2.1031  0.0567  1.1863
 5138TIP3   OH236828   3.922   1.519  11.785 -0.5781  0.1174 -0.1409
 5138TIP3    H136829   3.996   1.474  11.827  1.3105  1.6460 -1.6493
 5138TIP3    H236830   3.846   1.465  11.807  1.2043 -2.5132  0.0413
 5139TIP3   OH236831   3.417   0.458   5.140  0.4748 -0.0755 -0.3640
 5139TIP3    H136832   3.363   0.520   5.188  0.0624  1.7629 -2.9839
 5139TIP3    H236833   3.355   0.394   5.104  0.8881 -2.1016  2.2450
 5140TIP3   OH236834   3.154   3.011   6.137  0.3390 -0.2345  0.1188
 5140TIP3    H136835   3.174   2.943   6.202 -0.9277  1.0771  2.0057
 5140TIP3    H236836   3.058   3.015   6.135  0.3757  0.6189 -0.8909
 5141TIP3   OH236837   2.942   2.771  11.049 -1.1640  0.1438 -0.5761
 5141TIP3    H136838   2.980   2.755  11.135 -2.6495  2.1184  0.5212
 5141TIP3    H236839   2.997   2.839  11.011  0.4626 -1.8169 -1.9589
 5142TIP3   OH236840   6.365   0.808   5.808 -0.0852 -0.0279 -0.6020
 5142TIP3    H136841   6.320   0.796   5.724  0.4745  0.1180 -0.9306
 5142TIP3    H236842   6.404   0.722   5.826  0.5448  0.1738 -0.9482
 5143TIP3   OH236843   5.302   6.629   3.938  0.4146 -0.5753  0.2645
 5143TIP3    H136844   5.292   6.561   4.005  3.3082 -0.4012  1.0416
 5143TIP3    H236845   5.397   6.645   3.935  0.2048  0.7941 -2.5505
 5144TIP3   OH236846   3.666   1.192  12.809  0.2060  0.2559 -0.2924
 5144TIP3    H136847   3.745   1.246  12.819  1.0973 -1.2093  1.0332
 5144TIP3    H236848   3.611   1.219  12.883  0.2562  0.0172 -0.1662
 5145TIP3   OH236849   0.665   1.134  16.423  0.3517 -0.1735 -0.3274
 5145TIP3    H136850   0.648   1.060  16.365  2.3693 -1.4352  0.5760
 5145TIP3    H236851   0.578   1.165  16.448 -0.5490 -1.2839 -1.8898
 5146TIP3   OH236852   3.282   3.134  12.912  0.1921  0.2476  0.4084
 5146TIP3    H136853   3.343   3.114  12.983  2.3010 -1.0668 -1.6093
 5146TIP3    H236854   3.320   3.211  12.870 -1.8109  1.9029  1.4338
 5147TIP3   OH236855   4.759   2.487  14.853 -0.3296  0.4126 -0.2200
 5147TIP3    H136856   4.834   2.438  14.818  0.3485  1.0031  0.3910
 5147TIP3    H236857   4.714   2.424  14.909 -1.3107 -0.4887 -1.9167
 5148TIP3   OH236858   2.264   2.101  16.658 -0.6765  0.2445 -0.0704
 5148TIP3    H136859   2.218   2.185  16.670  1.0834  1.3701 -0.7476
 5148TIP3    H236860   2.255   2.057  16.742  0.1290  2.0563  1.0372
 5149TIP3   OH236861   3.602   1.533  13.285 -0.1434 -0.4477  0.8463
 5149TIP3    H136862   3.670   1.576  13.338  1.3600 -0.8797 -0.6334
 5149TIP3    H236863   3.651   1.488  13.216 -1.9690 -0.4755 -0.4980
 5150TIP3   OH236864   1.872   4.834   4.902 -0.0053  0.2920  0.1126
 5150TIP3    H136865   1.933   4.802   4.835  1.0943  1.3037  0.6021
 5150TIP3    H236866   1.851   4.757   4.954  0.8219 -0.0832 -0.0949
 5151TIP3   OH236867   6.332   2.026  12.769 -0.2349  0.4736 -0.4957
 5151TIP3    H136868   6.255   2.013  12.714  0.6674 -0.1402 -1.6479
 5151TIP3    H236869   6.345   2.121  12.769 -1.1954  0.6173  0.0205
 5152TIP3   OH236870   3.329   2.610  12.412 -0.2098  0.0326 -0.0914
 5152TIP3    H136871   3.260   2.573  12.467 -0.6664  0.4712 -0.3603
 5152TIP3    H236872   3.282   2.649  12.338  0.3738 -0.2497 -0.6162
 5153TIP3   OH236873   0.611   5.992   1.113 -0.2925 -0.0292 -0.5588
 5153TIP3    H136874   0.518   6.014   1.110 -0.4458 -0.6902 -0.7054
 5153TIP3    H236875   0.646   6.048   1.183 -0.6903  0.6014 -0.8555
 5154TIP3   OH236876   3.455   3.925   6.049  0.1772  0.1344  0.2034
 5154TIP3    H136877   3.508   4.006   6.045  0.5695 -0.1716 -1.6965
 5154TIP3    H236878   3.460   3.899   6.141  1.0363  1.6288  0.6312
 5155TIP3   OH236879   2.961   3.117   4.302  0.3068 -0.3726 -0.4099
 5155TIP3    H136880   2.931   3.115   4.393 -0.3609 -0.5124 -0.6330
 5155TIP3    H236881   3.055   3.096   4.308 -0.0198 -1.8178  0.1268
 5156TIP3   OH236882   2.478   5.588   3.709  0.2763 -0.1934  0.1635
 5156TIP3    H136883   2.477   5.670   3.758 -0.7076  0.4926 -0.9552
 5156TIP3    H236884   2.454   5.613   3.620  0.9373 -1.5629 -0.4306
 5157TIP3   OH236885   6.371   6.694  11.581  0.0925 -0.5114  0.1614
 5157TIP3    H136886   6.458   6.726  11.607  0.5530 -1.4230 -0.2370
 5157TIP3    H236887   6.388   6.628  11.514 -1.0282  1.5694 -2.3703
 5158TIP3   OH236888   2.135   3.729   4.898  0.1496  0.4844  0.0311
 5158TIP3    H136889   2.063   3.749   4.958  0.2294  1.1109 -0.0732
 5158TIP3    H236890   2.097   3.667   4.835  0.0127 -0.0192  0.6048
 5159TIP3   OH236891   1.097   2.371   2.831  0.3060  0.0408  0.3525
 5159TIP3    H136892   1.100   2.422   2.751 -3.6362  0.5629  0.3416
 5159TIP3    H236893   1.119   2.433   2.901  3.0812 -0.2617 -0.1408
 5160TIP3   OH236894   6.545   5.393  16.769  0.0611  0.4557 -0.2488
 5160TIP3    H136895   6.560   5.470  16.714  1.3025 -0.8305 -1.8056
 5160TIP3    H236896   6.519   5.324  16.707  1.9337 -1.1591  0.6556
 5161TIP3   OH236897   3.307   6.413   3.898  0.0486  0.2133  0.0815
 5161TIP3    H136898   3.351   6.330   3.917  0.2394  0.5312  1.1276
 5161TIP3    H236899   3.314   6.423   3.803  1.0995 -0.3819  0.0753
 5162TIP3   OH236900   6.371   5.612   5.694  0.1800  0.5338  0.4179
 5162TIP3    H136901   6.394   5.687   5.638 -1.2137  0.4791 -0.2607
 5162TIP3    H236902   6.366   5.649   5.782 -2.9604  1.8637 -0.2083
 5163TIP3   OH236903   1.810   4.655  13.523  0.1180 -0.5404  0.4138
 5163TIP3    H136904   1.888   4.697  13.486  0.4582 -0.5280  1.1419
 5163TIP3    H236905   1.843   4.602  13.595 -0.5395 -0.5804  0.6928
 5164TIP3   OH236906   5.671   1.853  12.283  0.7715  0.0225 -0.4090
 5164TIP3    H136907   5.601   1.812  12.234 -0.1596 -0.2213  1.0738
 5164TIP3    H236908   5.701   1.925  12.226 -0.1411 -0.3421 -1.3826
 5165TIP3   OH236909   3.207   5.606   6.123  0.1958 -0.0183  0.2625
 5165TIP3    H136910   3.199   5.621   6.217 -0.4641  1.1934  0.0333
 5165TIP3    H236911   3.274   5.668   6.095 -0.0056  0.0123 -0.1550
 5166TIP3   OH236912   2.750   2.062  11.170  0.3321 -1.0425 -0.1897
 5166TIP3    H136913   2.728   2.005  11.244  0.8502  1.3712  1.9407
 5166TIP3    H236914   2.690   2.136  11.178  1.7398  0.2258 -0.9956
 5167TIP3   OH236915   3.541   0.657  14.631 -0.5021 -0.2178 -0.6595
 5167TIP3    H136916   3.471   0.652  14.696  1.1448 -0.3379  1.2200
 5167TIP3    H236917   3.586   0.573  14.638  1.1485  0.6540 -0.1645
 5168TIP3   OH236918   6.809   4.936   2.217 -0.5641 -0.0291 -0.2445
 5168TIP3    H136919   6.729   4.920   2.167 -0.6702  0.1525 -0.1314
 5168TIP3    H236920   6.816   4.861   2.276 -0.6940 -0.0069 -0.2002
 5169TIP3   OH236921   5.850   0.525   6.121 -1.0826 -0.6102 -0.4763
 5169TIP3    H136922   5.873   0.594   6.184 -0.0628 -2.5841  1.4720
 5169TIP3    H236923   5.918   0.531   6.054  0.0782 -0.8265  0.6379
 5170TIP3   OH236924   1.009   3.046   4.256  0.0235  0.4878 -0.2984
 5170TIP3    H136925   0.913   3.045   4.254 -0.0154  1.4893  0.3207
 5170TIP3    H236926   1.031   3.112   4.321  1.1429  0.0097 -0.1605
 5171TIP3   OH236927   3.028   1.971  16.659 -0.0928 -0.4156  0.0340
 5171TIP3    H136928   3.023   1.915  16.582  1.8879  1.6175 -1.6806
 5171TIP3    H236929   3.001   2.058  16.628  1.4037  0.6090  1.4265
 5172TIP3   OH236930   6.781   6.086   3.064  0.1565  0.3717 -0.4439
 5172TIP3    H136931   6.788   6.028   3.140 -3.7960 -1.4206 -1.1301
 5172TIP3    H236932   6.838   6.046   2.998  0.9327 -0.0975  0.4872
 5173TIP3   OH236933   2.809   2.726  15.383  0.2946  0.2416  0.5089
 5173TIP3    H136934   2.746   2.763  15.321  0.1296  1.6013  1.4407
 5173TIP3    H236935   2.818   2.793  15.450  1.3923 -0.6917  1.3251
 5174TIP3   OH236936   5.601   0.132  13.468 -0.3503  0.2496 -0.0062
 5174TIP3    H136937   5.677   0.153  13.414 -0.9093 -1.5537 -1.5835
 5174TIP3    H236938   5.526   0.152  13.413 -1.0088  0.5130  0.9574
 5175TIP3   OH236939   1.124   1.361   3.858  0.0419 -0.1838  0.3162
 5175TIP3    H136940   1.076   1.281   3.839  0.6343 -0.1956 -1.2917
 5175TIP3    H236941   1.085   1.426   3.799  1.8833 -0.1782 -0.9868
 5176TIP3   OH236942   3.777   1.502  14.973  0.2826  0.6143  1.0453
 5176TIP3    H136943   3.861   1.520  14.932  0.1439 -0.6548  0.1547
 5176TIP3    H236944   3.800   1.463  15.058  0.5632  1.6911  1.4899
 5177TIP3   OH236945   1.106   6.749   2.874 -0.1309 -0.0532  0.0920
 5177TIP3    H136946   1.087   6.738   2.967 -0.9727  0.4585 -0.0128
 5177TIP3    H236947   1.201   6.750   2.869 -0.0756 -0.5255  0.8931
 5178TIP3   OH236948   1.114   2.999  16.131  0.1691  0.3312  0.2389
 5178TIP3    H136949   1.140   3.018  16.221  2.5192  0.0343 -0.3086
 5178TIP3    H236950   1.137   3.079  16.083  0.5032 -0.1111 -0.3510
 5179TIP3   OH236951   0.616   4.750  12.106 -0.3507  0.2557  0.0476
 5179TIP3    H136952   0.544   4.696  12.074  0.5216 -1.1323  0.3656
 5179TIP3    H236953   0.586   4.782  12.192  0.4326 -2.6439  1.5403
 5180TIP3   OH236954   2.023   3.478   0.183 -0.7190 -0.0536  0.4770
 5180TIP3    H136955   2.023   3.407   0.119 -1.2468 -0.4037  0.8541
 5180TIP3    H236956   1.957   3.452   0.247 -0.5904  0.5596  0.8651
 5181TIP3   OH236957   5.892   2.997   1.769 -0.3994 -0.2347  0.3126
 5181TIP3    H136958   5.875   2.973   1.860 -0.4973 -0.8813  0.1285
 5181TIP3    H236959   5.956   2.932   1.738 -1.4186 -0.8804 -0.4910
 5182TIP3   OH236960   5.889   3.598   4.064 -0.1000  0.2457  0.1293
 5182TIP3    H136961   5.984   3.596   4.054 -0.1704 -1.2250 -0.4433
 5182TIP3    H236962   5.871   3.538   4.136 -0.6554 -0.1279 -0.3141
 5183TIP3   OH236963   3.931   1.763   6.307  0.6528  0.3372 -0.0471
 5183TIP3    H136964   3.892   1.679   6.331 -0.0489  0.0144 -2.1389
 5183TIP3    H236965   3.995   1.780   6.376  0.7196 -1.8429  0.5018
 5184TIP3   OH236966   5.393   4.850   3.906  0.1606 -0.2576 -0.1668
 5184TIP3    H136967   5.300   4.837   3.925  0.3029 -0.2308  0.5821
 5184TIP3    H236968   5.422   4.767   3.868 -0.2707 -0.1095 -0.8373
 5185TIP3   OH236969   6.804   1.585   6.450  0.0844  0.1700  0.6511
 5185TIP3    H136970   6.860   1.563   6.375 -0.6069 -0.5093  0.3241
 5185TIP3    H236971   6.766   1.501   6.476 -1.0925  0.6730  0.6179
 5186TIP3   OH236972   0.641   3.024  13.864 -0.3310  0.1273  0.1882
 5186TIP3    H136973   0.655   2.953  13.926 -0.3920 -1.4188 -1.4945
 5186TIP3    H236974   0.546   3.038  13.865 -0.3289  0.1263  0.4594
 5187TIP3   OH236975   4.988   2.321   4.490 -0.1906  0.0018  0.1911
 5187TIP3    H136976   5.058   2.256   4.504  1.5259  1.5798 -0.6820
 5187TIP3    H236977   5.012   2.365   4.409 -2.7922 -0.0504 -0.7097
 5188TIP3   OH236978   5.693   5.473  14.159 -0.6613  0.3615  0.2117
 5188TIP3    H136979   5.737   5.504  14.080 -1.3115  1.4269  0.2460
 5188TIP3    H236980   5.723   5.532  14.228  1.0377 -1.4379  1.1054
 5189TIP3   OH236981   1.965   0.424   3.235 -0.4002 -0.2270  0.5463
 5189TIP3    H136982   1.947   0.493   3.171 -0.0304 -0.5823  0.0439
 5189TIP3    H236983   1.879   0.398   3.267 -0.5388  0.4717  0.7472
 5190TIP3   OH236984   5.722   2.116   4.048  0.5275 -0.0624 -0.3276
 5190TIP3    H136985   5.773   2.146   3.973  0.1690  1.3689 -0.0320
 5190TIP3    H236986   5.764   2.035   4.075  0.8372 -0.4410 -1.8919
 5191TIP3   OH236987   5.650   1.110   6.628  0.4932 -0.5602  0.1311
 5191TIP3    H136988   5.651   1.145   6.539  3.0604 -1.2661 -0.2031
 5191TIP3    H236989   5.655   1.015   6.615  2.9915 -0.5920  0.9727
 5192TIP3   OH236990   4.681   6.443  15.523  0.1019  0.7090 -0.1592
 5192TIP3    H136991   4.768   6.405  15.512 -0.8890 -1.8065 -0.1837
 5192TIP3    H236992   4.659   6.480  15.438  1.0694  1.1926 -0.2006
 5193TIP3   OH236993   0.283   6.816  11.910  0.3110 -0.1533  0.0331
 5193TIP3    H136994   0.353   6.758  11.882  1.3219 -0.3817  2.7366
 5193TIP3    H236995   0.314   6.904  11.887  0.5568 -0.3893 -0.5553
 5194TIP3   OH236996   5.702   3.664   0.197 -0.0960 -0.4554  0.3066
 5194TIP3    H136997   5.727   3.578   0.230 -0.2198 -0.4514  0.4149
 5194TIP3    H236998   5.676   3.712   0.276 -0.5401 -0.4923  0.1843
 5195TIP3   OH236999   4.155   3.174  14.640 -0.5542  0.9718 -0.5890
 5195TIP3    H137000   4.241   3.172  14.681 -0.1456  0.0972 -1.4366
 5195TIP3    H237001   4.171   3.207  14.551 -1.2295  1.6673 -0.4581
 5196TIP3   OH237002   4.870   0.534   0.091  0.3273 -0.4956  0.0328
 5196TIP3    H137003   4.933   0.483   0.040  0.3580 -0.6957  0.2726
 5196TIP3    H237004   4.786   0.521   0.046  0.3644 -0.6298  0.0021
 5197TIP3   OH237005   1.742   5.353  11.920 -0.1701 -0.5542 -0.2221
 5197TIP3    H137006   1.700   5.394  11.996 -0.1145 -0.5446 -0.1968
 5197TIP3    H237007   1.836   5.364  11.936 -0.1535  1.6161 -1.4954
 5198TIP3   OH237008   0.658   5.092   0.112  0.5257 -0.5048  0.4262
 5198TIP3    H137009   0.724   5.160   0.119  0.7406 -0.8382  2.3452
 5198TIP3    H237010   0.592   5.115   0.178 -1.6316  0.1411 -1.8244
 5199TIP3   OH237011   6.154   0.238   5.412 -0.7769  0.1794 -0.1150
 5199TIP3    H137012   6.154   0.171   5.481  0.5789  0.5199  0.2532
 5199TIP3    H237013   6.107   0.197   5.340 -0.1254 -1.1228  0.1617
 5200TIP3   OH237014   6.565   0.908   0.912 -0.0955 -0.0815  0.3684
 5200TIP3    H137015   6.536   0.999   0.920 -1.3317 -0.2958 -1.1574
 5200TIP3    H237016   6.542   0.868   0.996  0.2825  0.9586  0.9858
 5201TIP3   OH237017   5.441   4.796  14.132 -0.2292  0.5562 -0.2990
 5201TIP3    H137018   5.515   4.855  14.147 -0.0542  0.1892  0.3283
 5201TIP3    H237019   5.378   4.848  14.082  0.5602  0.7883 -1.0822
 5202TIP3   OH237020   3.039   4.824  16.457 -0.1659  0.0814 -0.6246
 5202TIP3    H137021   2.977   4.807  16.528  1.0721  0.0631  0.4689
 5202TIP3    H237022   3.120   4.849  16.500  1.0396 -1.3009 -1.9754
 5203TIP3   OH237023   4.066   2.004  12.528  0.0047 -0.1146  0.3951
 5203TIP3    H137024   3.972   1.987  12.524 -0.2177  1.1542 -0.2092
 5203TIP3    H237025   4.105   1.935  12.473 -0.4732 -1.1815  1.3572
 5204TIP3   OH237026   2.126   4.246  16.280  0.5144 -0.2642 -0.2918
 5204TIP3    H137027   2.086   4.322  16.322  0.8305  0.2651 -0.9351
 5204TIP3    H237028   2.165   4.196  16.352 -0.1035 -0.0698  0.1837
 5205TIP3   OH237029   4.448   5.392   6.077  0.3608  0.7333  0.4057
 5205TIP3    H137030   4.515   5.460   6.086 -1.4161  2.4557  1.3674
 5205TIP3    H237031   4.417   5.377   6.166  0.7833 -1.4917  0.2400
 5206TIP3   OH237032   1.275   2.798   5.666  0.0907  0.6305  0.1886
 5206TIP3    H137033   1.354   2.777   5.715  0.6974  1.1698 -0.5490
 5206TIP3    H237034   1.209   2.813   5.734  0.4539 -0.3936  0.8020
 5207TIP3   OH237035   5.958   2.055   2.579 -0.3440 -0.2011  0.2127
 5207TIP3    H137036   5.895   1.994   2.542 -0.1942 -1.0535  1.2993
 5207TIP3    H237037   5.914   2.139   2.578 -1.5557 -0.7930  1.0278
 5208TIP3   OH237038   6.037   3.744   0.622 -0.8313 -0.1631 -0.4809
 5208TIP3    H137039   6.051   3.661   0.667  1.5261 -0.1148 -1.0193
 5208TIP3    H237040   5.997   3.801   0.688  3.3313  0.2102  2.0747
 5209TIP3   OH237041   1.274   3.888  16.628 -0.2332  0.5576 -0.1350
 5209TIP3    H137042   1.260   3.901  16.534  0.0305  0.7951 -0.1431
 5209TIP3    H237043   1.265   3.976  16.665  1.5550  0.7939 -0.1819
 5210TIP3   OH237044   3.179   4.514   4.719 -0.2510 -0.0092 -0.0897
 5210TIP3    H137045   3.090   4.550   4.725  0.0749  1.1761 -1.7386
 5210TIP3    H237046   3.225   4.550   4.795 -0.0718  2.8367 -1.4027
 5211TIP3   OH237047   2.065   5.870   1.956 -0.1216  0.5613  0.3678
 5211TIP3    H137048   2.154   5.835   1.967  0.2562  1.3731 -0.0519
 5211TIP3    H237049   2.012   5.819   2.017  0.8138  0.7859  1.3881
 5212TIP3   OH237050   2.160   3.333  16.040 -0.0476 -0.5573 -0.1268
 5212TIP3    H137051   2.093   3.378  15.988  1.1386  1.5713  0.0477
 5212TIP3    H237052   2.174   3.390  16.115  0.8243 -1.7735  0.6634
 5213TIP3   OH237053   0.198   3.466   3.627 -0.3468 -0.2856  0.1064
 5213TIP3    H137054   0.132   3.425   3.572  0.5351 -1.0452 -0.4190
 5213TIP3    H237055   0.275   3.473   3.570  0.4872 -0.7995  1.1530
 5214TIP3   OH237056   3.857   6.253  12.535 -0.1391 -0.1518 -0.2244
 5214TIP3    H137057   3.915   6.319  12.572  0.7205 -1.4219  0.7592
 5214TIP3    H237058   3.800   6.227  12.608 -0.7824 -0.1743 -0.7225
 5215TIP3   OH237059   5.710   2.670  14.158 -0.2299 -0.3205 -0.0767
 5215TIP3    H137060   5.790   2.701  14.200 -0.1141  1.4685 -1.5175
 5215TIP3    H237061   5.741   2.601  14.098 -0.0397 -0.9018  0.6667
 5216TIP3   OH237062   2.301   3.419  14.305 -0.0380 -0.0724 -0.0382
 5216TIP3    H137063   2.302   3.325  14.325 -2.1012  0.2204  1.7561
 5216TIP3    H237064   2.361   3.428  14.230  0.2711 -2.7825 -0.2158
 5217TIP3   OH237065   5.385   4.231  16.237  0.0998  0.3743 -0.4896
 5217TIP3    H137066   5.419   4.314  16.271 -0.1514  0.7344 -1.1171
 5217TIP3    H237067   5.450   4.203  16.172  0.2751 -0.0198 -0.1560
 5218TIP3   OH237068   0.755   0.103   4.932 -0.1984  0.3151  0.1874
 5218TIP3    H137069   0.723   0.176   4.879 -1.1262 -2.0034 -2.7396
 5218TIP3    H237070   0.676   0.067   4.973  0.0221  0.0554  0.3878
 5219TIP3   OH237071   1.998   3.675   0.814  0.5767 -0.1321 -0.2203
 5219TIP3    H137072   1.915   3.675   0.766  1.1075 -0.7503 -1.1594
 5219TIP3    H237073   1.973   3.667   0.906 -0.4670  1.1789 -0.3645
 5220TIP3   OH237074   6.365   0.360  14.905 -0.1343 -0.3250  0.0151
 5220TIP3    H137075   6.432   0.421  14.876  0.3227 -1.1072 -0.5955
 5220TIP3    H237076   6.396   0.329  14.990 -0.1588 -0.0277  0.1332
 5221TIP3   OH237077   1.164   6.437   6.404 -0.3414 -0.0180  0.0041
 5221TIP3    H137078   1.126   6.432   6.492  1.5807 -0.2161  0.8815
 5221TIP3    H237079   1.179   6.346   6.378  0.0478  0.0604 -0.0656
 5222TIP3   OH237080   2.662   3.465  16.081  0.2913 -0.1443  0.0091
 5222TIP3    H137081   2.722   3.430  16.016  0.8296 -1.3650  1.1117
 5222TIP3    H237082   2.578   3.472  16.036  0.2161 -2.6590 -0.3663
 5223TIP3   OH237083   0.733   0.132  16.916  0.4233  0.9711  0.2073
 5223TIP3    H137084   0.803   0.071  16.938  0.5220  1.9127  2.8022
 5223TIP3    H237085   0.653   0.092  16.951  0.4079  2.0525  1.4525
 5224TIP3   OH237086   3.274   3.480   2.636  0.5274 -0.4506  0.2425
 5224TIP3    H137087   3.351   3.534   2.653 -0.0822  0.4710  0.1029
 5224TIP3    H237088   3.309   3.392   2.624  1.7088  0.1823 -1.2180
 5225TIP3   OH237089   1.102   4.213   4.533  0.2467 -0.2964 -0.2896
 5225TIP3    H137090   1.148   4.231   4.614  0.4947  0.5903 -0.6076
 5225TIP3    H237091   1.164   4.163   4.480  0.3053 -0.3647 -0.1548
 5226TIP3   OH237092   3.184   0.714   2.411 -0.3915  0.1226  0.0825
 5226TIP3    H137093   3.162   0.728   2.503  1.2879  0.4740  0.4738
 5226TIP3    H237094   3.259   0.655   2.412 -0.8270 -0.5056 -1.1187
 5227TIP3   OH237095   6.690   1.192  14.873  0.2846 -0.1972 -0.6465
 5227TIP3    H137096   6.599   1.185  14.844 -0.6644  1.1391  1.7048
 5227TIP3    H237097   6.712   1.284  14.857  1.0398 -0.3836 -0.6889
 5228TIP3   OH237098   0.311   1.215  12.801 -0.3086  0.4811  0.0570
 5228TIP3    H137099   0.252   1.199  12.875 -1.7023  0.1140 -1.0773
 5228TIP3    H237100   0.321   1.129  12.760 -0.9677  0.9601 -1.1608
 5229TIP3   OH237101   2.644   0.150   2.919 -0.1430 -0.4948 -0.0082
 5229TIP3    H137102   2.700   0.072   2.919 -1.5602 -1.5484 -0.2819
 5229TIP3    H237103   2.566   0.125   2.968 -0.8254  0.6074 -0.4752
 5230TIP3   OH237104   5.600   1.381   0.224 -0.0787  0.4064 -0.2187
 5230TIP3    H137105   5.563   1.293   0.220  0.3769  0.2424 -1.2223
 5230TIP3    H237106   5.675   1.378   0.164  0.4526  1.2397  0.3827
 5231TIP3   OH237107   4.448   0.042  16.043 -0.1800 -0.0346  0.4111
 5231TIP3    H137108   4.372   0.003  16.087 -1.8028  2.2122 -0.1989
 5231TIP3    H237109   4.412   0.078  15.962  1.4539  1.4324  0.2792
 5232TIP3   OH237110   0.102   6.470   3.300  0.3991  1.2093 -0.7609
 5232TIP3    H137111   0.166   6.535   3.271  2.4124  0.1317  0.9794
 5232TIP3    H237112   0.040   6.520   3.353  0.8337  2.0061 -0.9752
 5233TIP3   OH237113   5.557   4.113  16.017  0.0954 -0.3288  0.5466
 5233TIP3    H137114   5.521   4.027  15.995  2.1218 -1.1448  0.2289
 5233TIP3    H237115   5.630   4.125  15.957 -1.1363  2.4049 -0.5691
 5234TIP3   OH237116   5.146   5.124   2.250 -0.6238  0.4621 -0.0431
 5234TIP3    H137117   5.176   5.158   2.166 -2.1568 -0.6647 -1.1081
 5234TIP3    H237118   5.056   5.156   2.258 -0.4315  0.7124  1.2715
 5235TIP3   OH237119   2.513   3.329  10.560 -0.2801  0.3758  0.3652
 5235TIP3    H137120   2.483   3.406  10.511 -2.1497 -0.6301 -0.1570
 5235TIP3    H237121   2.488   3.348  10.651  0.9802  1.1703  0.5740
 5236TIP3   OH237122   1.209   3.303   2.007  0.7701 -0.3476 -0.0709
 5236TIP3    H137123   1.278   3.350   1.960 -1.0576  3.2092  0.4215
 5236TIP3    H237124   1.249   3.280   2.091  1.4173  1.7521  0.2644
 5237TIP3   OH237125   5.423   2.793   0.236 -0.3634  0.7648  0.2788
 5237TIP3    H137126   5.447   2.838   0.155 -1.2729  0.2123 -0.3108
 5237TIP3    H237127   5.452   2.853   0.306  2.3875  0.3120 -0.3364
 5238TIP3   OH237128   0.459   4.848  12.635 -0.1853 -0.1032 -0.2475
 5238TIP3    H137129   0.375   4.885  12.609  0.3368  1.9602  0.8135
 5238TIP3    H237130   0.522   4.882  12.571  0.0581 -0.6667 -0.3234
 5239TIP3   OH237131   3.010   5.087  13.083  0.0309 -0.1158  0.1808
 5239TIP3    H137132   2.952   5.039  13.023 -0.2887  0.8275 -0.2834
 5239TIP3    H237133   3.070   5.020  13.117 -1.5975 -1.2275  1.0203
 5240TIP3   OH237134   0.401   3.697  11.152 -0.5677  0.0497  0.7927
 5240TIP3    H137135   0.395   3.717  11.059 -1.1427 -0.1996  0.7661
 5240TIP3    H237136   0.464   3.625  11.158 -0.8714 -0.2426  0.5393
 5241TIP3   OH237137   4.125   2.051   4.679  0.3267  0.6430  0.1270
 5241TIP3    H137138   4.033   2.075   4.673  0.3882  0.6565 -0.9015
 5241TIP3    H237139   4.173   2.134   4.671  0.4326  0.6376  0.6674
 5242TIP3   OH237140   1.070   1.685  15.982 -0.3063 -0.5507  0.1419
 5242TIP3    H137141   1.070   1.724  15.895 -0.6059  0.9138  0.7684
 5242TIP3    H237142   1.008   1.738  16.032 -1.1052 -2.1549  0.9216
 5243TIP3   OH237143   2.290   6.309  14.710  0.0792 -0.4227  0.0920
 5243TIP3    H137144   2.356   6.339  14.772  2.2101 -1.5756 -1.4823
 5243TIP3    H237145   2.290   6.214  14.717  1.5687 -0.7363 -2.6629
 5244TIP3   OH237146   4.334   6.682  15.570 -0.5837 -0.2312 -0.2944
 5244TIP3    H137147   4.399   6.752  15.563  0.4830 -0.9474  1.6179
 5244TIP3    H237148   4.250   6.726  15.558  0.1163  1.1672 -0.2927
 5245TIP3   OH237149   6.131   2.563   0.438 -0.0836  0.5007  0.2772
 5245TIP3    H137150   6.036   2.565   0.427  0.0480  0.7478 -0.8958
 5245TIP3    H237151   6.166   2.591   0.354  1.0322  0.7859  0.8150
 5246TIP3   OH237152   6.217   3.745   1.653  0.0047 -0.4279 -0.2014
 5246TIP3    H137153   6.264   3.670   1.688  0.5012 -0.4827 -0.9736
 5246TIP3    H237154   6.273   3.778   1.583 -1.7495 -1.3817 -2.1540
 5247TIP3   OH237155   0.590   2.826   0.351  0.3117 -0.0280  0.1774
 5247TIP3    H137156   0.643   2.825   0.430  0.4495 -0.6563  0.0859
 5247TIP3    H237157   0.643   2.873   0.286 -0.3648  1.6753  0.8234
 5248TIP3   OH237158   4.340   1.693   5.031  0.7801 -0.6285  0.6546
 5248TIP3    H137159   4.310   1.739   4.953 -0.9003 -1.7396  0.5943
 5248TIP3    H237160   4.376   1.610   4.998 -0.8537 -1.5516  1.0803
 5249TIP3   OH237161   3.921   6.264   0.791 -0.0588 -0.4155  0.2637
 5249TIP3    H137162   3.894   6.266   0.883 -3.1149 -1.2465 -0.5161
 5249TIP3    H237163   3.962   6.179   0.780 -0.9615 -0.8999  0.5698
 5250TIP3   OH237164   3.550   3.169   1.969  0.6296 -0.1631 -0.2651
 5250TIP3    H137165   3.607   3.093   1.967  0.1563 -0.5370  0.1672
 5250TIP3    H237166   3.475   3.144   1.914  0.8472  0.3016 -0.7845
 5251TIP3   OH237167   1.106   3.522   5.452  0.1535  0.4521  0.0360
 5251TIP3    H137168   1.157   3.568   5.386  1.9617 -1.6177 -0.1363
 5251TIP3    H237169   1.154   3.535   5.534 -0.2009  0.1994  0.2926
 5252TIP3   OH237170   2.932   5.908  16.366 -0.2251  0.2032 -0.2415
 5252TIP3    H137171   2.917   5.857  16.286 -1.6042  0.1220  0.0534
 5252TIP3    H237172   2.915   5.999  16.340 -0.7035  0.1728 -0.0395
 5253TIP3   OH237173   5.957   5.096   0.536 -0.5280  0.1822  0.3495
 5253TIP3    H137174   5.941   5.038   0.610  2.0065 -0.1350  0.7519
 5253TIP3    H237175   6.044   5.131   0.552 -0.2185  0.7086 -2.0883
 5254TIP3   OH237176   0.682   2.253  13.473 -0.1254  0.4779  0.3548
 5254TIP3    H137177   0.591   2.277  13.456  0.4418  1.1052 -2.3218
 5254TIP3    H237178   0.733   2.310  13.416  1.8638 -0.7585  0.7832
 5255TIP3   OH237179   3.376   6.087  11.275  0.1914  0.4132 -0.1405
 5255TIP3    H137180   3.440   6.124  11.214  0.1352  1.7964  0.5969
 5255TIP3    H237181   3.426   6.071  11.355 -0.2318  0.8548  0.2159
 5256TIP3   OH237182   4.676   4.150   1.942 -0.2057 -0.6165 -0.0494
 5256TIP3    H137183   4.583   4.139   1.964 -0.1283  1.2704  1.4273
 5256TIP3    H237184   4.723   4.114   2.018  0.1627  1.3762  0.7301
 5257TIP3   OH237185   0.320   4.071   4.768 -0.3842 -0.3245  0.4960
 5257TIP3    H137186   0.360   4.152   4.800  0.7983 -0.7685  0.1657
 5257TIP3    H237187   0.226   4.089   4.771 -0.1440  1.0621  0.4093
 5258TIP3   OH237188   3.576   5.321   0.185  0.4409 -0.8640  0.1672
 5258TIP3    H137189   3.659   5.327   0.234  0.6082  0.9701 -0.2667
 5258TIP3    H237190   3.583   5.390   0.119 -1.3389 -0.8433 -0.0289
 5259TIP3   OH237191   6.028   5.674   1.667 -0.4559  0.2511 -0.5549
 5259TIP3    H137192   6.034   5.644   1.758  0.9316  0.7601 -0.4524
 5259TIP3    H237193   5.977   5.606   1.623 -0.6336 -0.3140  0.4747
 5260TIP3   OH237194   6.342   0.790  16.888 -0.4568  0.2613 -0.0480
 5260TIP3    H137195   6.351   0.777  16.983  3.4627 -1.9563 -0.4656
 5260TIP3    H237196   6.294   0.713  16.858 -1.0903  0.6171  0.0337
 5261TIP3   OH237197   0.281   2.276   6.021  0.7659 -0.3217 -0.2072
 5261TIP3    H137198   0.319   2.363   6.012  0.9395 -0.3449  0.2939
 5261TIP3    H237199   0.355   2.216   6.010  0.5140 -0.4393 -1.3734
 5262TIP3   OH237200   3.182   3.321   0.157 -0.2002 -0.0681  0.3394
 5262TIP3    H137201   3.135   3.246   0.193  0.0462  0.1489  1.1408
 5262TIP3    H237202   3.168   3.391   0.220  0.1755  0.3542 -0.0318
 5263TIP3   OH237203   0.399   5.590  14.938  0.0243 -0.1448  0.3308
 5263TIP3    H137204   0.339   5.576  15.012  0.9834 -0.3591  1.0954
 5263TIP3    H237205   0.376   5.677  14.905 -2.9633 -1.5213 -1.5804
 5264TIP3   OH237206   1.275   0.601   3.498 -0.4147 -0.3130 -0.2081
 5264TIP3    H137207   1.293   0.696   3.496 -1.6233 -0.0261  1.1653
 5264TIP3    H237208   1.345   0.565   3.553 -0.6298 -0.0335  0.2579
 5265TIP3   OH237209   5.059   0.308  12.441 -0.2529 -0.1087  0.2383
 5265TIP3    H137210   5.107   0.279  12.363 -0.7603 -0.8243  0.1840
 5265TIP3    H237211   4.973   0.267  12.434 -0.9632  1.2987  0.2484
 5266TIP3   OH237212   1.763   0.734   0.457  0.3915 -0.0893 -0.3915
 5266TIP3    H137213   1.761   0.662   0.394 -0.9087 -0.7524  0.3574
 5266TIP3    H237214   1.764   0.813   0.403 -0.8062 -0.6332 -1.2638
 5267TIP3   OH237215   0.295   2.448   0.736  0.0300  0.1488  0.0234
 5267TIP3    H137216   0.349   2.501   0.793 -0.5940  0.4488  0.3419
 5267TIP3    H237217   0.312   2.482   0.648  2.3397 -1.4616 -0.2279
 5268TIP3   OH237218   0.584   2.454   0.085 -0.5268  0.4167  0.1081
 5268TIP3    H137219   0.574   2.462  -0.010  1.7691 -0.5910 -0.2793
 5268TIP3    H237220   0.566   2.542   0.119 -1.0274  0.8696 -1.2773
 5269TIP3   OH237221   3.994   4.075   4.586 -0.0572  0.3831 -0.7931
 5269TIP3    H137222   3.996   4.050   4.678 -1.5405  1.5357 -0.4172
 5269TIP3    H237223   4.068   4.134   4.575 -1.3200  2.2484  0.3128
 5270TIP3   OH237224   2.216   1.804  16.409  0.7703 -0.7394  0.6020
 5270TIP3    H137225   2.307   1.775  16.405  0.4196 -1.8322 -1.9750
 5270TIP3    H237226   2.165   1.723  16.410 -0.1651 -0.2182 -0.7540
 5271TIP3   OH237227   1.639   1.669  12.866  0.3730  0.3656  0.1217
 5271TIP3    H137228   1.630   1.617  12.786  0.6484  0.3988  0.0702
 5271TIP3    H237229   1.556   1.716  12.872  0.0062 -0.2954  0.3264
 5272TIP3   OH237230   2.989   1.232   5.327 -0.1136 -0.3884 -0.0654
 5272TIP3    H137231   3.000   1.226   5.232  1.2052 -0.8926  0.0936
 5272TIP3    H237232   2.895   1.224   5.342 -0.5120  1.1758 -1.4294
 5273TIP3   OH237233   1.836   4.380   3.193  0.5208  0.0793 -0.1990
 5273TIP3    H137234   1.769   4.447   3.208  0.2939 -0.3348  0.7220
 5273TIP3    H237235   1.899   4.422   3.134  0.0333  0.8654 -0.1770
 5274TIP3   OH237236   4.125   5.990  16.024 -0.1188  0.4002  0.5055
 5274TIP3    H137237   4.152   5.998  15.933 -0.2750  0.2619  0.4461
 5274TIP3    H237238   4.047   5.935  16.021 -3.6495  4.9008  0.0799
 5275TIP3   OH237239   5.058   6.659   3.186  0.0940 -0.6419 -0.3040
 5275TIP3    H137240   5.073   6.645   3.280  0.8489 -0.0756 -0.3293
 5275TIP3    H237241   4.992   6.728   3.183 -0.5145 -1.2125 -0.1926
 5276TIP3   OH237242   0.139   5.020   1.495 -0.5841  0.4124 -0.7720
 5276TIP3    H137243   0.059   5.033   1.547  0.8476  1.1551  1.3796
 5276TIP3    H237244   0.200   5.085   1.529  0.6279  0.6053 -3.1303
 5277TIP3   OH237245   3.644   3.920   4.194  0.0004  0.3903  0.3045
 5277TIP3    H137246   3.558   3.940   4.158 -0.1795  0.1395  0.5916
 5277TIP3    H237247   3.641   3.955   4.283  0.0990  0.1354  0.4074
 5278TIP3   OH237248   3.377   2.969   3.034 -0.4408 -0.4072  0.0774
 5278TIP3    H137249   3.323   2.904   2.990  0.0382 -0.4581 -0.4485
 5278TIP3    H237250   3.367   2.950   3.127  0.3182 -1.7469 -0.0948
 5279TIP3   OH237251   0.907   1.258  11.613 -0.2019 -0.8105  0.3182
 5279TIP3    H137252   0.969   1.266  11.686  1.1599 -0.4919 -0.8383
 5279TIP3    H237253   0.840   1.198  11.645 -0.4070  0.3881  2.3328
 5280TIP3   OH237254   4.777   1.491  16.851  0.0113  0.3864 -0.4493
 5280TIP3    H137255   4.740   1.403  16.860  1.8492 -0.7524 -2.9800
 5280TIP3    H237256   4.790   1.520  16.941  0.2492 -2.3421  0.5006
 5281TIP3   OH237257   4.542   4.949   5.464 -0.1283  0.6226  0.5140
 5281TIP3    H137258   4.588   4.865   5.463  0.7481  1.0545  2.0178
 5281TIP3    H237259   4.611   5.015   5.456 -0.6667  1.2403  0.7934
 5282TIP3   OH237260   5.653   4.764   3.182 -0.0498  0.4799  0.2752
 5282TIP3    H137261   5.662   4.722   3.268 -1.3631  1.4100  0.9028
 5282TIP3    H237262   5.697   4.848   3.192  2.6701 -0.6534 -1.0143
 5283TIP3   OH237263   6.651   3.776  11.663  0.5365  0.0218  0.1456
 5283TIP3    H137264   6.739   3.799  11.636  1.3313 -1.5717  1.1894
 5283TIP3    H237265   6.613   3.731  11.587  0.3393  1.2957 -0.5409
 5284TIP3   OH237266   5.272   0.033  14.922  0.0373  0.0665  0.3554
 5284TIP3    H137267   5.193   0.049  14.973  0.0078  2.4934 -0.3341
 5284TIP3    H237268   5.259   0.083  14.841  2.7468  1.5454  0.7160
 5285TIP3   OH237269   0.112   4.878   5.161  0.2350 -0.1146  0.6143
 5285TIP3    H137270   0.204   4.895   5.141  0.3685 -0.9824  0.4493
 5285TIP3    H237271   0.064   4.938   5.104  0.6820 -0.4296 -0.1121
 5286TIP3   OH237272   4.325   3.522  13.683 -0.1253  0.3760 -0.0416
 5286TIP3    H137273   4.406   3.491  13.643 -1.1096 -0.9451 -1.0846
 5286TIP3    H237274   4.286   3.578  13.616 -0.5551  0.2083  0.0711
 5287TIP3   OH237275   3.722   1.729   4.954  0.3081  0.1605 -0.5309
 5287TIP3    H137276   3.669   1.757   5.029  1.2184 -0.1746  0.2665
 5287TIP3    H237277   3.805   1.775   4.965  0.6033 -0.2222 -1.0930
 5288TIP3   OH237278   3.956   5.040  15.388 -0.0324 -0.1362  0.4472
 5288TIP3    H137279   3.938   5.132  15.371  0.1178 -0.5603 -2.3475
 5288TIP3    H237280   3.869   5.001  15.400 -0.1057  0.2719  1.4109
 5289TIP3   OH237281   5.075   3.651   4.401  0.1082 -0.5950 -0.4522
 5289TIP3    H137282   5.121   3.601   4.469  0.8827  1.5070  0.6368
 5289TIP3    H237283   4.982   3.645   4.426  0.3068 -0.5448  0.3296
 5290TIP3   OH237284   5.961   2.783  14.976 -0.0207 -0.8028 -0.4478
 5290TIP3    H137285   5.942   2.829  15.058  1.1886  1.1255 -1.1906
 5290TIP3    H237286   5.886   2.800  14.920 -1.1108 -2.5910  0.3936
 5291TIP3   OH237287   1.070   6.213  13.994  0.0222  0.2495 -0.3957
 5291TIP3    H137288   1.070   6.145  14.061  1.0139  1.3648  0.7874
 5291TIP3    H237289   1.005   6.184  13.930 -1.9903 -0.2239  1.7200
 5292TIP3   OH237290   5.566   3.249   4.602  0.3486 -1.0775  0.2527
 5292TIP3    H137291   5.481   3.205   4.602 -1.0197  1.3588  1.4041
 5292TIP3    H237292   5.586   3.262   4.695 -0.9360  3.3233  0.1773
 5293TIP3   OH237293   3.964   0.961   1.512  0.1214  0.2703  0.1871
 5293TIP3    H137294   3.915   1.027   1.562 -1.4422 -0.6382 -0.0752
 5293TIP3    H237295   3.959   0.882   1.566 -1.3069 -0.6410 -1.1871
 5294TIP3   OH237296   0.994   2.999   3.753  0.0621  0.2446 -0.0899
 5294TIP3    H137297   0.930   3.048   3.806 -0.3882  0.6349 -0.9775
 5294TIP3    H237298   1.062   2.973   3.816 -1.4713 -1.0912  1.0953
 5295TIP3   OH237299   5.493   4.592   4.114 -0.1240  0.7193  0.2255
 5295TIP3    H137300   5.451   4.590   4.028 -1.1173  0.0746  0.7132
 5295TIP3    H237301   5.565   4.654   4.104 -0.3259  0.7698 -1.0257
 5296TIP3   OH237302   4.195   4.157   0.643 -0.0852  0.0442  0.3519
 5296TIP3    H137303   4.226   4.078   0.685  1.2978  1.2523  1.7326
 5296TIP3    H237304   4.100   4.156   0.656  0.1107 -0.5210  1.9336
 5297TIP3   OH237305   5.994   4.017   0.677  0.4647 -0.1607 -0.1260
 5297TIP3    H137306   6.090   4.012   0.678  0.4324 -0.9483  0.4758
 5297TIP3    H237307   5.974   4.094   0.623  1.4695  0.8586  0.8962
 5298TIP3   OH237308   6.453   3.315   4.881  0.5950 -0.2497 -0.6769
 5298TIP3    H137309   6.432   3.396   4.835  1.0427  0.4477  0.3025
 5298TIP3    H237310   6.529   3.279   4.834  0.0215 -0.4486 -1.4864
 5299TIP3   OH237311   1.359   5.497   4.243  0.0774  0.1384 -0.0723
 5299TIP3    H137312   1.437   5.446   4.222  0.5646  0.5503  0.7041
 5299TIP3    H237313   1.362   5.572   4.183 -1.2437 -1.2574 -2.0280
 5300TIP3   OH237314   2.367   3.066  15.968 -0.3724 -0.3911  0.1099
 5300TIP3    H137315   2.304   3.062  15.897 -2.0354  0.7910  1.4497
 5300TIP3    H237316   2.417   3.146  15.952 -0.7895 -0.0915  0.3057
 5301TIP3   OH237317   3.648   2.914   1.887  0.7169  0.1749  0.0415
 5301TIP3    H137318   3.671   2.823   1.906 -0.0269 -0.0878 -0.2888
 5301TIP3    H237319   3.589   2.909   1.812  0.8917  0.9532 -0.1586
 5302TIP3   OH237320   1.210   0.814  16.558  0.0287  0.3391 -0.0086
 5302TIP3    H137321   1.231   0.906  16.546 -0.5739  0.2775 -1.8415
 5302TIP3    H237322   1.283   0.767  16.517  1.9280 -0.1747  3.5085
 5303TIP3   OH237323   1.750   6.011   1.049 -0.7229  0.5796  0.3725
 5303TIP3    H137324   1.806   5.995   1.125 -1.1706 -1.6895  0.2944
 5303TIP3    H237325   1.808   5.996   0.974 -0.7676  0.8803  0.2781
 5304TIP3   OH237326   4.366   0.205  12.090  0.1434 -0.4669 -0.0967
 5304TIP3    H137327   4.322   0.122  12.108 -0.7562 -0.0751 -0.4298
 5304TIP3    H237328   4.313   0.246  12.022  1.3033 -0.1891 -0.8507
 5305TIP3   OH237329   1.115   6.715   0.440 -0.2661  0.2898 -0.3336
 5305TIP3    H137330   1.110   6.802   0.401 -1.2357  1.1194  1.5069
 5305TIP3    H237331   1.207   6.690   0.430  0.5197  2.4147  0.8627
 5306TIP3   OH237332   0.097   2.855  13.473 -0.2705 -0.2758 -0.2110
 5306TIP3    H137333   0.072   2.805  13.395  0.8955 -0.7109 -0.3190
 5306TIP3    H237334   0.155   2.923  13.441 -0.2257 -0.1116  0.2101
 5307TIP3   OH237335   5.005   4.738  12.747 -0.2830 -0.0869 -0.4115
 5307TIP3    H137336   5.014   4.655  12.794 -2.5309 -0.6818 -0.9151
 5307TIP3    H237337   4.990   4.803  12.816  0.4180 -0.2653 -0.0836
 5308TIP3   OH237338   2.442   1.711   5.964  0.1593  0.7495 -0.0132
 5308TIP3    H137339   2.366   1.718   6.020 -0.1220  1.5896 -0.4838
 5308TIP3    H237340   2.514   1.686   6.022 -0.6337 -0.8924  0.2964
 5309TIP3   OH237341   3.919   6.030  16.463  0.3904 -0.4279  0.1471
 5309TIP3    H137342   3.981   6.100  16.480  0.0166  0.0480 -0.4003
 5309TIP3    H237343   3.853   6.039  16.532  0.2792 -0.1641  0.0071
 5310TIP3   OH237344   0.180   0.243   1.134  0.4021  0.8032  0.0697
 5310TIP3    H137345   0.138   0.280   1.056  0.6177 -0.5744 -0.7359
 5310TIP3    H237346   0.168   0.148   1.125  0.2117  0.6223  1.8616
 5311TIP3   OH237347   4.264   0.339  11.711 -0.2541 -0.2610 -0.0281
 5311TIP3    H137348   4.197   0.391  11.666 -0.9176 -2.5401 -1.8841
 5311TIP3    H237349   4.227   0.321  11.797 -0.7941  0.7664 -0.0264
 5312TIP3   OH237350   6.520   6.591  14.184  0.1195 -0.6855 -0.2446
 5312TIP3    H137351   6.574   6.605  14.106 -0.1193 -1.8746 -0.6405
 5312TIP3    H237352   6.581   6.556  14.249  0.3372  0.3848  0.1603
 5313TIP3   OH237353   0.780   6.474   5.296  0.2766 -0.2192  0.4180
 5313TIP3    H137354   0.807   6.495   5.206  0.7516  0.1996  0.6567
 5313TIP3    H237355   0.793   6.379   5.303 -1.1035 -0.4951 -0.4038
 5314TIP3   OH237356   4.661   2.514   4.892 -0.3019  0.2697 -1.1509
 5314TIP3    H137357   4.743   2.483   4.929 -1.0501 -0.3524  0.0602
 5314TIP3    H237358   4.680   2.602   4.861  0.7549  0.2179 -0.6799
 5315TIP3   OH237359   2.636   0.468   2.999 -0.1643  0.1727  0.3891
 5315TIP3    H137360   2.629   0.373   3.003  0.7506  0.1290  1.3516
 5315TIP3    H237361   2.730   0.485   2.989 -0.4081  0.9617 -0.7552
 5316TIP3   OH237362   2.258   5.511  16.975  0.0698 -0.2026 -0.1224
 5316TIP3    H137363   2.296   5.541  17.058 -1.4467 -0.1085  0.5607
 5316TIP3    H237364   2.185   5.570  16.958  0.4692 -0.0946 -1.6546
 5317TIP3   OH237365   0.756   5.552   1.557 -0.2584 -0.4361  0.3134
 5317TIP3    H137366   0.819   5.513   1.497  0.4488  0.3101  0.5649
 5317TIP3    H237367   0.807   5.572   1.636 -0.6483  0.8274  0.2582
 5318TIP3   OH237368   0.064   2.030   1.949 -0.1685  0.3805  0.4594
 5318TIP3    H137369  -0.010   2.040   1.889 -0.4824  2.0813  1.0857
 5318TIP3    H237370   0.139   2.013   1.892 -0.4619  1.9414 -0.4365
 5319TIP3   OH237371   0.929   2.293  10.974  0.1303 -0.2306  0.2839
 5319TIP3    H137372   0.960   2.344  10.899 -1.8362  0.0578 -0.3716
 5319TIP3    H237373   0.846   2.256  10.946 -0.2797 -0.7611  2.0700
 5320TIP3   OH237374   0.483   1.663  13.025  0.0428  0.1480  0.3556
 5320TIP3    H137375   0.510   1.677  12.935 -0.0507  0.3607  0.3602
 5320TIP3    H237376   0.425   1.586  13.021  0.9729 -0.5754  0.4136
 5321TIP3   OH237377   0.635   2.253  11.483 -0.9347  0.6255  0.5718
 5321TIP3    H137378   0.610   2.339  11.516  0.8242  0.6467  1.9839
 5321TIP3    H237379   0.731   2.256  11.480 -0.8526 -1.2319  0.4685
 5322TIP3   OH237380   1.843   3.743   3.682 -0.5917  0.0907  0.0364
 5322TIP3    H137381   1.821   3.756   3.590 -1.6209 -1.8917 -0.0643
 5322TIP3    H237382   1.938   3.738   3.684 -0.5019  1.1059 -0.7444
 5323TIP3   OH237383   3.436   2.535   3.919  0.2025  0.8701  0.0018
 5323TIP3    H137384   3.345   2.511   3.939  0.2400  0.0242 -0.7656
 5323TIP3    H237385   3.448   2.620   3.961 -1.2091  1.4024 -0.5881
 5324TIP3   OH237386   4.782   3.841  14.052 -0.1719  0.4180  0.4538
 5324TIP3    H137387   4.793   3.873  14.142  1.6940 -0.2402  0.4919
 5324TIP3    H237388   4.846   3.891  14.001  0.4954 -0.9190 -0.0572
 5325TIP3   OH237389   2.584   5.936   3.049 -0.3001  0.3178  0.0462
 5325TIP3    H137390   2.521   5.890   2.994  1.2588 -2.2990  0.2554
 5325TIP3    H237391   2.662   5.945   2.993 -0.5016  2.8204  0.0343
 5326TIP3   OH237392   4.633   3.551  11.482 -0.4377  0.1769 -0.1060
 5326TIP3    H137393   4.705   3.595  11.528  1.5734 -3.6433  0.8048
 5326TIP3    H237394   4.630   3.594  11.397  1.3549  1.9798  0.6296
 5327TIP3   OH237395   4.316   6.568   1.039 -0.2297 -0.7748 -0.0245
 5327TIP3    H137396   4.280   6.601   1.121  1.0785  0.2892  0.1398
 5327TIP3    H237397   4.349   6.645   0.994  0.4508 -1.5355 -0.8604
 5328TIP3   OH237398   5.238   6.439  12.305  0.5353  0.3721  0.4052
 5328TIP3    H137399   5.246   6.514  12.245 -0.2905  0.6436  0.6271
 5328TIP3    H237400   5.152   6.401  12.285  1.0124 -0.6232  0.1856
 5329TIP3   OH237401   2.867   3.403  11.584  0.3032  0.0578  0.2835
 5329TIP3    H137402   2.913   3.352  11.518  1.0865  1.5291 -0.3314
 5329TIP3    H237403   2.931   3.415  11.654 -0.6183 -1.7813  1.5439
 5330TIP3   OH237404   2.135   3.573  16.903 -0.1129  0.0145  0.1320
 5330TIP3    H137405   2.099   3.593  16.816  1.1658  0.0388 -0.4150
 5330TIP3    H237406   2.159   3.481  16.898  0.3470  0.1201  0.3041
 5331TIP3   OH237407   6.172   3.026  14.069 -0.0232 -0.0474 -0.4261
 5331TIP3    H137408   6.137   2.983  13.991 -0.9849 -0.5149  0.2352
 5331TIP3    H237409   6.145   3.117  14.061  0.1477 -0.0249 -0.7793
 5332TIP3   OH237410   6.195   6.185  16.748 -0.6742  0.0580 -0.6033
 5332TIP3    H137411   6.149   6.102  16.761 -1.7033  0.6220 -0.4564
 5332TIP3    H237412   6.278   6.174  16.794 -3.2201  1.2155  5.3026
 5333TIP3   OH237413   6.217   4.660  15.718  0.1647  0.2070 -0.0041
 5333TIP3    H137414   6.306   4.679  15.687  0.0840  0.2754 -0.1885
 5333TIP3    H237415   6.163   4.729  15.681  0.3261  1.2770  1.6134
 5334TIP3   OH237416   3.257   5.715   3.029 -0.3837  0.8110  0.2037
 5334TIP3    H137417   3.272   5.775   3.103  3.3595 -2.5272  2.5621
 5334TIP3    H237418   3.171   5.677   3.046 -0.1998  1.1378  2.1039
 5335TIP3   OH237419   0.007   4.579   0.698 -0.0418  0.5274  0.0519
 5335TIP3    H137420   0.030   4.491   0.727 -0.5443  0.1786 -0.5741
 5335TIP3    H237421   0.006   4.574   0.602  0.3010  1.3129 -0.0028
 5336TIP3   OH237422   1.376   3.489   0.937 -0.0862  0.0172 -0.0366
 5336TIP3    H137423   1.352   3.560   0.878 -2.1641 -0.9676 -0.4607
 5336TIP3    H237424   1.293   3.462   0.978  1.0894 -0.1761  2.4186
 5337TIP3   OH237425   4.100   0.445  10.278 -0.4343  0.2382  0.1211
 5337TIP3    H137426   4.068   0.518  10.331  1.6409  1.2819  0.0356
 5337TIP3    H237427   4.029   0.427  10.216 -0.8279  2.5635 -0.2008
 5338TIP3   OH237428   6.334   4.752   3.683  0.3667 -0.4308  0.6025
 5338TIP3    H137429   6.357   4.824   3.742 -0.3231 -2.3715  3.4112
 5338TIP3    H237430   6.239   4.755   3.677  0.4300 -0.1081 -0.7222
 5339TIP3   OH237431   2.022   3.971  16.597  0.1696  0.2364 -0.1500
 5339TIP3    H137432   1.973   3.930  16.668 -0.9038 -0.7391 -1.3817
 5339TIP3    H237433   1.954   3.999  16.535  1.1171 -0.2127 -1.4381
 5340TIP3   OH237434   4.029   6.559   2.729 -0.3067  0.3154 -0.0967
 5340TIP3    H137435   4.008   6.617   2.803 -2.0533 -1.7290  1.1207
 5340TIP3    H237436   4.034   6.472   2.768  1.4710 -0.5132 -1.9945
 5341TIP3   OH237437   0.860   1.892   5.520 -0.4093 -0.2232  0.1354
 5341TIP3    H137438   0.781   1.947   5.516 -0.5328 -0.4652 -0.9411
 5341TIP3    H237439   0.849   1.841   5.601 -1.4056 -0.3316 -0.0505
 5342TIP3   OH237440   6.017   6.618  12.556  0.8507 -0.3443 -0.4860
 5342TIP3    H137441   6.087   6.608  12.621  0.2153  0.0193  0.2830
 5342TIP3    H237442   6.048   6.686  12.497  1.1788 -0.2234 -0.1802
 5343TIP3   OH237443   4.306   2.119  13.699 -0.2688 -0.4426 -0.1987
 5343TIP3    H137444   4.318   2.105  13.793 -0.8122 -1.5556 -0.2874
 5343TIP3    H237445   4.329   2.035  13.659  2.8743  0.8003 -1.3689
 5344TIP3   OH237446   5.299   2.799   1.762  0.0598 -0.6812 -0.0923
 5344TIP3    H137447   5.302   2.708   1.792 -0.7774 -0.0836  2.0081
 5344TIP3    H237448   5.339   2.849   1.833 -1.0008  0.7429 -0.4421
 5345TIP3   OH237449   3.692   1.419  12.466  0.1075  0.1444  0.1232
 5345TIP3    H137450   3.602   1.435  12.493  0.4725  1.2243  0.7876
 5345TIP3    H237451   3.710   1.329  12.492 -0.1527  0.5667  1.8539
 5346TIP3   OH237452   3.772   2.106   2.585 -0.2167  0.5050 -0.0446
 5346TIP3    H137453   3.849   2.154   2.558 -0.0863  0.5925  0.4662
 5346TIP3    H237454   3.796   2.068   2.670 -0.4537 -0.1264 -0.2485
 5347TIP3   OH237455   0.169   1.650  10.906 -0.2718 -0.2194 -0.0023
 5347TIP3    H137456   0.227   1.642  10.982 -1.8918 -1.8394  1.1583
 5347TIP3    H237457   0.208   1.592  10.840  1.9134  2.2245 -1.0700
 5348TIP3   OH237458   1.667   4.389  10.825 -0.2564  0.1520  0.3101
 5348TIP3    H137459   1.586   4.379  10.776  1.8454 -1.8649 -3.1813
 5348TIP3    H237460   1.653   4.339  10.905 -2.8014  0.9049  0.4282
 5349TIP3   OH237461   4.263   5.871  10.873 -0.2650 -0.0747 -0.9246
 5349TIP3    H137462   4.329   5.902  10.935  1.6818 -0.4222 -2.7134
 5349TIP3    H237463   4.210   5.949  10.854  0.4632  0.5532 -0.4672
 5350TIP3   OH237464   3.276   1.190  13.552 -0.2072  0.0600 -0.5013
 5350TIP3    H137465   3.318   1.252  13.493  0.1981 -0.1174 -0.4030
 5350TIP3    H237466   3.311   1.211  13.638  0.0445 -0.3979 -0.4884
 5351TIP3   OH237467   5.394   4.750  13.461 -0.1215 -0.4831 -0.4762
 5351TIP3    H137468   5.469   4.772  13.407 -1.0999 -0.2576 -1.7875
 5351TIP3    H237469   5.372   4.660  13.436 -1.4441  0.0945 -1.5602
 5352TIP3   OH237470   2.930   3.592   5.458 -0.4336 -0.2064  0.3428
 5352TIP3    H137471   2.926   3.498   5.473 -0.0797 -0.4633 -1.0835
 5352TIP3    H237472   2.934   3.630   5.546  0.6589 -1.5825  0.9185
 5353TIP3   OH237473   0.663   5.603   2.575  0.3487  0.1438 -0.2597
 5353TIP3    H137474   0.685   5.645   2.492  1.0849 -0.4817 -0.3841
 5353TIP3    H237475   0.600   5.663   2.616  0.3164  0.6695 -1.0651
 5354TIP3   OH237476   2.475   2.298  16.405  1.0829 -0.6539 -0.4599
 5354TIP3    H137477   2.468   2.205  16.426  0.0375 -0.2358  1.1926
 5354TIP3    H237478   2.426   2.342  16.474 -0.4161  0.9989 -2.4455
 5355TIP3   OH237479   0.933   4.330  14.834 -0.9365 -0.8995 -0.1789
 5355TIP3    H137480   0.879   4.370  14.902  0.3373 -0.8642  0.8513
 5355TIP3    H237481   0.883   4.342  14.753 -1.1655  1.6616  0.2651
 5356TIP3   OH237482   3.714   0.936   6.581 -0.1378  0.1476 -0.4281
 5356TIP3    H137483   3.739   0.844   6.584  1.5149  0.5511  2.3790
 5356TIP3    H237484   3.640   0.944   6.641  1.4565  0.9852  1.5417
 5357TIP3   OH237485   0.754   5.124   1.223 -0.2199  0.1239 -0.3503
 5357TIP3    H137486   0.709   5.160   1.147  2.5784  2.2783 -1.1556
 5357TIP3    H237487   0.842   5.103   1.191  0.0218 -2.2121  1.5294
 5358TIP3   OH237488   0.536   3.586  13.365 -0.0606 -0.4960  0.0715
 5358TIP3    H137489   0.544   3.676  13.396 -0.4929 -1.0734  1.9755
 5358TIP3    H237490   0.623   3.564  13.332  0.2619  0.3557  0.3420
 5359TIP3   OH237491   2.936   5.510   2.795 -0.1075  0.1546  0.3775
 5359TIP3    H137492   2.931   5.547   2.883 -0.0019  2.3211 -0.4680
 5359TIP3    H237493   3.029   5.505   2.777 -0.1320 -0.2262  0.3467
 5360TIP3   OH237494   5.225   3.389   4.486 -0.2486 -0.3758  0.1027
 5360TIP3    H137495   5.273   3.446   4.425 -0.5536  1.6358  1.6299
 5360TIP3    H237496   5.260   3.302   4.470  1.7641  0.5472 -0.9183
 5361TIP3   OH237497   1.247   3.189   5.763 -0.2737  1.2548 -0.8830
 5361TIP3    H137498   1.176   3.193   5.826 -1.7360  0.4671 -2.3823
 5361TIP3    H237499   1.314   3.249   5.797 -0.6685  0.3227  1.7205
 5362TIP3   OH237500   4.597   6.162  15.949  0.1678 -0.4171  0.4331
 5362TIP3    H137501   4.522   6.200  15.902  0.0965 -0.9238  0.1278
 5362TIP3    H237502   4.595   6.204  16.035  0.7774  1.1393 -0.2780
 5363TIP3   OH237503   6.323   3.246   2.242 -0.0052  0.5743  0.2825
 5363TIP3    H137504   6.338   3.262   2.335  0.1872  3.7293 -0.1897
 5363TIP3    H237505   6.254   3.180   2.240 -0.7905  1.2255  2.6845
 5364TIP3   OH237506   5.849   5.578  11.421  0.2028 -0.6905 -0.3683
 5364TIP3    H137507   5.880   5.576  11.330 -0.8931  0.0019 -0.7776
 5364TIP3    H237508   5.925   5.553  11.473  1.3177  0.4934 -1.3744
 5365TIP3   OH237509   1.268   1.789   0.528 -0.3005  0.0988 -0.0955
 5365TIP3    H137510   1.303   1.759   0.444  1.0890 -1.0318  0.8594
 5365TIP3    H237511   1.326   1.860   0.554 -0.5860  0.2837  0.0394
 5366TIP3   OH237512   0.836   3.695  14.133  0.0364  0.2308  0.0108
 5366TIP3    H137513   0.917   3.742  14.152 -0.7224  1.3392  0.5958
 5366TIP3    H237514   0.856   3.604  14.155  0.3539  0.8552  2.7951
 5367TIP3   OH237515   0.311   0.562  14.612  0.3104 -0.0862  0.3864
 5367TIP3    H137516   0.279   0.552  14.523  0.7806  1.7190 -0.0160
 5367TIP3    H237517   0.281   0.648  14.639  0.7583 -0.3245  1.7307
 5368TIP3   OH237518   6.712   3.370  11.395 -0.6967  0.4066 -0.8711
 5368TIP3    H137519   6.752   3.316  11.326 -0.3457 -0.0203 -0.3441
 5368TIP3    H237520   6.681   3.448  11.349  0.0786  0.4079 -1.4142
 5369TIP3   OH237521   0.729   5.917  16.931 -0.5090 -0.3422  0.7823
 5369TIP3    H137522   0.739   5.926  17.026 -0.7707  0.8663  0.7133
 5369TIP3    H237523   0.813   5.946  16.895  0.0504 -1.9996  0.6693
 5370TIP3   OH237524   6.751   4.158  11.483 -0.3096  0.1969 -0.4678
 5370TIP3    H137525   6.837   4.147  11.443 -0.3064 -2.9568  0.1414
 5370TIP3    H237526   6.694   4.097  11.435 -1.3937 -0.1861  1.2011
 5371TIP3   OH237527   5.231   0.328  15.392 -0.0304  0.0151 -0.5113
 5371TIP3    H137528   5.240   0.311  15.299 -0.0084 -1.5964 -0.2363
 5371TIP3    H237529   5.297   0.395  15.410  1.0318 -0.7553 -1.3737
 5372TIP3   OH237530   1.761   4.479   1.589 -0.1380  0.2917 -0.0870
 5372TIP3    H137531   1.825   4.548   1.575  0.1426  0.0651  0.0797
 5372TIP3    H237532   1.706   4.481   1.511 -0.9913  1.6226  0.5024
 5373TIP3   OH237533   0.467   4.273  14.492 -0.0733  0.2220 -0.0431
 5373TIP3    H137534   0.504   4.243  14.409  0.0366  1.1672 -0.3401
 5373TIP3    H237535   0.416   4.198  14.523 -0.4681 -0.0087 -1.1770
 5374TIP3   OH237536   0.671   1.625  15.700  0.2554  0.6547 -0.3818
 5374TIP3    H137537   0.640   1.691  15.638  0.8676 -0.3609 -1.8287
 5374TIP3    H237538   0.710   1.676  15.771 -1.3046  1.8730 -0.3385
 5375TIP3   OH237539   5.896   4.046   5.608 -0.0322  0.1382  0.3345
 5375TIP3    H137540   5.843   4.123   5.630 -0.2371  0.2972 -0.6696
 5375TIP3    H237541   5.939   4.023   5.690 -0.9523  0.5537  0.9588
 5376TIP3   OH237542   4.822   6.164  14.100 -0.0903 -0.0104  0.9211
 5376TIP3    H137543   4.916   6.183  14.093 -0.4810  2.6135  1.8498
 5376TIP3    H237544   4.786   6.184  14.014  0.4599 -3.4493 -0.2619
 5377TIP3   OH237545   1.377   4.468  14.599  0.1516  0.1147 -0.3438
 5377TIP3    H137546   1.355   4.505  14.513  2.5416  0.5622 -0.8315
 5377TIP3    H237547   1.351   4.536  14.661  0.3162  0.6831 -0.8891
 5378TIP3   OH237548   6.036   3.266  14.110  0.2489 -0.6255  0.2396
 5378TIP3    H137549   6.106   3.310  14.158  0.8733  1.4699 -2.3489
 5378TIP3    H237550   5.958   3.278  14.164  0.6762  2.6310  0.3196
 5379TIP3   OH237551   6.633   6.127  16.107  0.1911 -0.0891 -0.3386
 5379TIP3    H137552   6.670   6.042  16.086  1.9535  0.6828 -0.5457
 5379TIP3    H237553   6.705   6.189  16.093 -0.8327  1.3580  0.4689
 5380TIP3   OH237554   2.870   2.838   0.067 -0.7110 -0.0457 -0.6374
 5380TIP3    H137555   2.799   2.902   0.067 -1.1344 -0.5019 -1.2095
 5380TIP3    H237556   2.890   2.825  -0.026  0.2034  0.1640 -0.4807
 5381TIP3   OH237557   2.816   6.123   0.259  0.6258 -0.2907 -0.2208
 5381TIP3    H137558   2.793   6.036   0.228 -0.4127  0.0578 -0.4607
 5381TIP3    H237559   2.835   6.173   0.179 -1.7216  0.5135 -0.3553
 5382TIP3   OH237560   4.379   4.058  13.602  0.3458  0.2153  0.0504
 5382TIP3    H137561   4.453   4.026  13.550 -0.4006  0.3227 -1.1016
 5382TIP3    H237562   4.319   3.984  13.606  0.3696  0.2239  0.7440
 5383TIP3   OH237563   0.504   2.241   1.429 -0.8723  0.4485  0.2624
 5383TIP3    H137564   0.441   2.210   1.364 -0.8604  1.2415 -0.1469
 5383TIP3    H237565   0.583   2.189   1.413 -0.3929  1.5958 -1.3316
 5384TIP3   OH237566   3.275   3.914   4.345  0.2756  0.4076  0.2264
 5384TIP3    H137567   3.340   3.855   4.382 -0.6088  0.4363  1.9132
 5384TIP3    H237568   3.192   3.866   4.352  0.1093  0.2262 -2.2175
 5385TIP3   OH237569   3.147   3.157   1.513  0.5677 -0.4784  0.4782
 5385TIP3    H137570   3.103   3.142   1.597 -0.5360 -1.6584 -0.2695
 5385TIP3    H237571   3.174   3.249   1.516 -0.4534 -0.1894  1.6755
 5386TIP3   OH237572   1.786   4.082   4.300  0.1136  0.3696  0.0285
 5386TIP3    H137573   1.817   4.116   4.384 -0.4942 -0.9741  0.8297
 5386TIP3    H237574   1.856   4.103   4.238  0.5361  1.4569  0.8316
 5387TIP3   OH237575   4.335   5.652  15.254 -0.2030  0.0947 -0.7915
 5387TIP3    H137576   4.328   5.748  15.256  0.8252  0.2547 -2.5641
 5387TIP3    H237577   4.338   5.627  15.347  1.0889  1.9232 -0.2666
 5388TIP3   OH237578   3.775   1.875   5.660 -0.2277 -0.0779  0.6405
 5388TIP3    H137579   3.844   1.896   5.597 -2.4620  0.8808 -1.7007
 5388TIP3    H237580   3.766   1.953   5.714 -0.1692  0.2190  0.2298
 5389TIP3   OH237581   1.316   3.222  14.844 -0.2155  0.2164  0.1366
 5389TIP3    H137582   1.283   3.144  14.889  0.8224  0.7775  1.9938
 5389TIP3    H237583   1.408   3.201  14.824  0.3557  1.2695  1.5140
 5390TIP3   OH237584   6.020   4.798   4.043 -0.2720 -0.1428 -0.1678
 5390TIP3    H137585   5.961   4.873   4.034  0.8579  0.6635 -1.1337
 5390TIP3    H237586   6.010   4.749   3.961  1.5493  0.8872 -1.0539
 5391TIP3   OH237587   5.654   1.332  15.058 -0.4996 -0.1252 -0.3650
 5391TIP3    H137588   5.622   1.408  15.106  0.3924 -0.6407  1.1152
 5391TIP3    H237589   5.746   1.349  15.043  0.2611 -1.7620  1.8827
 5392TIP3   OH237590   3.857   3.414   3.406 -0.4027 -0.3567 -0.2696
 5392TIP3    H137591   3.850   3.369   3.322  1.1975  0.7449 -1.0306
 5392TIP3    H237592   3.785   3.478   3.405 -0.4703 -0.4380 -0.7332
 5393TIP3   OH237593   0.454   1.014   5.659  0.0573  0.4885 -0.0956
 5393TIP3    H137594   0.450   1.069   5.738  3.3453  0.8470 -0.0370
 5393TIP3    H237595   0.465   0.925   5.693  0.9530  0.5798 -0.1322
 5394TIP3   OH237596   2.638   1.360  16.754 -0.1185  0.0211 -0.3249
 5394TIP3    H137597   2.611   1.452  16.760 -1.2021 -0.3638  1.2976
 5394TIP3    H237598   2.577   1.322  16.691 -0.1467  0.2511 -0.4383
 5395TIP3   OH237599   0.966   1.227   1.949  0.0769  0.3538  0.3992
 5395TIP3    H137600   0.963   1.132   1.934  1.3058  0.6807 -2.4700
 5395TIP3    H237601   0.881   1.247   1.989 -1.9576 -1.4625 -2.5890
 5396TIP3   OH237602   3.054   5.606   0.515  0.0908 -0.8080 -0.0943
 5396TIP3    H137603   3.022   5.664   0.584  0.1629 -0.8875  0.0052
 5396TIP3    H237604   3.001   5.527   0.522  1.1726 -1.4866  0.9368
 5397TIP3   OH237605   3.040   0.089   1.128  0.4159  0.2296  0.0269
 5397TIP3    H137606   3.123   0.105   1.174 -0.1785  1.3194  0.7605
 5397TIP3    H237607   2.977   0.145   1.173 -0.3940  0.5933 -1.5223
 5398TIP3   OH237608   6.369   5.711   0.049 -0.3673 -0.6920 -0.4629
 5398TIP3    H137609   6.447   5.668   0.083 -1.0471 -0.8499  0.9527
 5398TIP3    H237610   6.346   5.776   0.115 -0.9047  0.0061 -1.3108
 5399TIP3   OH237611   0.429   0.970   0.496  0.7550 -0.1877 -0.3288
 5399TIP3    H137612   0.368   1.043   0.490  1.0436  0.0102 -1.0613
 5399TIP3    H237613   0.507   1.008   0.537  0.9578 -0.0440 -0.8421
 5400TIP3   OH237614   2.193   4.422  13.774  0.0042 -0.4404 -0.2780
 5400TIP3    H137615   2.216   4.361  13.844 -0.9399  0.5865  1.0013
 5400TIP3    H237616   2.276   4.464  13.751  0.1457  0.2548  1.3185
 5401TIP3   OH237617   1.042   4.788   2.629  0.3514  0.2899 -0.3344
 5401TIP3    H137618   1.119   4.758   2.678  1.2246 -0.2164 -1.9550
 5401TIP3    H237619   0.968   4.766   2.686  1.3165 -0.2684  0.7636
 5402TIP3   OH237620   2.399   4.144  12.865  0.0498 -0.3079 -0.5096
 5402TIP3    H137621   2.324   4.178  12.817 -0.4649  1.2813  1.3207
 5402TIP3    H237622   2.465   4.129  12.798 -0.7360  1.5408 -1.7768
 5403TIP3   OH237623   3.412   2.743  14.113  0.3483 -0.4717 -0.1938
 5403TIP3    H137624   3.472   2.669  14.112  1.3284  0.2020  2.0637
 5403TIP3    H237625   3.424   2.783  14.199 -1.8297  0.9530 -0.4547
 5404TIP3   OH237626   1.934   5.924  16.606 -0.0749 -0.0927 -0.0012
 5404TIP3    H137627   1.993   5.996  16.588  0.2181  0.2378  2.0573
 5404TIP3    H237628   1.881   5.953  16.681 -0.7493 -1.5537  0.1380
 5405TIP3   OH237629   2.635   0.740   5.162  0.4623  0.0183  0.7002
 5405TIP3    H137630   2.590   0.699   5.088  1.0003 -0.6432  0.7333
 5405TIP3    H237631   2.565   0.783   5.211  0.2982  1.9328 -1.0969
 5406TIP3   OH237632   2.524   0.870  15.767  0.3015  0.5880 -0.4329
 5406TIP3    H137633   2.584   0.854  15.694  0.0253  1.3585 -0.8477
 5406TIP3    H237634   2.566   0.937  15.819  0.7075 -0.2849  0.3859
 5407TIP3   OH237635   2.384   1.916  11.449  0.2123 -0.7183  0.2927
 5407TIP3    H137636   2.461   1.885  11.497 -2.7383 -2.1077  4.8434
 5407TIP3    H237637   2.338   1.837  11.423 -1.0948 -0.0338  0.4053
 5408TIP3   OH237638   4.423   5.610   5.497 -0.0750 -0.5037  0.7679
 5408TIP3    H137639   4.351   5.576   5.550 -0.0923 -0.5546  0.7116
 5408TIP3    H237640   4.498   5.555   5.520 -0.2631 -1.0178  0.1760
 5409TIP3   OH237641   0.294   4.398   1.179 -0.1291  0.2623  0.0451
 5409TIP3    H137642   0.354   4.378   1.251  0.2690  0.7340 -0.1495
 5409TIP3    H237643   0.233   4.462   1.215  1.2950  2.0552 -0.5870
 5410TIP3   OH237644   5.949   5.115   5.457 -0.6922  0.4046 -0.1142
 5410TIP3    H137645   5.997   5.100   5.538  0.2078 -0.5119 -0.7861
 5410TIP3    H237646   5.930   5.208   5.457  2.6282  1.2326 -0.5936
 5411TIP3   OH237647   3.997   6.615   5.429 -0.8049  0.8177 -0.6591
 5411TIP3    H137648   4.030   6.525   5.424  1.2224  1.5623 -1.5666
 5411TIP3    H237649   3.943   6.625   5.350 -1.1858  0.3762 -0.4648
 5412TIP3   OH237650   3.689   2.066   4.903 -0.1866  1.1700 -0.7182
 5412TIP3    H137651   3.759   2.077   4.838 -0.7238  4.2763 -0.9235
 5412TIP3    H237652   3.629   2.003   4.862  1.0472  0.6301 -1.8004
 5413TIP3   OH237653   6.071   2.204  15.774 -0.1120 -0.2780  1.0564
 5413TIP3    H137654   6.053   2.200  15.681  1.1461  0.9345  0.7209
 5413TIP3    H237655   6.110   2.119  15.795  0.1166 -0.3475  0.3570
 5414TIP3   OH237656   1.019   2.039  14.466  0.0994 -0.8133  0.1320
 5414TIP3    H137657   0.966   2.096  14.410  2.6747  2.2908  0.5659
 5414TIP3    H237658   1.054   1.972  14.407  0.6277  0.7939 -1.4433
 5415TIP3   OH237659   0.973   0.902   2.585  0.3122  0.3865  0.5020
 5415TIP3    H137660   0.880   0.896   2.564  0.2767  1.9603  0.0852
 5415TIP3    H237661   0.984   0.991   2.619  1.8729  0.6752 -0.6489
 5416TIP3   OH237662   2.789   2.582   6.594 -0.5638 -0.1948  0.0735
 5416TIP3    H137663   2.802   2.500   6.643 -0.6349  1.0578  2.3236
 5416TIP3    H237664   2.870   2.631   6.609 -0.9254  0.5558 -0.4209
 5417TIP3   OH237665   5.297   4.879   2.305  0.3161 -0.3134 -0.1400
 5417TIP3    H137666   5.325   4.822   2.376 -0.7982  0.5288  1.0237
 5417TIP3    H237667   5.295   4.966   2.344  1.5776  0.5110 -1.7543
 5418TIP3   OH237668   5.320   5.601  15.892  0.1961  0.1480 -0.1264
 5418TIP3    H137669   5.347   5.639  15.808 -1.4375  0.4779 -0.5339
 5418TIP3    H237670   5.225   5.600  15.888  0.1293 -1.7517  0.8854
 5419TIP3   OH237671   0.064   4.830   2.887  0.4894  0.0825  0.4419
 5419TIP3    H137672   0.127   4.888   2.929  0.1338  0.9591 -0.2008
 5419TIP3    H237673   0.078   4.745   2.928  2.4282  0.1239 -0.0207
 5420TIP3   OH237674   4.621   4.005  11.272  0.0117 -0.4511  0.5021
 5420TIP3    H137675   4.617   3.953  11.192  0.0726  0.5338 -0.1413
 5420TIP3    H237676   4.713   4.001  11.298  0.0748 -0.4073  0.2836
 5421TIP3   OH237677   0.539   2.226   2.049 -0.1426  0.1122  0.2223
 5421TIP3    H137678   0.535   2.300   1.989  1.0889 -0.0187 -0.0549
 5421TIP3    H237679   0.490   2.156   2.004  1.2611 -0.1766 -0.9486
 5422TIP3   OH237680   1.092   6.741  10.826  0.5760 -0.2840  0.3337
 5422TIP3    H137681   1.158   6.674  10.812  1.2952  0.0355  2.0141
 5422TIP3    H237682   1.026   6.724  10.758  0.7358 -2.6709  0.6800
 5423TIP3   OH237683   1.766   1.861  16.271 -0.2335 -0.0561  0.1106
 5423TIP3    H137684   1.759   1.936  16.330 -0.5180  0.8814 -1.0731
 5423TIP3    H237685   1.852   1.871  16.230  0.3483 -1.1977  0.9803
 5424TIP3   OH237686   1.522   2.101   5.309  0.8433 -0.9523  0.3886
 5424TIP3    H137687   1.600   2.060   5.273 -0.5622 -2.1827 -1.4357
 5424TIP3    H237688   1.498   2.168   5.244  0.4305 -0.5084  0.9844
 5425TIP3   OH237689   6.603   4.825   0.112 -0.0967  0.0794  0.3379
 5425TIP3    H137690   6.529   4.807   0.169  1.4915 -0.6717  2.2824
 5425TIP3    H237691   6.656   4.745   0.117  0.3081  0.1329 -1.9397
 5426TIP3   OH237692   2.263   2.006   4.701  0.1313 -0.0197 -0.0051
 5426TIP3    H137693   2.213   1.930   4.729  0.3977 -0.2931 -0.2586
 5426TIP3    H237694   2.340   1.969   4.657 -0.2830  0.3886 -1.1117
 5427TIP3   OH237695   5.000   4.430  15.645 -0.0480 -0.4463  0.1403
 5427TIP3    H137696   5.031   4.339  15.651 -1.2558 -1.1843 -3.0770
 5427TIP3    H237697   4.913   4.428  15.686  1.1565  0.1067  2.9851
 5428TIP3   OH237698   3.483   3.017   4.534 -0.3823 -0.0717  0.1716
 5428TIP3    H137699   3.566   2.994   4.576 -1.3457 -2.6533  0.8318
 5428TIP3    H237700   3.466   2.946   4.473 -0.9119  1.7101 -1.8773
 5429TIP3   OH237701   6.405   3.086   5.550 -0.4709  0.3673 -0.3335
 5429TIP3    H137702   6.398   3.051   5.638 -1.8484  1.8842  0.2160
 5429TIP3    H237703   6.429   3.178   5.562 -1.6725  0.8696 -1.4567
 5430TIP3   OH237704   2.548   3.277   2.957  0.0944  0.4104  0.3924
 5430TIP3    H137705   2.604   3.261   2.881 -1.6443  1.2053 -1.1266
 5430TIP3    H237706   2.576   3.363   2.989  1.6015 -0.4222  1.4052
 5431TIP3   OH237707   0.360   2.446   6.314  0.0439  0.2230 -0.6479
 5431TIP3    H137708   0.286   2.493   6.352  0.9663  0.7476  0.5821
 5431TIP3    H237709   0.323   2.366   6.279 -0.8507 -0.3962  1.5830
 5432TIP3   OH237710   4.310   4.423   0.153  0.0888 -0.0236 -0.7511
 5432TIP3    H137711   4.312   4.402   0.246  1.1470  3.7618  0.2882
 5432TIP3    H237712   4.221   4.457   0.138  0.2825  0.5010 -0.7588
 5433TIP3   OH237713   4.442   5.817  14.107  0.0747  0.4264  0.6091
 5433TIP3    H137714   4.506   5.775  14.165 -0.7611 -0.3974  0.9450
 5433TIP3    H237715   4.377   5.749  14.090  0.1777  0.7206 -1.1177
 5434TIP3   OH237716   5.538   5.824   1.756 -0.2628 -0.3096  0.3457
 5434TIP3    H137717   5.633   5.834   1.760 -0.1642 -1.3516  1.3340
 5434TIP3    H237718   5.524   5.751   1.696 -0.5245  0.6911 -0.8286
 5435TIP3   OH237719   5.224   5.706   2.095 -0.3807 -0.3074  0.1982
 5435TIP3    H137720   5.159   5.772   2.072 -2.2447 -1.0531  2.8278
 5435TIP3    H237721   5.196   5.627   2.050  0.0761 -0.0965 -0.4817
 5436TIP3   OH237722   0.281   4.872  13.385 -0.2971 -0.5456 -0.3039
 5436TIP3    H137723   0.356   4.889  13.327 -0.3643 -0.3439 -0.3308
 5436TIP3    H237724   0.246   4.959  13.405  1.8476 -0.2665  2.8600
 5437TIP3   OH237725   6.471   0.020   0.494  0.2347  0.1027 -0.0460
 5437TIP3    H137726   6.409   0.047   0.426 -1.0256 -1.1814  0.5523
 5437TIP3    H237727   6.428  -0.052   0.539  1.9881 -0.5452  0.6926
 5438TIP3   OH237728   4.267   0.745  16.577 -0.4468  0.1931  0.5583
 5438TIP3    H137729   4.337   0.806  16.600 -1.0871  0.9086  0.6632
 5438TIP3    H237730   4.309   0.659  16.576  0.9380  0.8241 -1.5031
 5439TIP3   OH237731   0.041   0.006  14.189 -0.0853 -0.1160  0.5325
 5439TIP3    H137732   0.054   0.045  14.275  0.6506 -1.3497  0.9943
 5439TIP3    H237733  -0.053   0.014  14.173 -0.5793 -1.6204  2.3200
 5440TIP3   OH237734   5.039   5.811  13.236 -0.3976 -0.6658 -0.5436
 5440TIP3    H137735   5.017   5.719  13.225 -2.8468  0.0515 -2.4362
 5440TIP3    H237736   5.033   5.848  13.148  0.2377  1.3939  0.2151
 5441TIP3   OH237737   3.683   5.984  15.569  0.2283 -0.2139  0.2939
 5441TIP3    H137738   3.777   5.990  15.585  0.2284  0.7154 -0.0007
 5441TIP3    H237739   3.660   6.067  15.528 -0.3710 -1.1927 -1.4840
 5442TIP3   OH237740   5.931   2.216   4.379 -0.0983  0.0612 -0.2792
 5442TIP3    H137741   5.835   2.215   4.385 -0.1371 -3.8285  1.4590
 5442TIP3    H237742   5.960   2.242   4.467  0.3839 -0.2062 -0.3540
 5443TIP3   OH237743   3.956   1.551   5.327  0.8633  0.4014  0.0751
 5443TIP3    H137744   3.911   1.629   5.294  1.0401  1.6402  2.5241
 5443TIP3    H237745   4.009   1.521   5.253 -1.2713  0.9590 -1.7833
 5444TIP3   OH237746   5.934   2.938  14.407 -0.1004  0.0942  0.1363
 5444TIP3    H137747   6.020   2.923  14.368 -0.2166  0.2701 -0.1926
 5444TIP3    H237748   5.884   2.981  14.338 -0.3845  0.1912  0.4019
 5445TIP3   OH237749   6.752   6.098  12.865 -0.6998  0.2195  0.7485
 5445TIP3    H137750   6.764   6.121  12.957 -0.6620  1.5051  0.4324
 5445TIP3    H237751   6.679   6.036  12.865 -0.0603 -0.5660  1.7367
 5446TIP3   OH237752   2.229   3.757  12.520 -0.3436 -0.5381  0.4797
 5446TIP3    H137753   2.201   3.848  12.518  1.3059  0.0397  1.2623
 5446TIP3    H237754   2.185   3.719  12.597 -0.5996 -0.2496  0.4748
 5447TIP3   OH237755   6.162   3.650  12.509 -0.1373 -0.1598 -0.0374
 5447TIP3    H137756   6.082   3.682  12.550  0.7414  2.0111  0.1272
 5447TIP3    H237757   6.211   3.609  12.581 -1.1525 -1.7493 -0.1946
 5448TIP3   OH237758   2.295   0.531  15.593 -0.1125  0.5211 -0.5106
 5448TIP3    H137759   2.268   0.550  15.503  1.3554  0.3704 -1.0149
 5448TIP3    H237760   2.269   0.609  15.642  1.5954  1.8813 -1.6357
 5449TIP3   OH237761   0.745   5.913   1.788 -0.6823  0.5952  0.2565
 5449TIP3    H137762   0.676   5.893   1.852 -1.1154  1.7986  0.1946
 5449TIP3    H237763   0.815   5.851   1.808 -2.5120 -2.0540 -0.9651
 5450TIP3   OH237764   5.937   6.456  13.612  0.4026 -0.1504  0.2351
 5450TIP3    H137765   5.927   6.384  13.674  1.9696 -0.0469  0.6511
 5450TIP3    H237766   5.853   6.460  13.565  0.6608 -2.9535 -0.5962
 5451TIP3   OH237767   2.256   2.571   2.095  0.9426  0.6459 -0.2207
 5451TIP3    H137768   2.164   2.580   2.073  0.7592  0.1782  0.3494
 5451TIP3    H237769   2.272   2.477   2.098  1.1336  0.7010  0.9135
 5452TIP3   OH237770   2.682   0.048   5.962  0.4827 -0.5362 -0.4600
 5452TIP3    H137771   2.614  -0.003   5.918 -1.3915  1.6741 -0.2897
 5452TIP3    H237772   2.652   0.055   6.053  0.8210  0.6461 -0.4262
 5453TIP3   OH237773   2.633   2.583   4.808  0.0099 -0.0189  0.0139
 5453TIP3    H137774   2.545   2.568   4.775 -0.4009  1.5382  0.3377
 5453TIP3    H237775   2.680   2.624   4.735  0.2048  0.0036  0.1492
 5454TIP3   OH237776   5.692   4.207  15.799  0.3390 -0.1297 -0.5485
 5454TIP3    H137777   5.626   4.252  15.745  1.3249  0.4169 -1.3245
 5454TIP3    H237778   5.774   4.221  15.753  1.0248 -0.7196  0.4649
 5455TIP3   OH237779   5.110   2.430   4.824  0.0139  0.2730  0.7917
 5455TIP3    H137780   5.160   2.458   4.901 -1.9135  2.4068  1.3834
 5455TIP3    H237781   5.114   2.504   4.765 -1.3820  0.0015  0.3260
 5456TIP3   OH237782   4.283   5.521   5.759  0.4766  0.2689  0.1744
 5456TIP3    H137783   4.248   5.504   5.847  0.0926  0.9465  0.1560
 5456TIP3    H237784   4.333   5.442   5.738  0.1325 -0.1218  0.7837
 5457TIP3   OH237785   1.523   5.078   2.894  0.1906 -0.2193  0.1939
 5457TIP3    H137786   1.519   5.167   2.929  0.7733 -0.4587  0.8846
 5457TIP3    H237787   1.617   5.062   2.880  0.2853 -1.4688  2.0286
 5458TIP3   OH237788   1.077   5.057  12.668  0.6422  0.0386 -0.2502
 5458TIP3    H137789   1.034   5.120  12.727 -0.1907 -1.7663  1.2089
 5458TIP3    H237790   1.135   5.007  12.725 -1.1738 -2.6741 -0.5469
 5459TIP3   OH237791   3.489   1.211  11.014 -0.6888  0.5035  0.1392
 5459TIP3    H137792   3.487   1.207  10.918 -2.0990 -0.8266  0.1727
 5459TIP3    H237793   3.400   1.185  11.040 -0.1834  0.3639  1.8168
 5460TIP3   OH237794   6.684   2.850  12.856 -0.1433  0.1912  0.2965
 5460TIP3    H137795   6.623   2.921  12.871 -0.6416 -0.5805  2.1564
 5460TIP3    H237796   6.767   2.893  12.837 -0.2543  1.3194  2.1367
 5461TIP3   OH237797   5.021   1.153  15.999  0.2098  0.2073 -0.1498
 5461TIP3    H137798   5.094   1.093  16.013  0.2166  0.5870  1.7405
 5461TIP3    H237799   4.943   1.101  16.021 -0.4824 -0.9991 -4.5260
 5462TIP3   OH237800   1.570   3.376   2.554  0.0487  0.1000 -0.2919
 5462TIP3    H137801   1.636   3.311   2.531 -0.1111  0.5734 -2.2753
 5462TIP3    H237802   1.493   3.324   2.580  1.0504 -0.4458  1.7839
 5463TIP3   OH237803   4.865   3.727   0.054 -0.7045  0.0954  0.4163
 5463TIP3    H137804   4.805   3.714  -0.020 -0.8321  0.9974  0.3407
 5463TIP3    H237805   4.807   3.747   0.128 -0.4975  1.5004  0.2239
 5464TIP3   OH237806   0.976   1.033  15.827 -0.2631  0.0047 -0.2852
 5464TIP3    H137807   0.916   1.047  15.754  0.1754 -1.2430 -0.9224
 5464TIP3    H237808   0.919   1.014  15.901 -0.6932 -0.9808 -0.8376
 5465TIP3   OH237809   5.503   2.976   1.926 -0.1574 -0.8715 -0.5581
 5465TIP3    H137810   5.544   3.043   1.980 -0.0261 -1.1290 -0.3352
 5465TIP3    H237811   5.464   2.915   1.989  1.5687 -2.1851 -0.6623
 5466TIP3   OH237812   6.641   0.488   5.957  0.3650 -0.0283  0.5292
 5466TIP3    H137813   6.668   0.554   6.020 -2.3107  1.2747  0.4603
 5466TIP3    H237814   6.633   0.407   6.008 -0.3269  0.6682  1.5401
 5467TIP3   OH237815   5.269   1.232  10.713 -0.0093  0.0339 -0.1441
 5467TIP3    H137816   5.279   1.242  10.618  1.1402  0.9959  0.0526
 5467TIP3    H237817   5.322   1.155  10.734  1.8877  1.2820 -0.0005
 5468TIP3   OH237818   0.103   5.947  12.004  0.0005 -0.5202  0.5481
 5468TIP3    H137819   0.192   5.953  11.970  0.0160  0.2172  0.7009
 5468TIP3    H237820   0.049   5.933  11.927  0.3420 -1.9753  0.5576
 5469TIP3   OH237821   3.637   1.384   4.151  0.1485 -0.0712 -0.2228
 5469TIP3    H137822   3.560   1.383   4.208 -0.4658  2.0132 -0.9487
 5469TIP3    H237823   3.615   1.324   4.080 -0.1478 -0.6824  0.3695
 5470TIP3   OH237824   3.482   1.580  15.254  0.2981  0.6320 -0.3714
 5470TIP3    H137825   3.496   1.594  15.161 -0.3211 -0.3991 -0.6420
 5470TIP3    H237826   3.417   1.646  15.279 -1.4015 -0.6220 -1.2545
 5471TIP3   OH237827   2.562   2.198  16.683 -0.5295  0.5297  0.5231
 5471TIP3    H137828   2.466   2.199  16.678 -0.4957 -0.7504 -2.4801
 5471TIP3    H237829   2.581   2.137  16.754 -2.0355 -1.3667 -0.5870
 5472TIP3   OH237830   1.137   1.601  16.225 -0.0840  0.4567 -0.6348
 5472TIP3    H137831   1.221   1.555  16.218 -0.4926 -0.3053 -0.6176
 5472TIP3    H237832   1.119   1.632  16.136  0.3984  0.9729 -0.5632
 5473TIP3   OH237833   6.100   4.699   4.905 -0.4540  0.3071  0.3113
 5473TIP3    H137834   6.127   4.663   4.820 -0.2397 -0.0047  0.5065
 5473TIP3    H237835   6.134   4.789   4.905  0.5255 -0.0456  0.5112
 5474TIP3   OH237836   2.209   5.788  10.989  0.4214  0.1035 -0.0551
 5474TIP3    H137837   2.250   5.744  10.915 -1.7166 -1.6236 -0.3190
 5474TIP3    H237838   2.119   5.754  10.990 -0.6038  2.6069  1.3124
 5475TIP3   OH237839   4.531   3.542   3.665  0.6922 -0.2782 -0.0403
 5475TIP3    H137840   4.613   3.589   3.647 -0.5868  1.9755 -0.3227
 5475TIP3    H237841   4.531   3.470   3.602  3.2597 -1.4859  1.1686
 5476TIP3   OH237842   3.983   2.348  16.125 -0.1125 -0.5095  0.3959
 5476TIP3    H137843   3.921   2.353  16.052 -1.0326  1.2488  1.2369
 5476TIP3    H237844   4.028   2.433  16.124 -0.3006 -0.3643  1.9907
 5477TIP3   OH237845   6.754   0.569   0.592  0.4669  0.3313 -0.0834
 5477TIP3    H137846   6.684   0.580   0.527 -0.4150  1.3518  0.9812
 5477TIP3    H237847   6.741   0.642   0.652  1.5764 -0.3005  0.9520
 5478TIP3   OH237848   5.061   1.527  16.787  0.2443 -0.0728 -0.2362
 5478TIP3    H137849   4.973   1.489  16.780 -0.1222  0.7702 -0.2947
 5478TIP3    H237850   5.051   1.599  16.848  1.4580 -1.5485  1.8238
 5479TIP3   OH237851   3.162   5.962  11.353  0.2465 -0.2644  0.0004
 5479TIP3    H137852   3.237   6.002  11.311  0.5566  0.3753  1.1213
 5479TIP3    H237853   3.168   5.869  11.330  0.2933  0.0966 -1.4855
 5480TIP3   OH237854   0.158   1.954   1.355  0.1755 -0.0381  0.0008
 5480TIP3    H137855   0.244   1.960   1.396  0.6817 -1.0365 -0.8861
 5480TIP3    H237856   0.139   1.861   1.350 -0.2292  0.0884 -1.2808
 5481TIP3   OH237857   4.893   2.550   4.609 -0.4674 -0.0579 -0.2376
 5481TIP3    H137858   4.865   2.527   4.697 -1.4736  0.5549 -0.3795
 5481TIP3    H237859   4.949   2.478   4.582 -2.5166 -1.7769 -0.2024
 5482TIP3   OH237860   6.638   5.061  14.257  0.1119 -0.1134 -0.7599
 5482TIP3    H137861   6.676   5.126  14.197 -3.9113  1.5560 -1.8894
 5482TIP3    H237862   6.663   4.977  14.219  0.5357  0.8647 -2.8389
 5483TIP3   OH237863   1.088   4.538   4.712  0.1366 -0.1777  0.3297
 5483TIP3    H137864   1.137   4.537   4.630 -1.8588 -0.2541 -0.9349
 5483TIP3    H237865   1.021   4.471   4.701 -0.7001  0.3893  1.6996
 5484TIP3   OH237866   2.096   6.055  16.305 -0.3316 -0.1231  0.1960
 5484TIP3    H137867   2.152   5.977  16.298  0.9595  0.7924 -0.1420
 5484TIP3    H237868   2.128   6.100  16.384 -0.8465  0.2274  0.2085
 5485TIP3   OH237869   2.262   1.693   2.049 -0.4705  0.3023  0.1381
 5485TIP3    H137870   2.248   1.787   2.032 -1.5238  0.2676  0.7252
 5485TIP3    H237871   2.193   1.649   2.001 -2.5756  0.1128  3.0772
 5486TIP3   OH237872   3.935   0.943   4.909  0.1117  0.6177 -0.2033
 5486TIP3    H137873   3.881   0.883   4.857 -1.3522  0.4523  1.4161
 5486TIP3    H237874   3.882   0.962   4.986  1.6517  1.9244  0.5924
 5487TIP3   OH237875   2.426   4.479   0.544 -0.1921 -0.1180  0.0271
 5487TIP3    H137876   2.440   4.449   0.454 -0.6134 -0.6989  0.1477
 5487TIP3    H237877   2.484   4.425   0.597  1.3417  1.4003 -0.0566
 5488TIP3   OH237878   2.481   1.124  15.594 -0.1859  0.1298  0.3780
 5488TIP3    H137879   2.396   1.169  15.595  0.0697  0.6820 -0.6056
 5488TIP3    H237880   2.472   1.053  15.657 -1.9117 -0.7552 -0.7853
 5489TIP3   OH237881   4.930   5.711   2.622  0.5788 -0.1046 -0.2470
 5489TIP3    H137882   4.896   5.677   2.705 -0.1840 -1.5696 -1.1150
 5489TIP3    H237883   4.974   5.792   2.646  0.6728 -0.6599  1.6392
 5490TIP3   OH237884   6.286   1.766   5.369  0.7694  0.6331  0.0254
 5490TIP3    H137885   6.209   1.808   5.407  0.6478  0.0145  0.4790
 5490TIP3    H237886   6.251   1.701   5.309  0.8995 -0.4315  1.0675
 5491TIP3   OH237887   6.154   0.695   2.563 -0.4561  0.0671  0.9752
 5491TIP3    H137888   6.152   0.660   2.474 -1.7267 -2.8839  2.0320
 5491TIP3    H237889   6.247   0.692   2.587 -0.0382  1.2940 -0.3143
 5492TIP3   OH237890   1.513   2.021  11.020 -0.0715 -0.2175  0.7970
 5492TIP3    H137891   1.560   2.054  11.096  2.0370 -0.9127 -0.1323
 5492TIP3    H237892   1.514   1.926  11.031  0.1240 -0.3145 -0.0200
 5493TIP3   OH237893   1.033   0.450  15.771 -0.3295 -0.0715 -0.8063
 5493TIP3    H137894   1.018   0.512  15.698  0.0170  1.0675  0.0610
 5493TIP3    H237895   0.970   0.477  15.838 -0.8190 -1.2769 -0.7688
 5494TIP3   OH237896   1.999   0.346   5.316 -0.4121 -0.6396 -0.0623
 5494TIP3    H137897   1.945   0.323   5.241 -1.4260  1.1657  0.0600
 5494TIP3    H237898   1.940   0.392   5.375  0.8661 -0.1388  0.8820
 5495TIP3   OH237899   2.022   2.987   1.071  0.4600  0.1871 -0.7407
 5495TIP3    H137900   1.974   2.924   1.125 -0.9891  0.3707 -1.7537
 5495TIP3    H237901   1.971   2.993   0.990  0.6266  2.5553 -0.7373
 5496TIP3   OH237902   0.122   3.580   0.762 -0.7810 -0.0020 -0.1348
 5496TIP3    H137903   0.079   3.650   0.713  0.0605  1.0540  0.5760
 5496TIP3    H237904   0.200   3.622   0.799  1.6457 -2.1119 -2.4649
 5497TIP3   OH237905   0.156   1.939   2.210  0.4939  0.3549 -0.2737
 5497TIP3    H137906   0.126   1.963   2.122  0.4199  0.8053 -0.1252
 5497TIP3    H237907   0.182   1.847   2.202 -1.1853 -0.1526 -0.3534
 5498TIP3   OH237908   5.109   3.034   3.743  0.2914 -0.0960 -0.4813
 5498TIP3    H137909   5.060   3.106   3.783  1.3045 -0.7182  2.1076
 5498TIP3    H237910   5.043   2.967   3.725 -0.4384  0.8600 -1.5688
 5499TIP3   OH237911   6.691   1.404   0.150 -0.4497  0.2296 -0.3351
 5499TIP3    H137912   6.675   1.434   0.240 -1.4634 -0.0031 -0.4276
 5499TIP3    H237913   6.665   1.312   0.151  0.3092  0.0078 -0.6710
 5500TIP3   OH237914   3.559   4.991  14.864 -0.2785  0.1803  0.0192
 5500TIP3    H137915   3.607   4.940  14.799  0.6864  1.1827 -0.0976
 5500TIP3    H237916   3.623   5.004  14.935 -0.8334  0.3481  0.4923
 5501TIP3   OH237917   3.586   4.201  15.229  0.0458 -0.2367 -0.5298
 5501TIP3    H137918   3.666   4.174  15.273  0.2914  0.1694 -0.7200
 5501TIP3    H237919   3.518   4.197  15.296  0.5300  0.9960  0.0680
 5502TIP3   OH237920   0.568   1.197   3.520  0.5560 -0.0688  0.3949
 5502TIP3    H137921   0.640   1.139   3.548  1.6430  0.6015 -0.8823
 5502TIP3    H237922   0.489   1.144   3.532  1.2774 -0.9431  1.5491
 5503TIP3   OH237923   6.162   2.026   3.118 -0.0760 -0.7827 -0.0223
 5503TIP3    H137924   6.135   2.101   3.170 -0.9809 -1.0981 -0.0256
 5503TIP3    H237925   6.241   2.055   3.073 -1.5918  0.9268 -1.7356
 5504TIP3   OH237926   6.145   6.420  11.001  0.0413  0.4303 -0.0972
 5504TIP3    H137927   6.078   6.462  11.055  0.4930  1.8328 -0.5932
 5504TIP3    H237928   6.172   6.344  11.053 -0.2265  1.1868  1.2077
 5505TIP3   OH237929   2.992   5.108   0.849  0.2598  0.3774  0.2759
 5505TIP3    H137930   2.954   5.113   0.761  0.1523  2.2582  0.3951
 5505TIP3    H237931   3.082   5.079   0.834  0.1204  0.2855 -0.4263
 5506TIP3   OH237932   3.091   4.415  13.568 -0.5871  0.0671 -0.1719
 5506TIP3    H137933   2.996   4.425  13.580 -0.5437 -0.2068  0.4634
 5506TIP3    H237934   3.100   4.342  13.507 -0.7877  0.0985 -0.2403
 5507TIP3   OH237935   0.346   6.812   4.338  0.4700 -0.4371 -0.0417
 5507TIP3    H137936   0.312   6.806   4.427 -0.1951 -0.5873 -0.3029
 5507TIP3    H237937   0.269   6.828   4.283  1.1020  1.9539 -0.3685
 5508TIP3   OH237938   5.834   2.706   3.459  0.0131 -0.0372 -0.1946
 5508TIP3    H137939   5.797   2.794   3.449 -2.9245 -0.8980  2.0150
 5508TIP3    H237940   5.902   2.715   3.526  0.7842  0.7385 -1.0437
 5509TIP3   OH237941   0.274   3.576  14.158 -0.0923  0.2708  0.7606
 5509TIP3    H137942   0.276   3.516  14.083  2.1056  1.2042 -0.0102
 5509TIP3    H237943   0.273   3.519  14.235 -1.5892 -0.7028  0.0747
 5510TIP3   OH237944   5.697   0.543   0.332 -0.4170  0.0168 -0.5692
 5510TIP3    H137945   5.730   0.480   0.270 -0.9626  0.9120 -1.8208
 5510TIP3    H237946   5.688   0.495   0.414  0.5758 -1.1149 -1.1118
 5511TIP3   OH237947   0.205   5.005  13.723 -0.4554 -0.1161  0.4674
 5511TIP3    H137948   0.163   4.952  13.790 -0.5268 -1.2412 -0.4251
 5511TIP3    H237949   0.298   4.985  13.730 -0.6434 -1.8521 -1.0358
 5512TIP3   OH237950   6.360   3.930   2.748 -0.4108 -0.3215 -0.1221
 5512TIP3    H137951   6.318   3.958   2.666 -0.4456  0.3871  0.1268
 5512TIP3    H237952   6.287   3.906   2.805 -0.3387 -1.9146 -0.6747
 5513TIP3   OH237953   1.880   4.824  14.702 -0.8532  0.1060  0.2670
 5513TIP3    H137954   1.803   4.770  14.722  1.1482 -2.2335  2.4694
 5513TIP3    H237955   1.926   4.775  14.634 -1.0071  1.2262 -0.6695
 5514TIP3   OH237956   2.497   3.407   4.721 -0.5490  0.0528  0.1336
 5514TIP3    H137957   2.559   3.411   4.648 -1.3951  1.2267 -0.5580
 5514TIP3    H237958   2.550   3.422   4.799  0.1724  0.0746 -0.3517
 5515TIP3   OH237959   3.103   2.400  11.469  0.2031  0.1706 -0.4043
 5515TIP3    H137960   3.064   2.316  11.447 -0.2459  0.4198 -0.5669
 5515TIP3    H237961   3.110   2.446  11.386  1.7060 -0.2210 -0.5282
 5516TIP3   OH237962   6.020   3.451   4.867  0.4886  0.1591  0.1919
 5516TIP3    H137963   6.076   3.503   4.925  1.3347 -0.2956 -0.2022
 5516TIP3    H237964   5.964   3.516   4.824 -2.0442  0.3320  3.3885
 5517TIP3   OH237965   0.514   4.646   3.205 -0.5107  0.1469  0.9869
 5517TIP3    H137966   0.433   4.687   3.234 -1.8042  2.2654 -4.3377
 5517TIP3    H237967   0.485   4.565   3.163  0.6756 -0.8601  2.0569
 5518TIP3   OH237968   5.303   5.478   1.310  0.4272 -0.2898  0.1764
 5518TIP3    H137969   5.227   5.531   1.337  0.5030 -1.6909  3.7527
 5518TIP3    H237970   5.371   5.542   1.290 -0.3623  1.0372  1.4968
 5519TIP3   OH237971   5.768   4.015   2.385  0.0203 -0.3889 -0.4692
 5519TIP3    H137972   5.830   4.061   2.329 -0.3300  0.2938 -0.3208
 5519TIP3    H237973   5.820   3.952   2.434  0.4056 -0.6358 -1.1871
 5520TIP3   OH237974   1.007   1.158  13.709 -0.2756  0.0023 -0.2288
 5520TIP3    H137975   1.032   1.086  13.767 -0.9043  0.2295  0.3343
 5520TIP3    H237976   0.933   1.124  13.659 -0.1062  0.0089 -0.4848
 5521TIP3   OH237977   4.434   5.276   2.141 -0.2328 -0.0852 -0.3984
 5521TIP3    H137978   4.448   5.323   2.223  2.1471  1.0440 -1.3646
 5521TIP3    H237979   4.380   5.201   2.165 -1.0397  1.1161  1.8658
 5522TIP3   OH237980   5.886   5.823  13.734 -0.0345  0.2322 -0.2505
 5522TIP3    H137981   5.846   5.754  13.682 -1.0267  0.9568 -0.4929
 5522TIP3    H237982   5.931   5.778  13.806  1.2414 -0.7738 -1.6254
 5523TIP3   OH237983   0.963   3.819   2.707  0.1084  0.4177  0.0286
 5523TIP3    H137984   0.960   3.817   2.612  0.9433 -0.0664  0.0029
 5523TIP3    H237985   1.018   3.895   2.727  1.9610 -0.8671  0.0455
 5524TIP3   OH237986   1.331   4.212   5.074  0.3774  0.2098  0.7635
 5524TIP3    H137987   1.256   4.208   5.013  1.2046  0.6994 -0.3218
 5524TIP3    H237988   1.355   4.304   5.076  1.3952 -0.0348  0.5298
 5525TIP3   OH237989   5.010   6.323  14.678  0.3890 -0.2506 -0.1170
 5525TIP3    H137990   4.981   6.355  14.763 -0.0833 -1.7429  0.2995
 5525TIP3    H237991   5.058   6.397  14.641 -1.9996  1.5214  0.0983
 5526TIP3   OH237992   1.023   1.468  11.254  0.1601  0.1256  0.0427
 5526TIP3    H137993   0.985   1.541  11.206  0.1564  0.4361  0.5128
 5526TIP3    H237994   1.080   1.509  11.319 -0.6314 -0.2438  0.9933
 5527TIP3   OH237995   3.906   1.200  12.516 -0.7618  0.6387 -1.1985
 5527TIP3    H137996   3.989   1.157  12.535 -0.0889  1.9607 -1.0761
 5527TIP3    H237997   3.844   1.160  12.577  0.1180  0.7128 -0.2294
 5528TIP3   OH237998   3.471   5.351  15.274 -0.9471  0.5171 -0.0042
 5528TIP3    H137999   3.496   5.327  15.363 -2.1601 -0.3360  0.1358
 5528TIP3    H238000   3.419   5.276  15.243 -0.4258  0.7213 -1.4875
 5529TIP3   OH238001   1.121   0.171   0.312 -0.1625  0.0028  0.3540
 5529TIP3    H138002   1.075   0.197   0.232  1.0051  3.2536  0.5810
 5529TIP3    H238003   1.080   0.223   0.381 -0.0752 -1.5655  1.6507
 5530TIP3   OH238004   3.670   0.950  13.603  0.2550  0.7684 -0.0266
 5530TIP3    H138005   3.577   0.965  13.587  0.2650  0.8425 -0.0128
 5530TIP3    H238006   3.713   1.030  13.573  0.2993  0.8008  0.1222
 5531TIP3   OH238007   5.186   0.128   5.725 -0.2248  0.2313 -0.6388
 5531TIP3    H138008   5.256   0.175   5.770  1.9088 -1.6764 -1.7765
 5531TIP3    H238009   5.119   0.116   5.793 -0.0493  3.0928  0.1791
 5532TIP3   OH238010   1.589   2.294   3.475 -0.2692 -0.5126 -0.6438
 5532TIP3    H138011   1.637   2.282   3.393 -1.2573 -0.1079 -1.2976
 5532TIP3    H238012   1.516   2.351   3.452  0.1541  0.6917  0.7967
 5533TIP3   OH238013   4.171   1.202   2.725  0.4366  0.1548 -0.2593
 5533TIP3    H138014   4.135   1.182   2.639  0.9318 -0.0353 -0.4199
 5533TIP3    H238015   4.136   1.133   2.782  0.1397  0.2603 -0.3093
 5534TIP3   OH238016   4.208   0.304   0.918 -0.4477  0.3238 -0.2546
 5534TIP3    H138017   4.185   0.384   0.871  0.7750  0.6183 -0.3903
 5534TIP3    H238018   4.266   0.334   0.988  1.8791 -0.6683 -1.6696
 5535TIP3   OH238019   5.402   1.036   2.510 -0.8388 -0.2900  0.4596
 5535TIP3    H138020   5.409   0.954   2.461 -2.6598 -0.0058 -0.3606
 5535TIP3    H238021   5.420   1.011   2.601 -3.3051 -2.0607  0.5767
 5536TIP3   OH238022   5.664   4.987  13.064  0.0789 -0.0479  0.4472
 5536TIP3    H138023   5.575   4.961  13.038  0.3828 -0.6314 -0.0451
 5536TIP3    H238024   5.712   4.994  12.981  1.1773 -2.3311  0.8136
 5537TIP3   OH238025   5.222   2.766   3.754 -0.0218  0.3480 -0.3127
 5537TIP3    H138026   5.252   2.855   3.736  1.9593 -0.5784 -1.8825
 5537TIP3    H238027   5.127   2.769   3.738 -0.0205  2.1712 -0.2013
 5538TIP3   OH238028   5.027   6.017   0.651  0.4127  0.4631 -1.0303
 5538TIP3    H138029   4.963   6.028   0.721  1.1129  0.8895 -0.4370
 5538TIP3    H238030   5.111   6.009   0.697  0.8295  0.3356 -1.8047
 5539TIP3   OH238031   3.842   4.077  15.265 -0.3005 -0.6202  0.7869
 5539TIP3    H138032   3.772   4.013  15.271  0.2029 -1.1757  0.9100
 5539TIP3    H238033   3.893   4.050  15.188  0.2048 -0.6780  1.1308
 5540TIP3   OH238034   5.430   3.406   0.246  0.3579  0.4459  0.5605
 5540TIP3    H138035   5.491   3.390   0.173 -0.9708 -1.4072 -0.2207
 5540TIP3    H238036   5.487   3.430   0.319  1.9052  0.3537 -0.5533
 5541TIP3   OH238037   5.764   0.863   3.900 -0.1114 -0.2125  0.2479
 5541TIP3    H138038   5.684   0.827   3.938 -2.2288  1.5999 -2.1983
 5541TIP3    H238039   5.795   0.926   3.965 -1.2956 -0.1504  0.7690
 5542TIP3   OH238040   0.073   4.711   1.624  0.3686 -0.1786 -0.5531
 5542TIP3    H138041   0.090   4.766   1.548 -1.6217  2.9064  1.0245
 5542TIP3    H238042   0.157   4.705   1.668  1.1065 -0.3194 -1.9269
 5543TIP3   OH238043   1.998   4.416  11.950  0.3344  0.3726  0.4655
 5543TIP3    H138044   1.933   4.347  11.965 -0.9614  1.9820  2.8538
 5543TIP3    H238045   1.971   4.457  11.869  0.6869 -1.3868 -0.5991
 5544TIP3   OH238046   0.129   1.812   4.438 -0.0742  0.4877  0.5661
 5544TIP3    H138047   0.066   1.777   4.501 -1.0553 -0.8205 -1.0629
 5544TIP3    H238048   0.075   1.857   4.373  0.6991 -0.0825 -0.5000
 5545TIP3   OH238049   4.368   1.668   3.400  0.1786 -0.3126 -0.5162
 5545TIP3    H138050   4.387   1.576   3.380 -0.0098 -0.7491  1.1642
 5545TIP3    H238051   4.302   1.694   3.337 -0.8854 -1.8071 -0.0586
 5546TIP3   OH238052   4.676   1.167  15.343 -0.1801  0.0128 -0.8216
 5546TIP3    H138053   4.702   1.217  15.421  0.0756 -1.6544  0.2226
 5546TIP3    H238054   4.713   1.215  15.270  2.1141  0.0855  0.3083
 5547TIP3   OH238055   6.207   4.880   2.903  0.4622 -0.2476  0.1488
 5547TIP3    H138056   6.228   4.971   2.885  1.2801 -0.1147  1.5889
 5547TIP3    H238057   6.163   4.881   2.988  0.7972 -1.2037  0.3571
 5548TIP3   OH238058   0.449   1.808   0.841 -0.1740 -0.4718  0.8983
 5548TIP3    H138059   0.531   1.760   0.852 -0.1227 -0.2410  1.5342
 5548TIP3    H238060   0.428   1.798   0.748  0.7998 -0.1651  0.6321
 5549TIP3   OH238061   0.792   3.837  11.687 -1.0198 -0.6213 -0.2917
 5549TIP3    H138062   0.705   3.799  11.702 -1.1868  0.0098  0.3655
 5549TIP3    H238063   0.832   3.840  11.774 -0.1441 -1.3371 -0.6450
 5550TIP3   OH238064   4.588   4.860  16.233  0.1674 -0.1694 -0.7074
 5550TIP3    H138065   4.630   4.935  16.275 -0.3414 -1.2280  1.8717
 5550TIP3    H238066   4.495   4.883  16.230  0.0206 -0.6380  0.0232
 5551TIP3   OH238067   1.659   5.174   1.150 -0.2629  0.5927  0.4940
 5551TIP3    H138068   1.735   5.116   1.150 -1.0570 -0.4903  0.2297
 5551TIP3    H238069   1.696   5.263   1.146  1.0100  0.0708 -2.8749
 5552TIP3   OH238070   4.514   4.649  12.995  0.5005 -0.3987  0.0879
 5552TIP3    H138071   4.457   4.726  13.002  0.4711 -0.4047 -0.0917
 5552TIP3    H238072   4.508   4.607  13.081 -1.8190 -1.8520 -0.6828
 5553TIP3   OH238073   2.666   5.477  16.397  0.4967  0.5679 -0.5166
 5553TIP3    H138074   2.646   5.563  16.362 -1.2637  0.5070  0.2233
 5553TIP3    H238075   2.599   5.420  16.360  0.6682 -0.1607  0.2584
 5554TIP3   OH238076   6.791   6.533   1.548 -0.1195  0.3556 -0.2156
 5554TIP3    H138077   6.827   6.601   1.604  0.7158 -0.4155  0.2089
 5554TIP3    H238078   6.721   6.493   1.599  0.7972 -0.5055  0.4149
 5555TIP3   OH238079   3.416   6.715  16.378 -0.0010  0.5080 -0.1848
 5555TIP3    H138080   3.458   6.734  16.462 -3.4838 -1.0008  2.1317
 5555TIP3    H238081   3.462   6.637  16.345 -0.4735 -0.7445  1.9498
 5556TIP3   OH238082   6.243   3.431   2.005 -0.0789 -0.3075  0.1359
 5556TIP3    H138083   6.193   3.503   2.045 -0.8222 -0.3954 -0.6079
 5556TIP3    H238084   6.271   3.378   2.079 -2.7273 -1.3180  0.5212
 5557TIP3   OH238085   6.013   2.410   5.688  0.1666 -0.6096 -0.5037
 5557TIP3    H138086   6.024   2.472   5.759  1.4875  0.5673 -1.6788
 5557TIP3    H238087   5.942   2.352   5.717 -0.1141  0.5448  1.2310
 5558TIP3   OH238088   3.724   3.798  14.982  0.6203  0.1388  0.0628
 5558TIP3    H138089   3.761   3.751  15.056  1.9123 -0.8209 -1.1504
 5558TIP3    H238090   3.661   3.858  15.022 -0.9606 -2.4264  1.6892
 5559TIP3   OH238091   2.641   4.447   6.601  0.8265  0.2263  0.2960
 5559TIP3    H138092   2.575   4.512   6.574 -0.5618 -0.9064  0.8145
 5559TIP3    H238093   2.712   4.499   6.639 -0.2824  1.4407  0.7896
 5560TIP3   OH238094   4.756   3.667   3.586  0.4548  0.0550 -0.4992
 5560TIP3    H138095   4.741   3.758   3.610  0.1389  0.1119 -0.9015
 5560TIP3    H238096   4.764   3.668   3.490  2.8015 -0.0049 -0.3744
 5561TIP3   OH238097   4.754   3.259   1.777  0.1099 -0.5182 -0.1246
 5561TIP3    H138098   4.836   3.298   1.746  0.1146 -0.6448 -0.2756
 5561TIP3    H238099   4.758   3.268   1.873 -0.4723  0.9925 -0.2131
 5562TIP3   OH238100   1.634   3.499   4.136 -0.3798  0.3697 -0.0419
 5562TIP3    H138101   1.609   3.460   4.053 -0.1021  0.0767  0.0078
 5562TIP3    H238102   1.671   3.425   4.187  1.4961  0.9505 -0.4714
 5563TIP3   OH238103   6.082   6.650   2.026  0.0934 -0.6509 -0.6148
 5563TIP3    H138104   5.992   6.678   2.045  0.7690  1.6407 -0.5287
 5563TIP3    H238105   6.116   6.620   2.110  0.4522  1.7803  0.2109
 5564TIP3   OH238106   1.254   6.441  15.318  0.1231 -0.3314 -0.4621
 5564TIP3    H138107   1.301   6.522  15.297  0.4178 -0.6382 -1.0155
 5564TIP3    H238108   1.323   6.375  15.327 -0.0747 -0.4228  0.5019
 5565TIP3   OH238109   1.131   5.415   3.342  0.3885  0.4406 -0.5488
 5565TIP3    H138110   1.165   5.504   3.334  0.8219  0.3041 -0.2533
 5565TIP3    H238111   1.152   5.373   3.259  1.6530  0.1191 -0.0808
 5566TIP3   OH238112   1.764   0.351   4.326  0.0693  0.4293 -0.4412
 5566TIP3    H138113   1.850   0.308   4.327 -0.7250 -1.4236  2.5699
 5566TIP3    H238114   1.720   0.318   4.404 -2.7334  2.7312 -0.8697
 5567TIP3   OH238115   4.610   0.072   0.630  0.2967 -0.6824 -0.4362
 5567TIP3    H138116   4.538   0.010   0.632 -0.0774 -0.2422 -0.0416
 5567TIP3    H238117   4.574   0.149   0.585  0.4863 -0.4215 -0.1456
 5568TIP3   OH238118   0.004   6.332  13.416  0.4897 -0.3818 -0.3363
 5568TIP3    H138119   0.076   6.373  13.464  0.3714  0.6671 -1.0110
 5568TIP3    H238120  -0.072   6.340  13.474  0.6408 -0.3526 -0.1428
 5569TIP3   OH238121   4.344   3.685   6.039 -0.4298 -0.2007 -0.1539
 5569TIP3    H138122   4.322   3.600   6.001 -0.3554  0.7913 -2.6332
 5569TIP3    H238123   4.411   3.666   6.104 -0.5705 -2.0617 -0.4968
 5570TIP3   OH238124   3.162   4.074   2.597  0.3321 -0.3512 -0.6085
 5570TIP3    H138125   3.068   4.080   2.616  0.5600  2.0183  0.0137
 5570TIP3    H238126   3.179   3.980   2.594 -2.2729 -0.8701 -1.8965
 5571TIP3   OH238127   3.905   3.740  12.137  0.4034  0.4262 -0.0461
 5571TIP3    H138128   3.848   3.795  12.083 -2.1589  0.8108  2.8479
 5571TIP3    H238129   3.854   3.662  12.155  1.4851 -0.0264  1.1875
 5572TIP3   OH238130   0.040   4.548  14.905 -0.1119 -0.4803  0.4143
 5572TIP3    H138131   0.080   4.507  14.982  2.5533  2.2308  0.6636
 5572TIP3    H238132   0.114   4.581  14.854 -1.9279  1.3178 -1.2522
 5573TIP3   OH238133   2.764   4.125   0.301 -0.2491  0.7806  0.0400
 5573TIP3    H138134   2.679   4.107   0.342  0.1877  2.0849  1.5905
 5573TIP3    H238135   2.743   4.181   0.226 -0.8195  0.4832 -0.0306
 5574TIP3   OH238136   5.085   0.498  15.646  0.1414 -0.5562 -0.1722
 5574TIP3    H138137   5.141   0.540  15.711  0.2728 -0.0679 -0.5912
 5574TIP3    H238138   5.139   0.429  15.608  1.0255  0.8466 -1.6157
 5575TIP3   OH238139   4.177   5.022  12.469 -0.2353  0.0668  0.1874
 5575TIP3    H138140   4.144   5.109  12.448 -0.4060 -0.1045 -0.2710
 5575TIP3    H238141   4.268   5.023  12.440 -0.4918 -0.1926 -0.6343
 5576TIP3   OH238142   4.624   1.707   2.979 -0.2717 -0.5022 -0.4092
 5576TIP3    H138143   4.587   1.625   3.014 -1.6228 -0.5103 -1.7416
 5576TIP3    H238144   4.718   1.698   2.990 -0.5213 -1.2863  1.4777
 5577TIP3   OH238145   0.857   0.365  16.248 -0.4704 -0.2884  0.5166
 5577TIP3    H138146   0.938   0.383  16.201  0.3233 -0.7324  1.6831
 5577TIP3    H238147   0.809   0.447  16.245 -0.2097 -0.1514 -0.5799
 5578TIP3   OH238148   0.518   5.753  16.309  0.2759 -0.4061 -0.6412
 5578TIP3    H138149   0.524   5.846  16.330  1.0023 -0.1918 -1.6968
 5578TIP3    H238150   0.442   5.722  16.358 -0.4011  0.8968 -0.8216
 5579TIP3   OH238151   5.337   3.529   2.845 -0.1342 -0.0171 -0.6064
 5579TIP3    H138152   5.340   3.580   2.764 -0.0599 -0.2751 -0.7648
 5579TIP3    H238153   5.250   3.547   2.881 -1.4104 -2.2969 -2.2882
 5580TIP3   OH238154   0.782   4.553   5.171  0.1696  1.1044  0.0232
 5580TIP3    H138155   0.740   4.610   5.106  0.0225 -0.0856 -0.9815
 5580TIP3    H238156   0.716   4.485   5.188  1.0020  0.2113 -0.2261
 5581TIP3   OH238157   2.593   4.824   5.787 -0.1673  0.5660  0.0487
 5581TIP3    H138158   2.578   4.815   5.881 -0.7846  1.0360  0.0019
 5581TIP3    H238159   2.584   4.736   5.752 -0.3826  0.4598  0.3713
 5582TIP3   OH238160   1.016   2.394  13.408 -0.2539  0.4900  0.2295
 5582TIP3    H138161   0.982   2.424  13.492 -0.4524  1.6819 -0.2520
 5582TIP3    H238162   0.939   2.384  13.352 -0.0056  1.2518 -0.2720
 5583TIP3   OH238163   0.281   2.605  14.450  0.1034  0.3482  0.2986
 5583TIP3    H138164   0.228   2.665  14.397  1.6288  1.6418  0.1393
 5583TIP3    H238165   0.260   2.630  14.540  0.3476  0.7717  0.2398
 5584TIP3   OH238166   0.313   5.396  14.666 -0.1979  0.0268 -0.2784
 5584TIP3    H138167   0.342   5.410  14.756 -1.1592  0.1073  0.0325
 5584TIP3    H238168   0.355   5.466  14.616 -1.2573  1.2536  0.4671
 5585TIP3   OH238169   6.772   0.548   6.350  0.0605  0.0565  0.2715
 5585TIP3    H138170   6.767   0.458   6.316  1.5057 -0.4125  1.2206
 5585TIP3    H238171   6.782   0.602   6.272  1.7998 -0.8612 -0.1800
 5586TIP3   OH238172   5.791   1.823   5.659 -0.1523 -0.2885 -0.6851
 5586TIP3    H138173   5.775   1.729   5.645 -1.0707 -0.4096  0.9546
 5586TIP3    H238174   5.704   1.860   5.671  0.2935  0.4760  0.3429
 5587TIP3   OH238175   1.957   2.020   1.758  0.4378 -0.4428 -0.1479
 5587TIP3    H138176   1.869   1.997   1.729  1.1925  0.0327 -3.1792
 5587TIP3    H238177   1.952   2.113   1.779 -0.0183 -0.6798  0.8412
 5588TIP3   OH238178   1.769   2.100   0.366  0.2054  0.0734 -0.1357
 5588TIP3    H138179   1.807   2.045   0.298  0.2322 -2.3807  1.7114
 5588TIP3    H238180   1.676   2.076   0.367  0.5099 -1.2522  1.7461
 5589TIP3   OH238181   6.126   5.235  16.977  0.1585  0.3183 -0.1041
 5589TIP3    H138182   6.220   5.252  16.973  0.0797  0.7745 -0.0854
 5589TIP3    H238183   6.110   5.209  17.067  0.1516  0.9798  0.0933
 5590TIP3   OH238184   6.434   6.273  16.253 -0.0567 -0.6541 -0.1585
 5590TIP3    H138185   6.512   6.232  16.215 -0.3395  0.9795 -2.7625
 5590TIP3    H238186   6.361   6.235  16.206 -0.6924 -0.6084  0.7601
 5591TIP3   OH238187   6.647   2.453  13.189 -0.6102 -0.4053 -0.1591
 5591TIP3    H138188   6.649   2.542  13.154 -0.5219 -0.3483 -0.0075
 5591TIP3    H238189   6.639   2.465  13.284  1.9934 -0.5103  0.1351
 5592TIP3   OH238190   3.076   6.607   4.312  0.0260  0.0051  0.0791
 5592TIP3    H138191   2.987   6.603   4.278 -0.2032 -2.1814  0.7739
 5592TIP3    H238192   3.131   6.624   4.235 -0.9737  1.6279 -0.3159
 5593TIP3   OH238193   5.229   0.242   5.188 -0.0094 -0.6017  0.0659
 5593TIP3    H138194   5.167   0.207   5.124 -0.9592 -2.3821  1.8611
 5593TIP3    H238195   5.189   0.324   5.217 -0.7984 -1.0137  0.1557
 5594TIP3   OH238196   2.216   4.236  16.548 -0.1133 -0.0841  0.2169
 5594TIP3    H138197   2.161   4.300  16.592 -1.2971  0.5837 -2.0538
 5594TIP3    H238198   2.194   4.152  16.588  0.8673  0.7330  2.6770
 5595TIP3   OH238199   0.022   0.877   2.134 -0.1416  0.1282  0.1495
 5595TIP3    H138200  -0.013   0.828   2.059  1.8302 -1.4588  0.1617
 5595TIP3    H238201  -0.017   0.835   2.211  2.3950 -2.4051  0.2266
 5596TIP3   OH238202   5.096   4.315   3.834  0.0651  0.9634 -0.2705
 5596TIP3    H138203   5.127   4.380   3.896 -0.4455 -0.2282  1.3163
 5596TIP3    H238204   5.053   4.365   3.765  0.0934  2.3080  0.6640
 5597TIP3   OH238205   1.869   1.576  15.153 -0.4802  0.0402  0.1150
 5597TIP3    H138206   1.783   1.600  15.188 -0.9407 -0.0627 -0.9041
 5597TIP3    H238207   1.915   1.660  15.145  1.4935 -0.1572  5.3103
 5598TIP3   OH238208   2.396   2.262   1.538  0.3485 -0.1353 -0.3021
 5598TIP3    H138209   2.394   2.167   1.550  0.7221 -0.2537 -1.1762
 5598TIP3    H238210   2.396   2.296   1.628 -0.1277 -0.9456  0.0227
 5599TIP3   OH238211   0.087   6.522  12.476  0.1447  0.3209  0.1592
 5599TIP3    H138212   0.027   6.571  12.419  1.5354  3.2281  1.0059
 5599TIP3    H238213   0.040   6.515  12.559 -0.0552  0.1796  0.0367
 5600TIP3   OH238214   2.550   3.314   0.690  0.7334  0.7369  0.7136
 5600TIP3    H138215   2.583   3.382   0.632 -0.5453  0.0080 -0.9446
 5600TIP3    H238216   2.526   3.241   0.632 -1.1712  0.2016  2.0590
 5601TIP3   OH238217   2.686   3.512  12.465  0.0123  0.1801 -0.2031
 5601TIP3    H138218   2.726   3.465  12.538  0.4051  1.0309  0.1459
 5601TIP3    H238219   2.601   3.541  12.500 -1.0298 -1.7188 -0.9775
 5602TIP3   OH238220   1.478   0.422   3.674 -0.7173 -0.2682 -0.3664
 5602TIP3    H138221   1.487   0.485   3.745 -2.6890  0.1733 -0.4628
 5602TIP3    H238222   1.535   0.349   3.699  0.4648  0.8906  0.4704
 5603TIP3   OH238223   1.886   3.001   4.699 -0.1153  0.2311  0.5521
 5603TIP3    H138224   1.960   2.941   4.705 -0.1939  0.0289 -0.4007
 5603TIP3    H238225   1.916   3.081   4.741  1.0102  0.4937 -0.6980
 5604TIP3   OH238226   0.510   1.693   4.567 -0.0901 -0.2943 -0.3445
 5604TIP3    H138227   0.539   1.782   4.546 -0.1714 -0.3537 -0.7037
 5604TIP3    H238228   0.446   1.672   4.499 -2.7744  0.7149  1.6698
 5605TIP3   OH238229   3.180   3.464  14.912 -0.2830 -0.0965  0.2918
 5605TIP3    H138230   3.182   3.438  14.819  0.0476  3.0227 -0.6980
 5605TIP3    H238231   3.213   3.387  14.959  2.3521 -0.8410 -2.4436
 5606TIP3   OH238232   1.802   3.442   0.335 -0.4236  0.1901 -0.0888
 5606TIP3    H138233   1.710   3.449   0.312 -0.1829 -0.6621 -1.3746
 5606TIP3    H238234   1.815   3.350   0.358  0.0097  0.4079  0.6007
 5607TIP3   OH238235   6.078   2.520   0.743 -0.3030 -0.1008 -0.2574
 5607TIP3    H138236   6.158   2.518   0.796  0.4654 -0.2571 -1.4062
 5607TIP3    H238237   6.097   2.582   0.673 -0.7650 -0.9965 -1.1998
 5608TIP3   OH238238   5.028   4.166  13.475  0.4458  0.0066 -0.0464
 5608TIP3    H138239   4.987   4.212  13.548 -0.7727  1.7538 -1.7327
 5608TIP3    H238240   4.983   4.082  13.471  0.2349  0.0677  0.9330
 5609TIP3   OH238241   3.739   0.740  12.577  0.1324 -0.1031  0.4229
 5609TIP3    H138242   3.759   0.806  12.643  0.7431  0.1716 -0.0201
 5609TIP3    H238243   3.815   0.742  12.518  0.0152 -0.9765  0.2242
 5610TIP3   OH238244   6.345   3.309  15.825 -0.7931 -0.1504 -0.6524
 5610TIP3    H138245   6.425   3.281  15.782 -0.7453 -0.5571 -0.3082
 5610TIP3    H238246   6.281   3.240  15.805 -0.8095 -0.2695 -0.2039
 5611TIP3   OH238247   5.401   5.033   2.103  0.1731  0.3423  0.0891
 5611TIP3    H138248   5.494   5.011   2.107 -0.2228 -1.6195 -0.4270
 5611TIP3    H238249   5.358   4.967   2.157 -0.8494  1.9692  1.3505
 5612TIP3   OH238250   5.903   1.555  11.907  0.6388 -0.3484 -0.0848
 5612TIP3    H138251   5.901   1.485  11.973  0.8207 -1.4076 -1.1579
 5612TIP3    H238252   5.972   1.528  11.847 -0.6937 -0.3644 -1.6874
 5613TIP3   OH238253   0.118   3.586   5.655 -0.7996 -0.0286 -0.0817
 5613TIP3    H138254   0.120   3.619   5.745  1.3638  2.1640 -0.8024
 5613TIP3    H238255   0.203   3.542   5.645 -1.5551 -1.4166 -0.7277
 5614TIP3   OH238256   4.719   2.315   4.436 -0.1566  0.5227  0.1865
 5614TIP3    H138257   4.800   2.349   4.473 -0.1057 -1.3189  1.9457
 5614TIP3    H238258   4.651   2.372   4.471  0.2310  1.1986 -0.1378
 5615TIP3   OH238259   4.105   6.274  12.008 -0.4466 -0.5641 -0.0328
 5615TIP3    H138260   4.130   6.244  11.920 -0.5025  0.0302 -0.2541
 5615TIP3    H238261   4.010   6.281  12.004 -0.5437 -1.5008  0.3890
 5616TIP3   OH238262   4.573   4.305   1.717 -0.3824  0.4621 -0.3517
 5616TIP3    H138263   4.600   4.253   1.792 -1.4298  0.4044  0.0084
 5616TIP3    H238264   4.646   4.300   1.656 -0.3584 -1.2215 -0.2218
 5617TIP3   OH238265   2.458   3.344   3.956  0.4147  0.2562  0.4753
 5617TIP3    H138266   2.435   3.437   3.955  1.1589  0.4399  0.0423
 5617TIP3    H238267   2.553   3.342   3.964  0.5148 -0.4494 -0.7170
 5618TIP3   OH238268   6.748   2.158   0.771 -0.3173  0.2802 -0.6059
 5618TIP3    H138269   6.665   2.176   0.816 -0.6105  0.3746 -1.1740
 5618TIP3    H238270   6.803   2.234   0.791 -0.0076 -0.2295  0.5760
 5619TIP3   OH238271   1.622   2.346  11.831  0.1190 -0.2261 -0.8152
 5619TIP3    H138272   1.717   2.347  11.822  0.5452  0.7369  2.5010
 5619TIP3    H238273   1.590   2.400  11.758  2.3226  1.7762 -0.4142
 5620TIP3   OH238274   5.752   0.579  15.435  0.3500  0.2233 -0.1670
 5620TIP3    H138275   5.734   0.496  15.392  0.0462  0.4622 -0.5000
 5620TIP3    H238276   5.797   0.632  15.369  1.3341  0.0115  0.3202
 5621TIP3   OH238277   5.842   3.133   1.326  0.0214 -0.0567 -0.1379
 5621TIP3    H138278   5.882   3.057   1.368  0.3483  0.2793  0.1675
 5621TIP3    H238279   5.881   3.208   1.370  0.5850  0.3135 -1.2189
 5622TIP3   OH238280   0.438   1.713  15.100  0.9045  0.4138  0.4894
 5622TIP3    H138281   0.431   1.742  15.191 -0.6916 -0.0535  0.5414
 5622TIP3    H238282   0.385   1.776  15.051  2.2558  1.0309 -0.2313
 5623TIP3   OH238283   6.367   0.010  17.013  0.6012 -0.3404 -0.3084
 5623TIP3    H138284   6.337  -0.078  16.990  1.6371 -0.2461 -2.1585
 5623TIP3    H238285   6.380   0.054  16.929  1.5238  1.0920  0.5429
 5624TIP3   OH238286   1.314   3.315  11.918  0.6152 -0.0434  0.2543
 5624TIP3    H138287   1.278   3.389  11.968  0.2335 -1.1002  1.5898
 5624TIP3    H238288   1.240   3.256  11.906  1.7496 -2.2506  3.0232
 5625TIP3   OH238289   4.515   6.101  11.311  0.0475  0.1255  0.2146
 5625TIP3    H138290   4.438   6.140  11.270 -0.3383 -0.2486  0.5712
 5625TIP3    H238291   4.502   6.113  11.405 -0.9057 -2.2670  0.4608
 5626TIP3   OH238292   3.168   3.472   3.562 -0.0913 -0.3295 -0.0585
 5626TIP3    H138293   3.136   3.557   3.532  3.7128  2.0923  1.9105
 5626TIP3    H238294   3.117   3.454   3.641  0.2039  1.0823  0.4844
 5627TIP3   OH238295   1.859   6.685  14.274  0.2493 -0.2933  0.8698
 5627TIP3    H138296   1.872   6.775  14.245  1.8749 -0.6029  0.5845
 5627TIP3    H238297   1.867   6.632  14.194 -1.3046 -0.6831  0.9211
 5628TIP3   OH238298   2.023   5.299  14.978  0.2808 -0.1977  0.1687
 5628TIP3    H138299   1.983   5.216  14.953  1.4342 -0.9725  0.8473
 5628TIP3    H238300   2.071   5.326  14.900 -0.5044  0.0989 -0.2221
 5629TIP3   OH238301   1.187   2.436  16.638  0.5823  0.1777  0.0500
 5629TIP3    H138302   1.119   2.380  16.602  1.4826 -1.1252  0.3131
 5629TIP3    H238303   1.268   2.407  16.595  0.7712  3.1791 -2.0053
 5630TIP3   OH238304   4.121   2.766  12.153 -0.1358  0.0592 -0.0529
 5630TIP3    H138305   4.214   2.769  12.131 -0.5448 -0.9135 -2.0815
 5630TIP3    H238306   4.114   2.699  12.221  0.6016 -0.0038 -0.0361
 5631TIP3   OH238307   4.701   6.480   1.141 -0.2871  0.6301 -0.0947
 5631TIP3    H138308   4.722   6.534   1.065  1.3120 -0.8221 -0.7479
 5631TIP3    H238309   4.642   6.413   1.107 -1.0433  1.0480  0.3727
 5632TIP3   OH238310   5.958   4.013   3.834 -0.3685 -0.0537  0.0244
 5632TIP3    H138311   5.906   4.065   3.773  0.2153 -0.5861 -0.9538
 5632TIP3    H238312   6.025   4.074   3.865  0.2530 -0.1656 -1.0402
 5633TIP3   OH238313   5.921   5.975  16.357 -0.1872 -0.0408 -0.2562
 5633TIP3    H138314   5.994   5.913  16.354 -0.9017 -0.8630 -2.5693
 5633TIP3    H238315   5.959   6.056  16.390  1.4211 -0.8793  0.0363
 5634TIP3   OH238316   3.438   1.740  13.198  0.6670 -0.0643 -0.0538
 5634TIP3    H138317   3.503   1.693  13.250  1.0016  0.6310  0.1664
 5634TIP3    H238318   3.452   1.833  13.219  0.6182  0.2080 -1.1678
 5635TIP3   OH238319   0.759   3.401  11.674 -0.5252  0.2154  0.0879
 5635TIP3    H138320   0.726   3.314  11.696 -0.7598  0.3658  0.3409
 5635TIP3    H238321   0.784   3.439  11.758  1.4252 -0.3359 -0.1877
 5636TIP3   OH238322   5.744   3.840   3.354 -0.0608 -0.0701  0.5342
 5636TIP3    H138323   5.655   3.809   3.373 -0.9754  1.7133 -0.5701
 5636TIP3    H238324   5.733   3.902   3.282  2.0739  0.3408  0.5025
 5637TIP3   OH238325   1.520   6.509   4.457 -0.2103  0.1304 -0.2911
 5637TIP3    H138326   1.447   6.450   4.441  1.5081 -1.9767 -0.8937
 5637TIP3    H238327   1.590   6.452   4.489  1.0427  2.1242  0.7074
 5638TIP3   OH238328   2.223   0.440   5.898  0.8553 -0.0857 -0.4504
 5638TIP3    H138329   2.218   0.468   5.989  0.1024 -0.4036 -0.3891
 5638TIP3    H238330   2.231   0.344   5.904  0.3772 -0.1424 -0.7275
 5639TIP3   OH238331   2.480   1.521   5.611 -0.1325 -0.0406 -0.1420
 5639TIP3    H138332   2.410   1.464   5.640 -0.0026 -0.3008 -0.3417
 5639TIP3    H238333   2.560   1.472   5.629 -0.0211  0.0716 -0.3332
 5640TIP3   OH238334   1.865   1.557   1.146  0.0240  0.1025 -0.8818
 5640TIP3    H138335   1.792   1.522   1.197 -0.1334  0.0331 -1.1470
 5640TIP3    H238336   1.909   1.619   1.204 -0.4144  0.3514 -0.8154
 5641TIP3   OH238337   2.685   1.243  15.462  0.4289  0.0894 -0.1438
 5641TIP3    H138338   2.631   1.322  15.452  0.0349 -0.4400 -3.1794
 5641TIP3    H238339   2.636   1.188  15.523 -0.9279  0.9175 -0.4413
 5642TIP3   OH238340   3.380   4.622  16.551 -0.0440  0.0795 -0.5111
 5642TIP3    H138341   3.322   4.620  16.627 -1.1649  1.9622 -1.2295
 5642TIP3    H238342   3.389   4.715  16.530  3.2309 -0.1179 -0.5117
 5643TIP3   OH238343   1.540   1.060  12.927 -0.1868  0.5104 -0.0428
 5643TIP3    H138344   1.459   1.078  12.976 -1.0571 -0.4989 -1.0599
 5643TIP3    H238345   1.594   1.010  12.988 -1.4427 -1.1400 -0.2268
 5644TIP3   OH238346   1.477   6.417  13.655  0.3442  0.3429 -0.2642
 5644TIP3    H138347   1.459   6.385  13.744  0.4884  0.7894 -0.0669
 5644TIP3    H238348   1.424   6.361  13.598 -0.3820  0.5638  0.1737
 5645TIP3   OH238349   1.681   2.388  12.509 -0.0898 -0.1006  0.1360
 5645TIP3    H138350   1.702   2.363  12.419 -0.8562  2.4866 -0.8490
 5645TIP3    H238351   1.586   2.399  12.509 -0.1478 -0.4436  1.3900
 5646TIP3   OH238352   1.051   3.649  15.187 -0.0186  0.1063  0.3235
 5646TIP3    H138353   0.983   3.663  15.120 -1.1018 -1.6666  0.9900
 5646TIP3    H238354   1.021   3.701  15.262 -0.2809 -0.1124  0.3733
 5647TIP3   OH238355   2.181   5.108   0.715 -0.1138 -0.5366  0.3519
 5647TIP3    H138356   2.228   5.191   0.707 -0.7303 -0.0722  1.3924
 5647TIP3    H238357   2.227   5.048   0.656 -0.8922  1.0676 -2.0564
 5648TIP3   OH238358   5.175   2.762   0.383  0.6877 -0.9314 -0.1495
 5648TIP3    H138359   5.096   2.801   0.346  1.2640  3.2220  2.3496
 5648TIP3    H238360   5.237   2.760   0.311 -0.2161  0.5603 -1.0279
 5649TIP3   OH238361   5.449   4.283   0.214  0.2601  0.1049 -1.1784
 5649TIP3    H138362   5.543   4.272   0.199  0.3822 -0.5491 -0.0607
 5649TIP3    H238363   5.408   4.246   0.136  0.9325  1.4642 -2.2158
 5650TIP3   OH238364   3.182   6.660   0.371 -0.7748  0.3828  0.2202
 5650TIP3    H138365   3.151   6.706   0.292  0.7676  1.7305  0.3568
 5650TIP3    H238366   3.179   6.567   0.347 -1.9632  0.6580 -0.8076
 5651TIP3   OH238367   5.990   4.618  11.973  0.5583 -0.1522 -0.2245
 5651TIP3    H138368   6.004   4.525  11.992  2.0329  0.2888  1.0048
 5651TIP3    H238369   5.926   4.647  12.038 -1.1061 -0.6046 -1.5722
 5652TIP3   OH238370   1.496   4.392   0.821 -0.5350 -0.5508 -1.0605
 5652TIP3    H138371   1.541   4.476   0.812 -2.5331  0.4806 -2.5792
 5652TIP3    H238372   1.560   4.327   0.791  1.3377  0.2728  0.9184
 5653TIP3   OH238373   1.308   3.038  11.257  0.0787  0.2354 -0.1229
 5653TIP3    H138374   1.393   3.023  11.217  0.0018  1.5665 -0.8743
 5653TIP3    H238375   1.251   2.970  11.220  0.5502  0.0475 -0.5104
 5654TIP3   OH238376   0.235   4.293   3.649 -0.2720  0.2590  0.3643
 5654TIP3    H138377   0.290   4.230   3.696 -0.7448 -0.0502  0.5096
 5654TIP3    H238378   0.202   4.245   3.573  0.4412  0.7408 -0.2568
 5655TIP3   OH238379   6.452   5.699   5.348  0.3224  0.1679 -0.0399
 5655TIP3    H138380   6.378   5.639   5.348  0.9491 -0.6224  0.7390
 5655TIP3    H238381   6.480   5.703   5.257  0.0873 -0.4853 -0.1460
 5656TIP3   OH238382   5.334   5.185  16.490 -0.0951  0.1539 -0.2157
 5656TIP3    H138383   5.256   5.190  16.545  0.5389 -1.2684  0.8738
 5656TIP3    H238384   5.314   5.241  16.415 -1.4776  1.1531  0.8506
 5657TIP3   OH238385   0.726   5.633  13.167  0.1622 -0.2048 -0.9678
 5657TIP3    H138386   0.735   5.605  13.075 -2.5941  1.5892 -1.9158
 5657TIP3    H238387   0.645   5.684  13.168 -0.2494 -0.7103  2.6475
 5658TIP3   OH238388   6.140   0.152   2.843 -0.0113 -0.0313  0.0852
 5658TIP3    H138389   6.168   0.155   2.935  2.2913 -1.1749 -0.5232
 5658TIP3    H238390   6.147   0.243   2.814 -0.4737  0.2946  0.9242
 5659TIP3   OH238391   0.632   0.848  15.764 -0.1349 -0.0857  0.2039
 5659TIP3    H138392   0.654   0.896  15.684 -3.4676  1.2120 -0.0814
 5659TIP3    H238393   0.638   0.756  15.739 -1.0326  0.2899 -1.5349
 5660TIP3   OH238394   5.360   4.005   4.303 -0.2728 -0.4856  0.4441
 5660TIP3    H138395   5.275   3.960   4.300 -1.1617  1.1853 -1.0375
 5660TIP3    H238396   5.340   4.092   4.336  0.5699  0.4423 -1.3206
 5661TIP3   OH238397   2.544   5.699  15.258  0.0469  0.0923 -0.3794
 5661TIP3    H138398   2.451   5.712  15.274 -0.2644  0.2739 -2.1605
 5661TIP3    H238399   2.585   5.714  15.343 -1.2867  2.5782 -0.0866
 5662TIP3   OH238400   0.703   1.986  15.354  0.2115  0.0403  0.3329
 5662TIP3    H138401   0.741   2.071  15.375  2.5597 -0.9274  0.2649
 5662TIP3    H238402   0.695   1.986  15.258 -2.3767  1.1411  0.4528
 5663TIP3   OH238403   5.912   2.011  12.164  0.0574 -0.2790 -0.6327
 5663TIP3    H138404   6.000   1.982  12.184 -0.2094 -0.0640  1.0791
 5663TIP3    H238405   5.922   2.104  12.141  0.3543 -0.4676 -1.2943
 5664TIP3   OH238406   0.548   3.346  10.850  0.2647 -0.1559 -0.2156
 5664TIP3    H138407   0.542   3.367  10.943  1.8322 -1.0069  0.1020
 5664TIP3    H238408   0.602   3.416  10.813 -2.0665  1.3886 -0.9624
 5665TIP3   OH238409   1.523   4.624  12.650 -0.2675 -0.4240 -0.0228
 5665TIP3    H138410   1.577   4.685  12.600 -2.1862  1.8299  0.4728
 5665TIP3    H238411   1.461   4.590  12.586 -0.2544 -0.5736  0.0446
 5666TIP3   OH238412   6.420   5.270  10.639  0.0900  0.1600  0.1495
 5666TIP3    H138413   6.332   5.306  10.653 -0.4132 -1.0739  0.3370
 5666TIP3    H238414   6.474   5.346  10.619 -1.0595  0.9319 -0.1578
 5667TIP3   OH238415   3.214   4.685  11.823  0.2542  0.2215  0.0076
 5667TIP3    H138416   3.160   4.726  11.755  0.3889 -2.1675 -1.6553
 5667TIP3    H238417   3.291   4.652  11.777  0.3726 -1.4709  1.3094
 5668TIP3   OH238418   4.602   6.556  13.489 -0.0286 -0.4733 -0.6184
 5668TIP3    H138419   4.511   6.541  13.516 -0.2531  1.0199 -0.4385
 5668TIP3    H238420   4.623   6.481  13.433 -1.1873 -1.1181 -0.2288
 5669TIP3   OH238421   6.105   1.247   1.325 -0.5624 -0.0213  0.0572
 5669TIP3    H138422   6.158   1.206   1.394 -0.2058 -0.1059 -0.2632
 5669TIP3    H238423   6.157   1.236   1.245 -0.9011  0.2153 -0.1984
 5670TIP3   OH238424   5.398   2.540   1.849  0.0176  0.1208  0.0659
 5670TIP3    H138425   5.412   2.446   1.836 -0.8119 -0.1039  0.7551
 5670TIP3    H238426   5.480   2.571   1.887  0.2589 -0.3377 -0.0736
 5671TIP3   OH238427   0.987   6.236   0.544 -0.0762  0.2288  0.9404
 5671TIP3    H138428   1.068   6.259   0.588  0.9557 -2.4286  0.5897
 5671TIP3    H238429   0.935   6.190   0.610 -0.0392 -0.6128  0.4004
 5672TIP3   OH238430   4.230   3.974   2.285  0.7625 -0.6468 -0.3430
 5672TIP3    H138431   4.296   4.035   2.316  0.5762 -0.1874 -0.8432
 5672TIP3    H238432   4.149   4.002   2.327  1.1844 -2.3350  1.7661
 5673TIP3   OH238433   3.479   2.636   0.156 -0.0677 -0.0183 -0.3670
 5673TIP3    H138434   3.454   2.715   0.202 -3.3617 -1.1495  0.0565
 5673TIP3    H238435   3.471   2.566   0.221 -0.3776 -1.0991 -1.5236
 5674TIP3   OH238436   1.081   6.240   0.152 -0.4783 -0.0819 -0.4553
 5674TIP3    H138437   1.126   6.288   0.222  0.4355  0.5426 -1.4311
 5674TIP3    H238438   1.024   6.178   0.198  1.5751 -1.1053  0.8620
 5675TIP3   OH238439   0.763   5.150   5.030  0.3486  0.0205  0.6169
 5675TIP3    H138440   0.848   5.114   5.003 -0.0041 -0.9812  0.8026
 5675TIP3    H238441   0.746   5.221   4.968 -0.1738 -1.8277 -1.4890
 5676TIP3   OH238442   1.697   5.867  13.305 -0.4443  0.9691 -0.3763
 5676TIP3    H138443   1.745   5.799  13.352  0.8051 -0.1941 -3.0785
 5676TIP3    H238444   1.669   5.929  13.372  1.9806 -0.0678  1.7332
 5677TIP3   OH238445   0.832   2.152  13.670  0.3662  0.5075 -0.1794
 5677TIP3    H138446   0.797   2.186  13.752  0.8614 -1.7408  1.0434
 5677TIP3    H238447   0.787   2.202  13.602 -0.8806  1.6596  1.4156
 5678TIP3   OH238448   6.628   5.045   3.554 -0.4316  0.3436 -0.5093
 5678TIP3    H138449   6.643   4.954   3.529  1.6596  0.2852  0.6978
 5678TIP3    H238450   6.551   5.041   3.612 -1.2110 -0.4278 -1.5656
 5679TIP3   OH238451   0.405   4.850  14.424  0.4293 -0.1445  0.8656
 5679TIP3    H138452   0.337   4.879  14.363  1.9155 -0.2801 -0.9448
 5679TIP3    H238453   0.357   4.826  14.503 -1.6302 -0.1981 -0.3099
 5680TIP3   OH238454   3.824   1.894  14.811 -0.3873 -0.1863 -0.5040
 5680TIP3    H138455   3.856   1.807  14.787  0.7960 -0.0275  0.3785
 5680TIP3    H238456   3.900   1.951  14.801 -0.5983  0.3710  0.8177
 5681TIP3   OH238457   0.920   1.495  16.375 -0.0412  0.1344  0.4027
 5681TIP3    H138458   0.998   1.546  16.351  0.3316 -0.0154  1.2784
 5681TIP3    H238459   0.934   1.409  16.335 -0.3969  0.5146 -0.5756
 5682TIP3   OH238460   2.084   4.079   0.441 -0.1304  0.3360  0.1030
 5682TIP3    H138461   2.079   4.078   0.346 -0.4929 -1.3320  0.0993
 5682TIP3    H238462   2.109   3.989   0.464 -2.6443 -0.0508  1.6882
 5683TIP3   OH238463   1.545   2.301  15.060  0.4992 -0.0816 -0.4793
 5683TIP3    H138464   1.478   2.369  15.071 -1.0029 -1.6349  0.4000
 5683TIP3    H238465   1.553   2.261  15.147  1.9805 -0.4964 -0.7734
 5684TIP3   OH238466   3.495   3.296  12.844 -0.3244  0.0231  0.3702
 5684TIP3    H138467   3.573   3.292  12.899  0.6304  1.2639 -0.8209
 5684TIP3    H238468   3.527   3.273  12.756 -1.7414 -1.6198  0.2218
 5685TIP3   OH238469   6.522   2.155   6.277  0.1315  0.0513  0.0870
 5685TIP3    H138470   6.520   2.251   6.275  0.0500  0.0447 -0.4482
 5685TIP3    H238471   6.468   2.129   6.202  0.4984 -0.4105 -0.0218
 5686TIP3   OH238472   4.919   4.098   5.962 -0.1759  0.3079 -0.5495
 5686TIP3    H138473   5.003   4.076   5.923 -0.3439  0.1261 -0.8099
 5686TIP3    H238474   4.867   4.018   5.956  0.6840 -0.6090  2.5017
 5687TIP3   OH238475   3.671   4.246   2.063  0.0836  1.0263 -0.4567
 5687TIP3    H138476   3.603   4.218   2.002 -2.2236  2.1867  1.4235
 5687TIP3    H238477   3.661   4.341   2.068 -0.3862  0.8962  2.2959
 5688TIP3   OH238478   6.284   3.290   5.705  0.3484 -0.3972 -0.2305
 5688TIP3    H138479   6.249   3.222   5.763 -0.0890  0.7306  0.8718
 5688TIP3    H238480   6.332   3.349   5.763  0.9832  0.0765 -1.2145
 5689TIP3   OH238481   6.231   0.644  13.876  0.3335  0.1476  0.0671
 5689TIP3    H138482   6.313   0.693  13.868  0.4568  0.7063  3.4418
 5689TIP3    H238483   6.182   0.689  13.945 -2.5354 -0.6333 -1.3151
 5690TIP3   OH238484   3.012   2.311  14.027  0.2397 -0.2134 -0.2591
 5690TIP3    H138485   2.940   2.326  14.088 -0.7942 -0.4792 -1.4030
 5690TIP3    H238486   3.022   2.215  14.026 -0.9710 -0.3567 -1.8661
 5691TIP3   OH238487   4.965   6.649   0.758 -0.4194 -0.4296  0.1038
 5691TIP3    H138488   4.935   6.614   0.675  1.2285  0.7195 -1.0354
 5691TIP3    H238489   5.056   6.619   0.765 -0.0732  0.7128  0.7635
 5692TIP3   OH238490   3.132   4.011   3.638  0.2777  0.2683  0.2315
 5692TIP3    H138491   3.040   3.986   3.629  0.3781  0.0932 -0.3226
 5692TIP3    H238492   3.181   3.935   3.609  0.5850  1.0972 -1.5583
 5693TIP3   OH238493   4.808   1.790   4.382 -0.0016 -0.2682  0.4331
 5693TIP3    H138494   4.854   1.739   4.448  0.7990 -0.4924 -0.2759
 5693TIP3    H238495   4.754   1.851   4.432  3.2139  2.0304  1.4434
 5694TIP3   OH238496   3.788   3.150  10.923 -0.3769 -0.3749  0.4435
 5694TIP3    H138497   3.814   3.077  10.980 -2.5561 -1.4117  0.2194
 5694TIP3    H238498   3.756   3.107  10.844 -0.9058  0.8848 -0.0420
 5695TIP3   OH238499   2.887   4.720  16.228  0.7452 -0.0976  0.1537
 5695TIP3    H138500   2.951   4.765  16.283  0.1514 -0.9765  1.6085
 5695TIP3    H238501   2.804   4.730  16.275 -0.7409  2.8155 -2.6424
 5696TIP3   OH238502   2.368   3.492   4.500  0.2174 -0.1986  0.3486
 5696TIP3    H138503   2.340   3.413   4.454 -1.2140  0.6054 -0.2336
 5696TIP3    H238504   2.406   3.460   4.582 -2.6218 -1.4241  1.3041
 5697TIP3   OH238505   0.791   5.580  12.910 -0.2170 -0.3401  0.1517
 5697TIP3    H138506   0.748   5.529  12.842  0.3571 -0.1618 -0.3535
 5697TIP3    H238507   0.774   5.671  12.886 -3.7123 -0.1497  2.5757
 5698TIP3   OH238508   0.965   4.098  13.948 -0.0539 -0.0233 -0.0434
 5698TIP3    H138509   0.881   4.105  13.995  0.0377 -0.8887  0.2816
 5698TIP3    H238510   0.940   4.075  13.859 -0.1620 -0.5058  0.1071
 5699TIP3   OH238511   5.055   0.193  16.457 -0.4978  0.2271 -0.3029
 5699TIP3    H138512   4.960   0.187  16.468 -0.5027  0.3616 -0.2637
 5699TIP3    H238513   5.086   0.236  16.537 -0.3131 -0.5194  0.0379
 5700TIP3   OH238514   1.401   6.465   0.896 -0.4203 -0.0839 -0.2203
 5700TIP3    H138515   1.443   6.505   0.972 -1.2367  1.7952 -0.7043
 5700TIP3    H238516   1.361   6.538   0.849  2.3138 -0.6573 -3.9702
 5701TIP3   OH238517   0.699   0.708  12.223 -0.1457 -0.5937  0.1979
 5701TIP3    H138518   0.643   0.634  12.245 -0.2106 -0.8469 -0.7656
 5701TIP3    H238519   0.639   0.774  12.189 -0.0922 -0.0781  1.0765
 5702TIP3   OH238520   4.147   3.219   0.107 -0.2056  0.3724 -0.4936
 5702TIP3    H138521   4.219   3.172   0.066  1.6469  1.6387  1.0996
 5702TIP3    H238522   4.072   3.205   0.049  1.4939 -0.3560 -2.6441
 5703TIP3   OH238523   6.412   0.730  11.736  0.0565 -0.7352  0.1033
 5703TIP3    H138524   6.417   0.669  11.810  0.6756  0.6120  1.2130
 5703TIP3    H238525   6.496   0.776  11.738 -1.0927  1.4412  0.4345
 5704TIP3   OH238526   4.378   4.621  10.220  0.4233  0.6250 -0.2979
 5704TIP3    H138527   4.451   4.638  10.160 -1.9122  1.4996 -3.0885
 5704TIP3    H238528   4.315   4.690  10.201 -1.6603 -0.7385  1.2140
 5705TIP3   OH238529   5.937   4.300  14.151  0.0666 -0.0040  0.0807
 5705TIP3    H138530   6.004   4.248  14.196  0.0816  1.4505  1.8554
 5705TIP3    H238531   5.857   4.284  14.201 -0.3919  0.0578 -0.6253
 5706TIP3   OH238532   5.334   0.666   0.150  0.3010 -0.4271  0.1714
 5706TIP3    H138533   5.374   0.599   0.094  1.4034  0.8266 -0.5723
 5706TIP3    H238534   5.407   0.708   0.195 -0.4820 -0.6524  1.7541
 5707TIP3   OH238535   4.732   5.421  13.697  0.0936  0.6507  0.0327
 5707TIP3    H138536   4.792   5.451  13.765  0.6422  1.7433 -0.9000
 5707TIP3    H238537   4.771   5.452  13.615  0.1217 -1.7088 -0.9290
 5708TIP3   OH238538   1.195   6.803  14.173  0.1677  0.3709 -0.2525
 5708TIP3    H138539   1.113   6.840  14.207 -0.2961  0.4833 -1.4246
 5708TIP3    H238540   1.175   6.781  14.082  1.3494  0.0678 -0.4569
 5709TIP3   OH238541   3.562   0.587   3.057  0.2656 -0.1826  0.2153
 5709TIP3    H138542   3.629   0.598   3.124 -0.7710  1.3463  1.0661
 5709TIP3    H238543   3.484   0.558   3.105 -0.4812  0.8876 -0.2971
 5710TIP3   OH238544   3.405   1.455   1.126  0.2091  0.0976  0.2684
 5710TIP3    H138545   3.440   1.388   1.184 -0.1632 -0.3777 -0.0550
 5710TIP3    H238546   3.374   1.408   1.049 -0.5688  0.5715  0.2764
 5711TIP3   OH238547   1.428   1.025  15.820 -0.5301 -0.1916 -0.4334
 5711TIP3    H138548   1.351   0.968  15.814 -0.6515  0.0577 -1.4616
 5711TIP3    H238549   1.397   1.110  15.789  0.1079 -0.0411 -0.6648
 5712TIP3   OH238550   1.199   3.781   1.060 -0.0227  0.3719 -0.3906
 5712TIP3    H138551   1.258   3.759   0.988  1.2647 -1.3752  1.0891
 5712TIP3    H238552   1.117   3.736   1.039  0.3629 -0.1899 -0.7217
 5713TIP3   OH238553   1.403   3.416  13.053  0.1441 -0.0916  0.2968
 5713TIP3    H138554   1.439   3.505  13.045  0.6594 -0.2586  0.6815
 5713TIP3    H238555   1.368   3.396  12.966  1.6767 -0.2128 -0.3271
 5714TIP3   OH238556   6.627   4.782   3.766  0.2432 -0.4033  0.2762
 5714TIP3    H138557   6.634   4.853   3.829  0.4220 -1.3497  1.3631
 5714TIP3    H238558   6.541   4.793   3.726  0.4335  0.6450  0.1465
 5715TIP3   OH238559   0.639   2.332   0.869 -0.2053 -0.3382 -0.1982
 5715TIP3    H138560   0.617   2.425   0.857 -1.0097 -0.5464 -0.3690
 5715TIP3    H238561   0.727   2.324   0.833  0.1292  0.4910  0.3894
 5716TIP3   OH238562   2.294   3.506  13.773  0.6980 -0.3331  0.0075
 5716TIP3    H138563   2.348   3.531  13.848  0.0082 -0.4321  0.5418
 5716TIP3    H238564   2.226   3.449  13.810 -2.6540  3.3963  0.2298
 5717TIP3   OH238565   2.254   4.783  15.841  0.9066 -0.0768  0.2924
 5717TIP3    H138566   2.274   4.797  15.934 -0.4950 -0.4493  0.6784
 5717TIP3    H238567   2.292   4.859  15.796  0.8795  0.5414  1.2822
 5718TIP3   OH238568   1.252   4.049  12.086 -0.2540  0.3110  0.3327
 5718TIP3    H138569   1.269   4.135  12.125  1.7280  0.3185 -0.3998
 5718TIP3    H238570   1.306   4.048  12.007 -0.6014 -1.4407  0.0746
 5719TIP3   OH238571   2.953   3.535  15.327 -0.2842  0.0836 -0.4657
 5719TIP3    H138572   2.904   3.609  15.362  1.5211  1.0911  0.0853
 5719TIP3    H238573   3.044   3.555  15.348  0.2461 -2.5093  0.0633
 5720TIP3   OH238574   6.613   1.979  16.412  0.6775  0.1689 -0.0797
 5720TIP3    H138575   6.540   1.932  16.373  0.1597  0.4286  0.5520
 5720TIP3    H238576   6.655   2.025  16.340 -0.9857  1.6247 -0.1783
 5721TIP3   OH238577   3.119   3.935   6.207 -0.2714 -0.5095 -0.0658
 5721TIP3    H138578   3.041   3.916   6.259  0.5400  0.4459  1.5859
 5721TIP3    H238579   3.177   3.861   6.225 -0.5371 -0.8999 -0.7853
 5722TIP3   OH238580   3.359   2.243  12.435  0.6528  0.4083 -0.3159
 5722TIP3    H138581   3.320   2.279  12.514  0.6912 -2.2450  1.0024
 5722TIP3    H238582   3.285   2.230  12.375  0.3727  0.7279 -0.0414
 5723TIP3   OH238583   6.751   3.514   4.951  0.3424 -0.1018 -0.2638
 5723TIP3    H138584   6.664   3.516   4.989  0.4280 -2.9194  0.3411
 5723TIP3    H238585   6.754   3.589   4.892 -1.1596  2.1798  2.3404
 5724TIP3   OH238586   5.246   3.826  11.580  0.0630  0.2942  0.1136
 5724TIP3    H138587   5.295   3.908  11.582  1.4133 -0.4429 -0.9786
 5724TIP3    H238588   5.287   3.771  11.646  1.4939 -0.7087 -1.5322
 5725TIP3   OH238589   2.930   3.161   5.922  0.8845 -0.7257 -0.2784
 5725TIP3    H138590   2.914   3.187   6.013 -2.0390  0.3811 -0.9947
 5725TIP3    H238591   2.906   3.239   5.871  0.3632 -2.0315 -2.1078
 5726TIP3   OH238592   1.392   1.301  16.863 -0.7029 -0.8429 -0.0541
 5726TIP3    H138593   1.441   1.364  16.810  0.5393 -0.5178  1.3998
 5726TIP3    H238594   1.444   1.221  16.859 -1.4497 -1.3116 -0.6130
 5727TIP3   OH238595   2.584   0.144  14.369  0.1379 -0.3902 -0.3317
 5727TIP3    H138596   2.560   0.237  14.361 -0.3484 -0.5995 -1.3702
 5727TIP3    H238597   2.502   0.100  14.391 -0.0445 -0.8243 -1.7858
 5728TIP3   OH238598   2.733   4.767  12.525  0.0134 -0.4235 -0.5948
 5728TIP3    H138599   2.739   4.862  12.537 -0.1104 -0.5399  0.5020
 5728TIP3    H238600   2.824   4.737  12.525  0.0253 -0.4374  0.4041
 5729TIP3   OH238601   4.668   4.626   0.624  0.3021 -0.4140 -0.1081
 5729TIP3    H138602   4.714   4.564   0.681  0.3024 -1.2953 -1.0380
 5729TIP3    H238603   4.576   4.618   0.650  0.5830  0.9891  1.4162
 5730TIP3   OH238604   1.413   3.959   5.030  0.3315  0.2772 -0.2137
 5730TIP3    H138605   1.401   4.053   5.046 -0.1241  0.3143 -0.7391
 5730TIP3    H238606   1.489   3.935   5.083 -0.3709  0.6528  1.0011
 5731TIP3   OH238607   6.608   5.166  14.678  0.0259  0.2108 -0.4408
 5731TIP3    H138608   6.589   5.072  14.671  1.1133 -0.0458 -0.1479
 5731TIP3    H238609   6.577   5.190  14.765  1.3528 -0.3040  0.2084
 5732TIP3   OH238610   3.125   3.597  11.797 -0.1612  0.7049 -0.2262
 5732TIP3    H138611   3.100   3.509  11.826  1.1004  0.5569  0.4956
 5732TIP3    H238612   3.055   3.654  11.830 -1.5885 -0.1312 -1.6858
 5733TIP3   OH238613   2.389   6.030   5.450  0.4070  0.9770  0.3980
 5733TIP3    H138614   2.374   6.020   5.544 -2.1216  0.1229 -0.0059
 5733TIP3    H238615   2.369   6.122   5.433  0.9735  1.1599  0.7150
 5734TIP3   OH238616   1.874   5.458   6.008  0.2919 -0.3517  0.0553
 5734TIP3    H138617   1.942   5.436   6.071  0.1837  2.4754  1.2670
 5734TIP3    H238618   1.917   5.517   5.946 -0.4358 -0.5470 -0.6537
 5735TIP3   OH238619   5.140   5.932  11.372  0.0934  0.0726  0.2207
 5735TIP3    H138620   5.052   5.964  11.393 -0.3240 -1.1426  0.3958
 5735TIP3    H238621   5.136   5.912  11.279  0.0347 -0.4446  0.3346
 5736TIP3   OH238622   5.154   0.328   5.526 -1.0019  0.3712 -0.2032
 5736TIP3    H138623   5.222   0.395   5.526 -0.1362 -0.4681 -1.6464
 5736TIP3    H238624   5.182   0.264   5.591  0.0343 -0.3779 -1.3550
 5737TIP3   OH238625   2.106   2.961  11.433 -0.0493  0.2396 -0.4246
 5737TIP3    H138626   2.065   3.027  11.377 -0.8248 -0.4602 -0.6869
 5737TIP3    H238627   2.117   2.885  11.377  2.2116  0.5904 -0.5487
 5738TIP3   OH238628   5.172   5.756   0.065 -0.3467 -0.2703  0.2597
 5738TIP3    H138629   5.262   5.763   0.036 -0.2033 -1.4192  0.3629
 5738TIP3    H238630   5.163   5.823   0.133  0.2424  0.2519 -0.1716
 5739TIP3   OH238631   4.331   0.459   4.170 -0.6009 -0.0429  0.4802
 5739TIP3    H138632   4.294   0.515   4.238  0.8135  0.0162  1.2482
 5739TIP3    H238633   4.399   0.513   4.129 -2.6802  0.6555 -2.3906
 5740TIP3   OH238634   6.475   5.209  12.358 -0.0995 -0.0397 -0.3190
 5740TIP3    H138635   6.463   5.228  12.265  2.8396 -1.3673 -1.1059
 5740TIP3    H238636   6.519   5.287  12.393  1.5604 -0.6839 -0.8445
 5741TIP3   OH238637   3.320   5.441   4.767  0.2859 -0.1630  0.0872
 5741TIP3    H138638   3.253   5.372   4.762 -0.8867  0.6378  2.5879
 5741TIP3    H238639   3.383   5.408   4.831  0.5434  0.4197  0.1374
 5742TIP3   OH238640   6.290   6.570  16.956 -0.0730  0.0908 -0.0013
 5742TIP3    H138641   6.243   6.492  16.924 -0.0154 -1.3195  3.0055
 5742TIP3    H238642   6.357   6.535  17.015 -0.0822  2.4112  1.5235
 5743TIP3   OH238643   4.276   2.913  13.042  0.0432 -0.0967 -0.4632
 5743TIP3    H138644   4.359   2.910  12.996  0.7466 -3.0986  0.7486
 5743TIP3    H238645   4.300   2.921  13.134 -0.8618 -1.8222 -0.0148
 5744TIP3   OH238646   1.490   2.948  13.573 -0.2374  0.3560 -0.4151
 5744TIP3    H138647   1.532   3.008  13.635  1.4692 -0.7270 -0.4660
 5744TIP3    H238648   1.547   2.949  13.496 -0.5901 -0.7404 -0.7070
 5745TIP3   OH238649   3.941   3.693   1.774 -0.3002 -0.0912  0.2231
 5745TIP3    H138650   4.008   3.744   1.729 -0.9083  1.1466  0.6921
 5745TIP3    H238651   3.903   3.753   1.837 -2.4371 -0.5002 -0.5920
 5746TIP3   OH238652   0.276   2.435  11.018 -0.3423 -0.6270 -0.0980
 5746TIP3    H138653   0.283   2.356  10.964 -0.8729 -0.2200 -0.7765
 5746TIP3    H238654   0.320   2.503  10.967  1.9586 -0.8950  1.3888
 5747TIP3   OH238655   5.190   2.618   4.102 -0.1409 -0.3847 -0.5895
 5747TIP3    H138656   5.241   2.556   4.051  1.1667 -0.3174  0.5940
 5747TIP3    H238657   5.128   2.564   4.152 -0.1496 -0.5920 -0.8251
 5748TIP3   OH238658   0.973   6.771   1.504 -0.3537  0.3390 -0.3961
 5748TIP3    H138659   0.946   6.741   1.591 -0.5847 -0.0551 -0.6017
 5748TIP3    H238660   0.986   6.690   1.454  0.6584  0.5351 -0.4680
 5749TIP3   OH238661   0.136   6.220   3.399 -0.3362  0.3215  0.1148
 5749TIP3    H138662   0.229   6.206   3.420  0.0486 -0.5603 -1.9481
 5749TIP3    H238663   0.130   6.312   3.375 -0.2199  0.6286  1.2010
 5750TIP3   OH238664   6.092   1.666   4.078  0.4372  0.2643 -0.0415
 5750TIP3    H138665   6.104   1.615   4.158  2.6543  0.8626  0.1001
 5750TIP3    H238666   6.135   1.613   4.010  1.3734  1.1766 -0.1869
 5751TIP3   OH238667   3.053   5.595  15.375  0.0735  0.2148  0.5144
 5751TIP3    H138668   3.089   5.604  15.287  1.2734  0.4012  1.0188
 5751TIP3    H238669   3.116   5.540  15.421  0.3650  1.5621  1.7687
 5752TIP3   OH238670   1.157   1.185  16.340 -0.5554  0.1190  0.4967
 5752TIP3    H138671   1.173   1.159  16.249 -0.5907  1.0752  0.2033
 5752TIP3    H238672   1.063   1.203  16.343 -0.5971 -0.1513  0.7885
 5753TIP3   OH238673   5.570   2.924   2.984 -0.4521 -0.4414 -0.1825
 5753TIP3    H138674   5.583   2.833   3.010  0.5156 -0.1790  0.2742
 5753TIP3    H238675   5.571   2.922   2.888  1.6571 -0.6509 -0.2023
 5754TIP3   OH238676   2.107   4.824   3.902 -0.2751  0.0524  0.2317
 5754TIP3    H138677   2.112   4.846   3.809 -2.0091 -0.6514 -0.0708
 5754TIP3    H238678   2.182   4.869   3.942  1.1805 -0.5728 -1.6554
 5755TIP3   OH238679   4.706   3.063  14.064 -1.1442  0.6555 -0.3502
 5755TIP3    H138680   4.751   2.996  14.115 -0.4820  1.7590  0.5551
 5755TIP3    H238681   4.743   3.056  13.976 -0.3955  0.4473 -0.0260
 5756TIP3   OH238682   1.930   0.980  13.330  0.1801 -1.0033 -0.4358
 5756TIP3    H138683   1.863   1.022  13.276 -0.2317  1.4013  1.7715
 5756TIP3    H238684   1.884   0.909  13.374 -0.7122 -0.0176  0.2772
 5757TIP3   OH238685   5.511   1.285  11.819 -0.3709  0.0059  0.2646
 5757TIP3    H138686   5.584   1.268  11.760  2.0300  1.3446  2.6499
 5757TIP3    H238687   5.478   1.371  11.793 -0.4082 -0.1272 -0.1355
 5758TIP3   OH238688   4.089   6.435   0.632 -0.5399  0.3672  0.1929
 5758TIP3    H138689   4.040   6.389   0.700  0.6727 -0.4943  0.5112
 5758TIP3    H238690   4.085   6.527   0.657  0.6386 -0.0219  1.9600
 5759TIP3   OH238691   4.474   5.860  14.551  0.2238 -0.3475  0.3850
 5759TIP3    H138692   4.528   5.813  14.614 -2.1041 -0.8428  2.1839
 5759TIP3    H238693   4.521   5.941  14.533  1.7933 -0.9912  1.4090
 5760TIP3   OH238694   1.288   3.496   4.255 -0.4230 -0.0933  0.2306
 5760TIP3    H138695   1.324   3.578   4.222  2.1458 -1.8745 -1.8836
 5760TIP3    H238696   1.250   3.518   4.340  0.1636  3.2183 -0.2390
 5761TIP3   OH238697   3.569   5.849   3.627  0.4949 -0.0743  0.5059
 5761TIP3    H138698   3.506   5.805   3.570  1.2835 -1.1999  0.4564
 5761TIP3    H238699   3.555   5.942   3.611 -0.4023 -0.3270 -0.3098
 5762TIP3   OH238700   5.935   3.562  11.181  0.2722  0.4542  0.3630
 5762TIP3    H138701   6.022   3.532  11.206  0.2862  0.8667  0.8346
 5762TIP3    H238702   5.878   3.528  11.250  0.1623  0.7467  0.4189
 5763TIP3   OH238703   0.420   5.587  14.483  0.4206 -0.3048  0.1675
 5763TIP3    H138704   0.377   5.669  14.510  0.2237  0.1191 -1.3319
 5763TIP3    H238705   0.466   5.610  14.402  0.1215 -1.7399 -0.4392
 5764TIP3   OH238706   0.499   3.505   0.945 -0.0418  0.0594 -0.0471
 5764TIP3    H138707   0.518   3.596   0.924  2.6161 -0.9554 -2.5790
 5764TIP3    H238708   0.409   3.492   0.915  0.8083  0.9424 -3.3554
 5765TIP3   OH238709   3.720   0.178  13.936 -0.2075  0.1897 -0.3502
 5765TIP3    H138710   3.747   0.266  13.964 -1.0830  1.4315 -2.9987
 5765TIP3    H238711   3.793   0.147  13.882 -0.6195  0.0315 -0.8195
 5766TIP3   OH238712   5.691   4.637   3.762  0.2706 -0.0303 -0.0156
 5766TIP3    H138713   5.610   4.588   3.779  1.7911 -2.5070  0.5848
 5766TIP3    H238714   5.742   4.580   3.705  1.1761  2.0038 -1.3766
 5767TIP3   OH238715   5.632   3.665   3.851 -0.6728  0.1615 -0.2223
 5767TIP3    H138716   5.558   3.701   3.801 -1.0539  0.1179  0.2900
 5767TIP3    H238717   5.677   3.607   3.790 -2.4246 -1.6685  0.0949
 5768TIP3   OH238718   2.797   2.299   0.260  0.1191  0.4156 -0.4082
 5768TIP3    H138719   2.738   2.225   0.246 -1.2310  1.4938 -0.6632
 5768TIP3    H238720   2.759   2.370   0.207  1.8989  1.0323 -0.9216
 5769TIP3   OH238721   4.714   3.535   2.041 -0.3709  0.1070 -0.1810
 5769TIP3    H138722   4.726   3.441   2.059  0.3456  0.0824 -0.7568
 5769TIP3    H238723   4.620   3.549   2.049 -0.3394 -0.3667  1.3132
 5770TIP3   OH238724   4.866   1.730  11.267 -0.1330  0.7839 -0.4239
 5770TIP3    H138725   4.882   1.727  11.173  0.0115  0.2303 -0.3890
 5770TIP3    H238726   4.849   1.822  11.286 -0.9609  0.7837 -1.1229
 5771TIP3   OH238727   1.072   5.664  13.680  0.0261  0.7926  0.7460
 5771TIP3    H138728   1.040   5.626  13.599 -0.2323  1.1972  0.6571
 5771TIP3    H238729   1.163   5.634  13.687 -0.0675  0.4582  0.4957
 5772TIP3   OH238730   6.624   4.917   2.839 -0.1181 -0.8568  0.2155
 5772TIP3    H138731   6.717   4.900   2.856  0.4909 -0.3367 -2.2732
 5772TIP3    H238732   6.601   4.857   2.768 -2.3786 -2.6183  2.2387
 5773TIP3   OH238733   6.324   4.485  13.617  0.2998  1.0459  0.2001
 5773TIP3    H138734   6.248   4.439  13.651  2.0738 -2.5423 -0.2732
 5773TIP3    H238735   6.380   4.499  13.693  1.3876 -1.0812 -0.1466
 5774TIP3   OH238736   2.368   2.952   2.287  0.6773  0.5147  0.1544
 5774TIP3    H138737   2.306   3.015   2.249  1.8903  1.4964 -0.2633
 5774TIP3    H238738   2.316   2.873   2.300 -1.0830  1.7842  1.3304
 5775TIP3   OH238739   4.095   4.474  13.523  0.1638  0.4058 -0.2762
 5775TIP3    H138740   4.130   4.400  13.573 -0.5606 -0.4622 -1.0153
 5775TIP3    H238741   4.000   4.457  13.520  0.1346  0.7609 -1.4226
 5776TIP3   OH238742   1.890   5.025  15.940  0.6424 -0.0418 -0.0942
 5776TIP3    H138743   1.970   5.063  15.976 -0.2847  1.1860  0.7519
 5776TIP3    H238744   1.835   5.007  16.016 -0.6028  0.8578 -0.7491
 5777TIP3   OH238745   6.563   3.296  11.086  0.3950 -0.3391  0.2962
 5777TIP3    H138746   6.558   3.387  11.058 -0.4587  0.1094  1.7803
 5777TIP3    H238747   6.653   3.284  11.116  0.0808  0.5211  1.6399
 5778TIP3   OH238748   0.658   6.534   4.118  0.0859  0.1603 -0.7149
 5778TIP3    H138749   0.607   6.581   4.052 -1.0445 -0.7877 -0.5613
 5778TIP3    H238750   0.608   6.454   4.133  1.0083 -0.2339  0.3483
 5779TIP3   OH238751   0.106   0.932  15.801  0.5210 -0.2908  0.5623
 5779TIP3    H138752   0.066   0.973  15.877  1.8899 -0.0625  1.1801
 5779TIP3    H238753   0.059   0.849  15.791 -0.5457  0.2554  0.8407
 5780TIP3   OH238754   5.093   4.225  12.883  0.2109  0.2383  0.1377
 5780TIP3    H138755   5.050   4.241  12.967 -1.1089  0.6812 -0.5944
 5780TIP3    H238756   5.039   4.158  12.841 -0.8330  2.0282 -1.5243
 5781TIP3   OH238757   0.651   1.377  14.895 -0.1248  0.0840 -0.0604
 5781TIP3    H138758   0.675   1.465  14.924 -0.4370  0.5713 -1.2111
 5781TIP3    H238759   0.613   1.391  14.808  0.0446 -1.2166 -0.3523
 5782TIP3   OH238760   2.521   6.628  11.450 -0.1354  0.1976  0.0165
 5782TIP3    H138761   2.582   6.702  11.450  0.3418 -0.1259 -2.1318
 5782TIP3    H238762   2.483   6.629  11.362 -1.4674 -1.0553  0.5394
 5783TIP3   OH238763   1.757   4.194   3.934 -0.4186 -0.2158  0.5005
 5783TIP3    H138764   1.703   4.120   3.907 -1.9676  0.8505  0.5136
 5783TIP3    H238765   1.839   4.182   3.887 -0.6165 -1.9287  0.5113
 5784TIP3   OH238766   0.764   0.636  16.178 -0.6382  0.0065 -0.2401
 5784TIP3    H138767   0.677   0.661  16.147 -0.8393 -0.0731  0.2632
 5784TIP3    H238768   0.757   0.635  16.273  0.1162  0.7662 -0.1592
 5785TIP3   OH238769   2.653   1.460   4.637  0.7482 -0.2653 -0.3777
 5785TIP3    H138770   2.678   1.378   4.595  0.1483  0.1826 -1.6346
 5785TIP3    H238771   2.677   1.528   4.575 -1.8801  0.3075 -0.8957
 5786TIP3   OH238772   5.001   3.024   1.834 -0.0790 -0.3254 -0.5446
 5786TIP3    H138773   4.959   3.058   1.754 -0.2914 -0.3140 -0.4285
 5786TIP3    H238774   5.069   3.088   1.854  0.3850 -0.6489 -1.0667
 5787TIP3   OH238775   2.439   4.306   3.872  0.0935  0.6063  0.4658
 5787TIP3    H138776   2.382   4.378   3.844  0.5002  1.7344  2.3690
 5787TIP3    H238777   2.517   4.315   3.817  0.2136  1.7537  0.8013
 5788TIP3   OH238778   5.689   0.922  15.474 -0.3925 -0.2797  0.0482
 5788TIP3    H138779   5.707   1.015  15.461 -1.4038 -0.0195  0.3924
 5788TIP3    H238780   5.768   0.877  15.442  0.2895  0.7117  0.2845
 5789TIP3   OH238781   6.654   2.723   4.716 -0.3555  0.0146  0.3431
 5789TIP3    H138782   6.701   2.746   4.637  0.8485 -1.2633  0.6551
 5789TIP3    H238783   6.699   2.770   4.786 -0.0457 -0.5598  0.5366
 5790TIP3   OH238784   1.012   4.557  13.063 -1.0915  0.5193  0.3571
 5790TIP3    H138785   1.047   4.557  13.152  0.7397 -0.1847 -0.3170
 5790TIP3    H238786   0.917   4.565  13.074 -0.9455 -0.0745  2.3797
 5791TIP3   OH238787   2.609   0.020  13.348  0.1623 -0.4876 -0.4873
 5791TIP3    H138788   2.619  -0.075  13.349  0.7938 -0.4509  1.6605
 5791TIP3    H238789   2.514   0.034  13.346  0.0687 -1.1137 -1.7031
 5792TIP3   OH238790   2.850   4.083  11.592  0.2895 -0.4523  0.3589
 5792TIP3    H138791   2.946   4.083  11.587  0.3524 -1.5575  1.1079
 5792TIP3    H238792   2.830   4.010  11.650 -1.0016  0.0319  0.5406
 5793TIP3   OH238793   4.466   2.091   6.186 -0.1168  0.0040  0.4228
 5793TIP3    H138794   4.466   2.004   6.224 -0.1495 -0.7025 -1.0961
 5793TIP3    H238795   4.512   2.146   6.249 -1.5389 -0.7378  2.1874
 5794TIP3   OH238796   0.021   3.348   3.461 -1.1984  0.5037  0.7306
 5794TIP3    H138797   0.054   3.305   3.382 -0.2895  1.9819  0.2575
 5794TIP3    H238798  -0.074   3.349   3.449 -1.0387  1.3160 -0.7055
 5795TIP3   OH238799   1.843   5.953   0.451 -0.0199 -0.5706  0.2881
 5795TIP3    H138800   1.873   6.034   0.493  1.7283 -2.1839  2.3697
 5795TIP3    H238801   1.899   5.942   0.375 -0.5294  0.3278 -0.2380
 5796TIP3   OH238802   3.439   5.686   3.427 -0.2934  0.1538 -0.2460
 5796TIP3    H138803   3.408   5.596   3.417 -0.3744  0.1865 -0.2885
 5796TIP3    H238804   3.491   5.703   3.348  0.5710 -0.1999  0.2341
 5797TIP3   OH238805   2.750   4.059   5.903  0.1814  0.1957  0.7661
 5797TIP3    H138806   2.758   4.152   5.927  0.8837  0.8145 -1.6391
 5797TIP3    H238807   2.838   4.034   5.877  0.0089 -1.2131  1.4556
 5798TIP3   OH238808   5.543   6.545   2.146  0.7532 -0.4536 -0.3450
 5798TIP3    H138809   5.623   6.534   2.095  1.2953  1.5582 -0.0500
 5798TIP3    H238810   5.530   6.640   2.149 -2.4347 -0.7123 -1.5569
 5799TIP3   OH238811   5.646   0.669  16.293  0.5307 -0.8353  0.4240
 5799TIP3    H138812   5.594   0.588  16.290 -0.3938 -0.2842  0.9326
 5799TIP3    H238813   5.594   0.728  16.348  1.7040 -0.2480  0.9234
 5800TIP3   OH238814   5.387   5.281   5.460 -0.2488 -0.7106 -0.4145
 5800TIP3    H138815   5.350   5.362   5.425  0.2204 -0.4293 -0.2745
 5800TIP3    H238816   5.324   5.252   5.524 -0.2542 -0.2565 -0.2059
 5801TIP3   OH238817   6.780   1.988  16.655  0.2636  0.0219  0.0614
 5801TIP3    H138818   6.771   1.939  16.736  0.2983  0.1984  0.1715
 5801TIP3    H238819   6.765   1.923  16.586  1.6016 -0.4298  0.1802
 5802TIP3   OH238820   1.329   2.924   1.590 -0.2978  0.1580 -0.0051
 5802TIP3    H138821   1.280   2.852   1.630  0.5459 -0.2366  0.3503
 5802TIP3    H238822   1.296   3.003   1.634 -2.4000  0.2142 -1.5399
 5803TIP3   OH238823   5.661   3.687   0.680 -0.1826  0.3629  0.2780
 5803TIP3    H138824   5.599   3.669   0.751 -0.6409  1.0777  0.0693
 5803TIP3    H238825   5.711   3.762   0.711  1.0651 -0.6306  0.7386
 5804TIP3   OH238826   4.298   6.370   0.078  0.2983  0.2604  0.0051
 5804TIP3    H138827   4.381   6.332   0.047  1.0371  1.5358  0.3201
 5804TIP3    H238828   4.232   6.305   0.056  1.1873 -0.1660 -1.5875
 5805TIP3   OH238829   2.646   6.198  15.581  0.2397  0.1027 -0.2539
 5805TIP3    H138830   2.685   6.282  15.556 -0.0471 -0.2766 -2.1141
 5805TIP3    H238831   2.698   6.133  15.535 -0.7143 -0.5941 -0.3836
 5806TIP3   OH238832   4.027   0.273   0.506  0.7665  0.3323  0.7583
 5806TIP3    H138833   3.934   0.289   0.522  0.8649  0.6277  1.0640
 5806TIP3    H238834   4.035   0.178   0.501  0.1423  0.3293 -1.2139
 5807TIP3   OH238835   2.852   1.363   1.045  0.7394 -0.5209 -0.1003
 5807TIP3    H138836   2.853   1.286   1.102  2.0457 -0.1438  0.4328
 5807TIP3    H238837   2.945   1.383   1.030  0.4303 -0.3600 -2.0600
 5808TIP3   OH238838   6.665   1.718   5.142  0.2699  0.4510 -0.3244
 5808TIP3    H138839   6.663   1.624   5.127  0.3161  0.0957  1.5931
 5808TIP3    H238840   6.592   1.752   5.092 -1.2243 -0.9481  0.7828
 5809TIP3   OH238841   6.784   1.597  16.455 -0.2406 -0.7397 -0.9741
 5809TIP3    H138842   6.774   1.627  16.545  2.0440  2.1374 -1.4947
 5809TIP3    H238843   6.792   1.502  16.462  0.5282 -0.5616  1.9481
 5810TIP3   OH238844   5.507   2.149  11.890  0.3537  0.3065  0.3831
 5810TIP3    H138845   5.547   2.063  11.882  2.2533  0.9554  2.0759
 5810TIP3    H238846   5.575   2.210  11.861 -0.5879  1.2894  0.1876
 5811TIP3   OH238847   3.309   5.746  16.871  0.3446  0.3964 -0.1688
 5811TIP3    H138848   3.341   5.834  16.854 -0.1418  0.7559  0.7181
 5811TIP3    H238849   3.293   5.744  16.965 -5.2993  1.3520 -0.7700
 5812TIP3   OH238850   4.032   1.933  15.898  0.6355  0.7342 -0.2561
 5812TIP3    H138851   4.127   1.928  15.904  0.6213  0.9178  0.1424
 5812TIP3    H238852   4.016   1.996  15.828  0.8045  0.4837 -0.5227
 5813TIP3   OH238853   5.090   5.388   4.563 -0.3513  0.4704  0.1589
 5813TIP3    H138854   5.094   5.450   4.490  0.8508  0.5724  0.2869
 5813TIP3    H238855   5.131   5.435   4.636 -1.6463  0.4177  0.9648
 5814TIP3   OH238856   3.179   0.072   4.713 -0.4345  0.3241  0.3326
 5814TIP3    H138857   3.196  -0.019   4.687  0.8629  0.3491  0.9962
 5814TIP3    H238858   3.259   0.119   4.688 -0.6389  1.0594  1.0239
 5815TIP3   OH238859   1.527   1.619   3.160 -0.2323  0.4442 -0.3772
 5815TIP3    H138860   1.616   1.594   3.134  0.4007 -0.4425  2.3322
 5815TIP3    H238861   1.539   1.700   3.209 -0.5269 -0.7883  1.8878
 5816TIP3   OH238862   5.166   4.879   3.672 -0.1965  0.0794  0.9620
 5816TIP3    H138863   5.235   4.813   3.659  0.1424  0.7867 -1.2626
 5816TIP3    H238864   5.202   4.958   3.633 -1.6286  0.9165  1.2887
 5817TIP3   OH238865   1.036   1.851   3.262  0.4125  0.5999 -0.2947
 5817TIP3    H138866   1.016   1.944   3.273 -0.5986  0.4733 -0.9527
 5817TIP3    H238867   1.073   1.845   3.174  2.3853  0.6601  0.4970
 5818TIP3   OH238868   6.772   0.628  13.611 -0.4940  0.3762  0.1826
 5818TIP3    H138869   6.857   0.588  13.593 -0.4960  0.0617  0.8344
 5818TIP3    H238870   6.788   0.722  13.606 -0.6167  0.3220 -1.9538
 5819TIP3   OH238871   0.341   6.408   1.349 -0.2315 -0.0383  0.3941
 5819TIP3    H138872   0.434   6.422   1.331  0.3716  0.3025  3.3470
 5819TIP3    H238873   0.338   6.324   1.395 -1.2050  0.5382  1.4390
 5820TIP3   OH238874   5.754   6.293   3.282  0.1987  0.4231  0.2755
 5820TIP3    H138875   5.792   6.381   3.277  0.9911  0.1896  1.8055
 5820TIP3    H238876   5.775   6.262   3.370 -2.1136 -0.3784  0.6286
 5821TIP3   OH238877   6.147   6.525   2.303 -0.3356  0.7564  0.1774
 5821TIP3    H138878   6.075   6.467   2.279 -1.3885  1.7733  0.7653
 5821TIP3    H238879   6.133   6.544   2.396  0.2562  1.5600  0.1188
 5822TIP3   OH238880   5.905   3.402   2.444  0.3021  0.4377  0.0036
 5822TIP3    H138881   5.872   3.487   2.415 -1.9566 -0.3869 -0.0649
 5822TIP3    H238882   5.968   3.422   2.514 -0.0993  2.1496 -0.1031
 5823TIP3   OH238883   5.013   2.947  15.487 -0.0574 -0.3608 -0.0295
 5823TIP3    H138884   5.092   2.993  15.515  0.0643 -0.3722 -0.3528
 5823TIP3    H238885   5.019   2.861  15.529  1.2649 -1.2339 -1.8642
 5824TIP3   OH238886   6.338   4.285  12.538  0.3701  0.1627  0.2737
 5824TIP3    H138887   6.313   4.200  12.572 -0.7414  1.4865  3.0643
 5824TIP3    H238888   6.434   4.281  12.532  0.3761 -1.0951  0.9189
 5825TIP3   OH238889   0.713   2.143  12.455 -0.0479  0.0632 -0.5830
 5825TIP3    H138890   0.803   2.170  12.439  0.3012  1.4089  2.7291
 5825TIP3    H238891   0.667   2.162  12.374  2.3527  0.6215 -1.9171
 5826TIP3   OH238892   0.446   5.936   5.349  0.1338  0.3936  0.4046
 5826TIP3    H138893   0.529   5.894   5.370 -0.5332 -0.5849  1.1294
 5826TIP3    H238894   0.386   5.864   5.333 -0.2562  1.0735 -1.5631
 5827TIP3   OH238895   3.396   5.338   3.724 -0.5440 -0.2250 -0.5007
 5827TIP3    H138896   3.473   5.295   3.685 -1.6385 -1.6604 -1.1830
 5827TIP3    H238897   3.429   5.377   3.804  0.3420 -3.4795  0.8844
 5828TIP3   OH238898   2.331   3.290  15.499 -0.2907 -0.2256  0.0727
 5828TIP3    H138899   2.422   3.264  15.483 -1.1779 -3.1009 -0.8681
 5828TIP3    H238900   2.336   3.384  15.518  2.8252 -0.2428 -0.1571
 5829TIP3   OH238901   4.676   3.872  13.113 -0.1952  0.0771  0.0158
 5829TIP3    H138902   4.669   3.872  13.208 -1.1402 -0.2619 -0.0437
 5829TIP3    H238903   4.678   3.965  13.089  1.5343  0.1872  0.4395
 5830TIP3   OH238904   0.182   1.797   5.710 -0.0526  0.0397  0.0671
 5830TIP3    H138905   0.220   1.832   5.790  1.1143  0.7956 -0.7801
 5830TIP3    H238906   0.092   1.775   5.733  1.2354 -3.4678  2.6867
 5831TIP3   OH238907   5.599   1.057  13.622  0.2585  0.0969 -0.1838
 5831TIP3    H138908   5.618   1.147  13.596 -0.3544 -0.4438 -2.7136
 5831TIP3    H238909   5.680   1.026  13.663  0.3628  1.8567  1.0400
 5832TIP3   OH238910   4.402   1.085  14.199 -1.2991  0.3964  0.0735
 5832TIP3    H138911   4.323   1.125  14.164 -2.9306 -1.9160  0.8561
 5832TIP3    H238912   4.386   1.079  14.293  0.1110  0.4903  0.3398
 5833TIP3   OH238913   5.615   6.625   2.755  0.5835 -0.2781  0.5727
 5833TIP3    H138914   5.551   6.555   2.772 -1.5183  1.1479 -0.8750
 5833TIP3    H238915   5.672   6.590   2.687 -2.3242  0.2664 -2.4370
 5834TIP3   OH238916   5.283   1.866   1.053  0.1855  0.6972  0.4453
 5834TIP3    H138917   5.253   1.882   1.143  0.1292  0.6393  0.4372
 5834TIP3    H238918   5.361   1.920   1.044  1.3341 -0.7733  1.1787
 5835TIP3   OH238919   2.129   3.097   2.731  0.0417 -0.4244  0.2057
 5835TIP3    H138920   2.151   3.094   2.824 -1.2994 -0.2466  0.5437
 5835TIP3    H238921   2.213   3.110   2.687  0.5011  1.2920  1.4961
 5836TIP3   OH238922   5.831   3.383  14.250 -0.0096 -0.4644  0.4463
 5836TIP3    H138923   5.884   3.458  14.279 -1.3568  0.3690  0.8521
 5836TIP3    H238924   5.798   3.344  14.331 -1.0706 -0.1609  0.1782
 5837TIP3   OH238925   6.791   0.763  13.923 -0.0622 -0.2448  0.5199
 5837TIP3    H138926   6.768   0.766  13.830  0.0243 -3.5324  0.2665
 5837TIP3    H238927   6.833   0.847  13.940  4.3627 -1.1241 -3.7021
 5838TIP3   OH238928   1.368   1.407  10.829  0.2454 -0.1795  0.1874
 5838TIP3    H138929   1.286   1.456  10.843  0.4858  0.5560 -0.8646
 5838TIP3    H238930   1.435   1.475  10.820  0.8592 -0.7595  0.3092
 5839TIP3   OH238931   2.631   5.209  13.606  0.0254 -0.3397 -0.1530
 5839TIP3    H138932   2.548   5.197  13.561  0.3369 -2.8977 -0.1669
 5839TIP3    H238933   2.697   5.207  13.536  0.1375  3.1166 -0.3319
 5840TIP3   OH238934   0.595   1.078   3.815  0.1381 -0.6718 -0.2802
 5840TIP3    H138935   0.666   1.060   3.754 -0.6367 -3.1367 -0.5746
 5840TIP3    H238936   0.557   0.992   3.833 -2.2330  0.4671  0.5348
 5841TIP3   OH238937   4.482   4.581   5.142 -0.6009 -0.6582  0.3199
 5841TIP3    H138938   4.551   4.514   5.139 -0.2378 -0.3195  1.0404
 5841TIP3    H238939   4.457   4.586   5.234 -0.0114  0.8243  0.4148
 5842TIP3   OH238940   6.653   3.948   0.722 -0.4754  0.3205  0.5217
 5842TIP3    H138941   6.626   4.022   0.668  1.2513  0.6691  0.0598
 5842TIP3    H238942   6.573   3.916   0.762 -1.7745  0.4148 -1.8094
 5843TIP3   OH238943   1.250   5.607  13.104 -0.0497  0.1036 -0.0222
 5843TIP3    H138944   1.208   5.664  13.040 -1.0595  0.6070  1.0403
 5843TIP3    H238945   1.325   5.571  13.059 -0.5801  0.6562 -1.3966
 5844TIP3   OH238946   4.508   2.959  16.139  0.0626 -0.0578 -0.0428
 5844TIP3    H138947   4.513   2.998  16.226  0.8179  1.3585 -0.6780
 5844TIP3    H238948   4.442   3.010  16.093 -0.2590 -0.7271 -0.3384
 5845TIP3   OH238949   1.653   4.381   6.173  0.4444 -0.7148 -0.2639
 5845TIP3    H138950   1.651   4.286   6.175 -0.8185 -0.9123 -3.6044
 5845TIP3    H238951   1.738   4.403   6.136  0.5671 -0.5347  0.1151
 5846TIP3   OH238952   2.454   1.798   3.796 -0.1780 -0.0049 -0.3260
 5846TIP3    H138953   2.457   1.885   3.756 -1.1019 -0.2957 -1.0620
 5846TIP3    H238954   2.376   1.757   3.759 -1.2980 -0.1789  2.0783
 5847TIP3   OH238955   4.024   2.880   1.448  0.1893 -0.1613 -0.3205
 5847TIP3    H138956   4.071   2.897   1.366  1.0528  2.7671  0.6499
 5847TIP3    H238957   4.049   2.791   1.472  1.8097 -0.2275 -2.0152
 5848TIP3   OH238958   3.607   3.503   3.505  0.0013  0.4987  0.0606
 5848TIP3    H138959   3.647   3.460   3.580 -0.4111  1.7543  1.0298
 5848TIP3    H238960   3.541   3.561   3.543 -1.2096  0.1187 -1.3579
 5849TIP3   OH238961   6.013   6.184   1.717  0.8619  0.3809  0.0067
 5849TIP3    H138962   6.045   6.229   1.639  0.5807 -0.5661 -0.6641
 5849TIP3    H238963   6.068   6.106   1.724 -1.6420 -1.6482 -1.5660
 5850TIP3   OH238964   1.194   1.400  13.035  0.6287 -0.0002  0.0398
 5850TIP3    H138965   1.115   1.389  13.088 -0.6291  0.4108 -1.6560
 5850TIP3    H238966   1.245   1.466  13.081 -0.5688  0.5930  0.5706
 5851TIP3   OH238967   6.611   4.130   4.946  0.1790  0.1518  0.0600
 5851TIP3    H138968   6.616   4.047   4.898 -0.9780  1.0839 -1.8285
 5851TIP3    H238969   6.577   4.106   5.032  0.9720 -1.4494 -0.0343
 5852TIP3   OH238970   0.040   4.745   4.015 -0.2282 -0.2478 -0.1396
 5852TIP3    H138971   0.111   4.810   4.022  0.4006 -0.9522  0.2306
 5852TIP3    H238972   0.068   4.686   3.945  0.1881 -1.2776  0.8702
 5853TIP3   OH238973   4.907   4.756  15.687  0.1438 -0.8851 -0.0753
 5853TIP3    H138974   4.851   4.697  15.638 -1.4177  1.5247 -1.4014
 5853TIP3    H238975   4.982   4.771  15.630  0.3356 -1.2273  0.0827
 5854TIP3   OH238976   4.183   2.916   4.408 -0.7446  0.4742 -0.6184
 5854TIP3    H138977   4.127   2.986   4.374 -1.3661 -1.0619 -2.9870
 5854TIP3    H238978   4.122   2.847   4.434 -0.0582 -0.3170 -1.0555
 5855TIP3   OH238979   5.887   0.652   5.422  0.1289  0.4983  0.2054
 5855TIP3    H138980   5.957   0.606   5.375  0.2568 -0.4423  1.2543
 5855TIP3    H238981   5.874   0.599   5.501 -1.3864  0.9727  0.2957
 5856TIP3   OH238982   2.550   0.973   4.671 -0.1063 -0.0386 -0.0025
 5856TIP3    H138983   2.505   1.025   4.737 -0.9680 -0.8749  0.0815
 5856TIP3    H238984   2.557   0.885   4.709  1.6470  0.0584  0.0059
 5857TIP3   OH238985   4.166   5.803  14.513 -0.1843  0.0939  0.1890
 5857TIP3    H138986   4.261   5.810  14.524 -0.3628  0.9602  1.4257
 5857TIP3    H238987   4.138   5.745  14.585 -0.4278 -1.5219 -1.1521
 5858TIP3   OH238988   6.744   1.640  11.627 -0.4791  0.1557 -0.0423
 5858TIP3    H138989   6.678   1.594  11.576  0.1435  1.4673 -2.1632
 5858TIP3    H238990   6.817   1.580  11.633 -0.6418 -0.0913 -0.5247
 5859TIP3   OH238991   2.854   2.581  14.304 -0.8650 -0.9160  0.1191
 5859TIP3    H138992   2.811   2.625  14.377  0.1370 -2.9033  1.9914
 5859TIP3    H238993   2.835   2.488  14.317  0.6483 -1.4626 -1.2637
 5860TIP3   OH238994   2.502   4.855  12.717 -0.4133  0.4987  0.0177
 5860TIP3    H138995   2.541   4.863  12.630 -1.1281  1.1151 -0.2550
 5860TIP3    H238996   2.492   4.760  12.729  1.0366  0.3231  0.0566
 5861TIP3   OH238997   4.321   0.615  12.295  0.1425  0.1464 -0.0454
 5861TIP3    H138998   4.364   0.648  12.373 -0.1793  0.3070  0.0657
 5861TIP3    H238999   4.308   0.521  12.313  0.5546  0.0723 -0.1324
 5862TIP3   OH239000   2.684   1.879   0.282  0.3749  0.0607  0.1244
 5862TIP3    H139001   2.633   1.844   0.209 -0.4922 -0.5719  1.0177
 5862TIP3    H239002   2.772   1.843   0.269 -0.2885 -1.8476  0.5727
 5863TIP3   OH239003   2.253   2.907  14.539 -0.1959 -0.3169 -0.5377
 5863TIP3    H139004   2.320   2.967  14.506 -0.8364 -0.2484 -1.7766
 5863TIP3    H239005   2.189   2.901  14.467 -1.9395  0.2541  0.8906
 5864TIP3   OH239006   6.735   6.500  15.265 -0.1750  0.6396 -0.4430
 5864TIP3    H139007   6.659   6.443  15.274 -0.0779  0.6808  0.7041
 5864TIP3    H239008   6.795   6.450  15.209  0.9604 -1.5725  2.5119
 5865TIP3   OH239009   1.167   5.339  16.926  0.3230  0.3003  0.3225
 5865TIP3    H139010   1.163   5.338  16.831  0.5222 -0.0579  0.3170
 5865TIP3    H239011   1.258   5.318  16.947  0.6170  1.7514  0.5731
 5866TIP3   OH239012   2.362   2.462   3.380 -0.3077 -0.0841 -0.1062
 5866TIP3    H139013   2.443   2.512   3.387 -0.2973 -0.2709  1.3147
 5866TIP3    H239014   2.307   2.495   3.450 -1.1842 -0.4879 -0.5867
 5867TIP3   OH239015   4.284   4.245  11.460  0.2467  0.5100 -0.3479
 5867TIP3    H139016   4.271   4.213  11.549  0.1772  0.2964 -0.4348
 5867TIP3    H239017   4.241   4.330  11.459  1.2506  1.0469  0.1610
 5868TIP3   OH239018   3.649   0.217  16.822 -0.3825 -0.2550  0.4726
 5868TIP3    H139019   3.667   0.141  16.765 -0.9856  0.4558 -0.7089
 5868TIP3    H239020   3.692   0.195  16.905  2.6347 -0.3077 -0.9562
 5869TIP3   OH239021   1.334   5.805  14.171  0.0525 -0.1709  0.5693
 5869TIP3    H139022   1.242   5.787  14.150 -0.1567 -1.7010  2.5428
 5869TIP3    H239023   1.384   5.755  14.106 -0.5358 -1.4640  1.0811
 5870TIP3   OH239024   5.673   1.062  12.002 -0.1289 -0.9238  0.9932
 5870TIP3    H139025   5.763   1.093  12.010 -0.2895  0.0796 -0.6162
 5870TIP3    H239026   5.628   1.098  12.079 -0.0037  1.9182 -0.1153
 5871TIP3   OH239027   4.217   2.377   2.883 -0.0342 -0.1038  0.2633
 5871TIP3    H139028   4.193   2.290   2.916  0.6258 -1.0315 -1.5766
 5871TIP3    H239029   4.219   2.367   2.788  1.4037  1.5794  0.0772
 5872TIP3   OH239030   5.090   6.817   6.621 -0.0489 -0.1562 -0.2260
 5872TIP3    H139031   5.066   6.880   6.553  0.4908  0.6228  0.2910
 5872TIP3    H239032   5.174   6.848   6.655  0.6305 -1.6093 -0.5031
 5873TIP3   OH239033   0.608   5.456  15.528 -0.2221  0.0868 -0.6031
 5873TIP3    H139034   0.587   5.501  15.610  0.2597 -0.3770 -0.2209
 5873TIP3    H239035   0.662   5.519  15.480  1.6366 -0.5574  0.5225
 5874TIP3   OH239036   0.049   4.320   0.819  0.6982 -0.6035 -0.6586
 5874TIP3    H139037   0.118   4.286   0.875  1.1277 -0.3178 -1.0096
 5874TIP3    H239038  -0.032   4.300   0.866  1.1055  0.7379  0.6686
 5875TIP3   OH239039   2.390   5.856   3.796  0.3755 -0.2079  0.0912
 5875TIP3    H139040   2.421   5.902   3.718  1.8696  0.7274  1.1657
 5875TIP3    H239041   2.344   5.924   3.846  1.4262 -0.1936  1.0701
 5876TIP3   OH239042   3.929   0.497   0.257  0.2716 -0.6647 -0.4463
 5876TIP3    H139043   3.834   0.504   0.245  0.1404  0.0301  0.7289
 5876TIP3    H239044   3.952   0.411   0.224 -0.6109 -0.4487 -1.6609
 5877TIP3   OH239045   3.777   0.029  14.227  0.3856  0.0594  0.3340
 5877TIP3    H139046   3.747   0.104  14.176  0.5812  0.8147  1.2927
 5877TIP3    H239047   3.768  -0.046  14.168  1.1519  0.9729 -1.0009
 5878TIP3   OH239048   0.500   1.338  14.638 -0.2632  0.0343 -0.1417
 5878TIP3    H139049   0.490   1.303  14.550 -0.3312 -0.9131  0.2301
 5878TIP3    H239050   0.501   1.433  14.626 -2.2554  0.0038 -0.9672
 5879TIP3   OH239051   5.110   5.461   2.050  0.3823  0.1717 -0.4366
 5879TIP3    H139052   5.182   5.398   2.056  0.4867  0.1550 -1.6318
 5879TIP3    H239053   5.106   5.484   1.958  0.2849  1.8601 -0.0350
 5880TIP3   OH239054   1.908   1.253   5.313  0.0671 -0.6429 -0.2751
 5880TIP3    H139055   1.919   1.167   5.353  0.9100 -0.0493  0.8295
 5880TIP3    H239056   1.871   1.235   5.227  0.2163 -2.1022 -0.0604
 5881TIP3   OH239057   0.162   5.748  11.184 -0.3511 -0.2902 -0.1191
 5881TIP3    H139058   0.191   5.671  11.232  0.5354 -0.1205 -0.3704
 5881TIP3    H239059   0.126   5.806  11.252  0.9958 -0.0039  0.3879
 5882TIP3   OH239060   1.451   0.214  11.448 -0.0324 -0.2346  0.4547
 5882TIP3    H139061   1.377   0.156  11.429 -0.0045 -0.1195 -0.0198
 5882TIP3    H239062   1.453   0.220  11.543 -0.3271 -0.6377  0.4887
 5883TIP3   OH239063   4.617   5.702   0.642  0.1996 -0.2356  0.0229
 5883TIP3    H139064   4.527   5.718   0.669  0.1087 -1.4334  0.4575
 5883TIP3    H239065   4.669   5.764   0.693 -0.3239  0.1260  0.1240
 5884TIP3   OH239066   6.525   4.369   4.839  0.3495 -0.7057 -0.3284
 5884TIP3    H139067   6.541   4.276   4.853  0.8202 -0.3027  2.3473
 5884TIP3    H239068   6.538   4.409   4.926  2.8496  2.2363 -1.8458
 5885TIP3   OH239069   4.786   0.433   0.612 -0.2083  0.1262  0.1505
 5885TIP3    H139070   4.708   0.426   0.667  0.4881 -0.5799  1.0753
 5885TIP3    H239071   4.758   0.401   0.526 -1.0989  0.4895  0.2934
 5886TIP3   OH239072   5.483   6.680   0.802  1.1743 -0.4784 -0.1925
 5886TIP3    H139073   5.485   6.587   0.826  0.7148 -0.9487 -1.8220
 5886TIP3    H239074   5.499   6.726   0.884  1.2706 -1.9902  0.6856
 5887TIP3   OH239075   5.882   5.797   0.205 -0.3991  0.6266 -0.3038
 5887TIP3    H139076   5.839   5.851   0.271 -1.4226 -0.7452  0.2090
 5887TIP3    H239077   5.840   5.711   0.214  1.3787 -0.3429 -0.8711
 5888TIP3   OH239078   2.825   3.342   3.018 -0.5315  0.6214 -0.3645
 5888TIP3    H139079   2.750   3.399   3.037  0.0147  0.7079  1.8054
 5888TIP3    H239080   2.892   3.402   2.986 -0.3850  1.0365  0.6748
 5889TIP3   OH239081   3.664   3.034   3.012  0.2853 -0.0565  0.2295
 5889TIP3    H139082   3.682   2.945   2.982 -0.7531 -0.7493  1.5358
 5889TIP3    H239083   3.571   3.033   3.035 -0.9297  2.5327 -3.5959
 5890TIP3   OH239084   3.021   3.097   1.765 -0.0486 -0.1797 -0.0681
 5890TIP3    H139085   3.073   3.154   1.821 -0.9743 -0.5042  1.1633
 5890TIP3    H239086   3.029   3.010   1.803 -0.2042 -0.5278 -0.7992
 5891TIP3   OH239087   6.210   2.811  13.455  0.6100  0.3926  0.3906
 5891TIP3    H139088   6.283   2.870  13.473  0.4904  0.0728  2.0867
 5891TIP3    H239089   6.143   2.835  13.519  0.1306 -0.8404  0.3901
 5892TIP3   OH239090   2.303   1.301  14.765 -0.3144  0.3643 -0.8888
 5892TIP3    H139091   2.248   1.274  14.838  1.3171 -1.6904 -0.3292
 5892TIP3    H239092   2.329   1.391  14.785  1.8038 -0.7947  2.2416
 5893TIP3   OH239093   6.626   0.016   0.063  0.0565  0.3138  0.4672
 5893TIP3    H139094   6.535  -0.012   0.072 -0.2395  0.3150 -1.8734
 5893TIP3    H239095   6.677  -0.058   0.097 -0.8031 -1.1217 -1.2234
 5894TIP3   OH239096   5.207   4.000   1.382 -0.2940 -0.6634  0.0294
 5894TIP3    H139097   5.188   4.067   1.316 -1.0705  0.4862  1.3783
 5894TIP3    H239098   5.128   3.946   1.386  0.2134 -1.5100 -0.8287
 5895TIP3   OH239099   3.105   1.955   3.805  0.3860 -0.1971  0.6257
 5895TIP3    H139100   3.156   1.993   3.876  0.6116  0.8930 -0.0952
 5895TIP3    H239101   3.071   2.030   3.756 -1.7112 -0.8774  0.9140
 5896TIP3   OH239102   5.086   3.960   3.137  0.0180  0.2727  0.0367
 5896TIP3    H139103   5.087   3.895   3.207  0.7355 -0.6171 -0.7614
 5896TIP3    H239104   5.129   4.037   3.175  0.0622 -0.0718  0.6935
 5897TIP3   OH239105   5.826   6.438   1.181  0.6081 -0.4400 -0.4278
 5897TIP3    H139106   5.829   6.439   1.276 -0.0273  0.2193 -0.3966
 5897TIP3    H239107   5.759   6.373   1.159  0.0586  0.1013 -0.3828
 5898TIP3   OH239108   5.623   3.759  15.407 -0.0630 -0.0324  0.1448
 5898TIP3    H139109   5.692   3.763  15.473  0.8072  0.4173 -0.7697
 5898TIP3    H239110   5.667   3.726  15.329 -0.7783  0.7383 -0.5945
 5899TIP3   OH239111   3.772   2.579  12.675  0.8094  0.2386 -0.2684
 5899TIP3    H139112   3.710   2.596  12.604  0.6254  0.5567 -0.0338
 5899TIP3    H239113   3.769   2.484  12.687  0.9379  0.1670 -0.7699
 5900TIP3   OH239114   1.497   0.355  15.338 -0.1608 -0.4221 -0.4422
 5900TIP3    H139115   1.563   0.359  15.407 -1.1217  1.2644  0.4614
 5900TIP3    H239116   1.541   0.388  15.260  0.0059  1.1009  0.2521
 5901TIP3   OH239117   1.692   0.015  13.312  0.0672  0.3120 -0.4911
 5901TIP3    H139118   1.707  -0.070  13.271 -0.5032  0.4200 -0.9380
 5901TIP3    H239119   1.647  -0.005  13.394 -0.2916  0.1896 -0.7135
 5902TIP3   OH239120   2.508   0.487   0.913  0.0925 -0.6098 -0.4286
 5902TIP3    H139121   2.424   0.531   0.906  0.5208  0.2511 -0.3266
 5902TIP3    H239122   2.503   0.439   0.996  0.5831  1.4608  0.8942
 5903TIP3   OH239123   4.915   1.002   0.215 -0.3892  0.0388 -0.0756
 5903TIP3    H139124   4.980   0.934   0.235 -1.7535 -1.8049 -1.4889
 5903TIP3    H239125   4.963   1.084   0.223  1.9654 -1.1915 -0.4809
 5904TIP3   OH239126   1.085   0.467  16.860 -0.1160  0.6423  0.1401
 5904TIP3    H139127   1.043   0.550  16.835  1.4353  1.4136 -0.0623
 5904TIP3    H239128   1.033   0.435  16.933 -1.2845  1.3385 -0.3550
 5905TIP3   OH239129   2.209   2.213   4.027  0.5651  0.2584  0.1049
 5905TIP3    H139130   2.185   2.300   4.061 -0.4888 -0.0948  0.3067
 5905TIP3    H239131   2.212   2.225   3.932  3.8404  1.3277  0.2246
 5906TIP3   OH239132   3.616   6.309  11.626  0.3317  0.4164 -0.0314
 5906TIP3    H139133   3.657   6.394  11.641  0.6106  0.8839 -2.7715
 5906TIP3    H239134   3.536   6.329  11.577  0.7704 -0.8906 -1.3747
 5907TIP3   OH239135   4.328   1.029   3.541 -0.1371 -0.6627  0.2916
 5907TIP3    H139136   4.309   0.942   3.575  0.6746 -0.3885  1.5144
 5907TIP3    H239137   4.328   1.086   3.618  0.7097  0.1751 -0.3037
 5908TIP3   OH239138   4.366   0.194   0.479  0.2369  0.5085 -0.0137
 5908TIP3    H139139   4.326   0.174   0.564  3.2989  1.9320  1.9472
 5908TIP3    H239140   4.329   0.129   0.419 -2.2204 -0.4340  2.3156
 5909TIP3   OH239141   4.724   2.911  15.705  0.4548  0.3113 -0.3211
 5909TIP3    H139142   4.776   2.985  15.738 -0.0676 -0.4337  2.4304
 5909TIP3    H239143   4.788   2.841  15.691  0.5470  0.2089  0.5352
 5910TIP3   OH239144   4.022   0.996  13.406  0.2121 -0.3196 -0.3358
 5910TIP3    H139145   4.029   0.940  13.329  0.3730  0.5251 -0.9420
 5910TIP3    H239146   4.009   1.084  13.371  2.1646  0.3654  0.5554
 5911TIP3   OH239147   2.108   6.487   2.014  0.1758  0.2342 -0.1264
 5911TIP3    H139148   2.064   6.557   1.967  1.8487  1.3069 -0.1780
 5911TIP3    H239149   2.201   6.507   2.006  0.7505 -2.3061 -0.5968
 5912TIP3   OH239150   0.812   6.664   4.680 -0.1573 -0.0778  0.0189
 5912TIP3    H139151   0.737   6.692   4.732 -0.5531 -2.3208  0.7763
 5912TIP3    H239152   0.826   6.573   4.705  2.7386  0.1924 -0.2230
 5913TIP3   OH239153   4.898   6.057   2.341 -0.4338 -0.9073  0.6024
 5913TIP3    H139154   4.986   6.092   2.326 -1.0094  0.3082 -0.1739
 5913TIP3    H239155   4.843   6.135   2.350 -1.0390 -1.5702  3.9192
 5914TIP3   OH239156   2.292   2.775   1.899 -0.2724 -0.1404 -0.3822
 5914TIP3    H139157   2.300   2.720   1.977 -0.5888  0.0715 -0.1992
 5914TIP3    H239158   2.199   2.773   1.878 -0.4065  0.8952  0.0383
 5915TIP3   OH239159   1.594   3.445  14.446 -0.1083  0.8896 -0.0430
 5915TIP3    H139160   1.609   3.351  14.456  0.1538  0.7594 -1.4832
 5915TIP3    H239161   1.503   3.457  14.474  0.1437  0.3695  1.0409
 5916TIP3   OH239162   2.125   2.226  12.236 -0.3756 -0.0003  0.2177
 5916TIP3    H139163   2.114   2.152  12.177 -0.9160 -0.6869  1.1553
 5916TIP3    H239164   2.069   2.295  12.200  0.4058  0.1087 -0.8596
 5917TIP3   OH239165   5.892   1.530   0.286  0.2482 -0.6515 -0.0915
 5917TIP3    H139166   5.858   1.497   0.202  2.1007  1.0461 -1.6177
 5917TIP3    H239167   5.987   1.537   0.272  0.4339  1.0639  1.6381
 5918TIP3   OH239168   0.654   3.453   9.850  0.0229  0.7339  0.4621
 5918TIP3    H139169   0.658   3.402   9.931 -0.6118 -2.4990 -1.3622
 5918TIP3    H239170   0.579   3.512   9.862 -0.9134 -0.6534  1.7386
 5919TIP3   OH239171   2.057   5.320  16.058  0.1063  0.0525  0.0208
 5919TIP3    H139172   1.972   5.313  16.015  0.5586  0.5764 -1.0047
 5919TIP3    H239173   2.114   5.361  15.992  1.3358 -0.9244  0.4413
 5920TIP3   OH239174   5.975   1.870  14.391 -0.1284  0.3792 -0.3483
 5920TIP3    H139175   5.898   1.846  14.339 -0.5631  1.9218 -0.4598
 5920TIP3    H239176   5.958   1.832  14.478  0.2862 -1.6175 -1.0924
 5921TIP3   OH239177   4.231   1.979   3.660  0.3716  0.0276  0.2802
 5921TIP3    H139178   4.155   1.931   3.628 -0.3548  0.3094  1.4997
 5921TIP3    H239179   4.296   1.972   3.590  0.0738 -2.2128  0.1776
 5922TIP3   OH239180   5.968   2.869  15.695  0.6508 -0.5839  0.3297
 5922TIP3    H139181   6.036   2.813  15.657  1.8671 -1.2422  3.1331
 5922TIP3    H239182   5.950   2.829  15.781 -0.2452  1.9341  1.4172
 5923TIP3   OH239183   6.264   6.603  12.218  0.0821 -0.1493  0.3883
 5923TIP3    H139184   6.221   6.648  12.291 -0.4402 -0.8127  0.4954
 5923TIP3    H239185   6.287   6.673  12.157 -0.0765  0.3374  0.8813
 5924TIP3   OH239186   6.047   4.212  16.456 -0.1017  0.0013  0.5005
 5924TIP3    H139187   6.082   4.250  16.375 -0.0525 -0.3329  0.3621
 5924TIP3    H239188   5.953   4.225  16.449 -0.3280 -1.8507 -0.5954
 5925TIP3   OH239189   3.953   3.950  15.046  0.1811  0.1190  0.9156
 5925TIP3    H139190   4.002   3.875  15.080  0.1440  0.2739  1.3156
 5925TIP3    H239191   3.878   3.911  15.001 -0.0804 -0.0687  1.5070
 5926TIP3   OH239192   3.323   5.300   4.403  0.0655 -0.0675  0.6162
 5926TIP3    H139193   3.332   5.384   4.450  1.3593  0.3594 -0.3300
 5926TIP3    H239194   3.229   5.283   4.403 -0.3633  1.9739 -0.1707
 5927TIP3   OH239195   0.279   4.061  13.042  0.5270 -0.3064 -0.1478
 5927TIP3    H139196   0.296   4.113  13.120 -0.8168  1.4014 -0.9213
 5927TIP3    H239197   0.212   3.998  13.070  1.2520 -0.8148  0.4774
 5928TIP3   OH239198   4.120   4.724  14.199 -0.0180  0.4915 -0.0282
 5928TIP3    H139199   4.027   4.703  14.208  0.0173  0.2501 -0.2167
 5928TIP3    H239200   4.156   4.706  14.286 -0.4289  2.0680  0.4929
 5929TIP3   OH239201   2.615   1.522  15.584 -0.4237  0.4077 -0.2171
 5929TIP3    H139202   2.665   1.494  15.660 -1.5928  0.3117  0.5545
 5929TIP3    H239203   2.528   1.542  15.619 -0.1674  3.3183 -1.0002
 5930TIP3   OH239204   6.168   4.695   5.541  0.2416  0.2937  0.5912
 5930TIP3    H139205   6.213   4.635   5.601 -0.3129 -1.7947 -0.9945
 5930TIP3    H239206   6.235   4.759   5.518  1.0940 -0.1575  1.6936
 5931TIP3   OH239207   1.175   6.698   2.196  0.1355 -0.3612  0.1270
 5931TIP3    H139208   1.169   6.793   2.194 -0.0746 -0.3655 -1.7604
 5931TIP3    H239209   1.127   6.670   2.118 -0.9647 -2.0998  1.3494
 5932TIP3   OH239210   3.761   0.110   4.245  0.2041  0.0910  0.1168
 5932TIP3    H139211   3.758   0.197   4.284  1.7018  0.3997 -0.4186
 5932TIP3    H239212   3.779   0.125   4.152  1.4979 -0.8088  0.1999
 5933TIP3   OH239213   4.505   2.703   0.823 -0.0941  0.0803 -0.0590
 5933TIP3    H139214   4.450   2.758   0.769  1.3314 -0.3372 -2.0361
 5933TIP3    H239215   4.553   2.764   0.879 -0.8934  0.5886  0.0794
 5934TIP3   OH239216   0.841   3.379   2.353  0.3434 -0.2559 -0.2964
 5934TIP3    H139217   0.840   3.417   2.265 -0.2868  3.6815  1.1917
 5934TIP3    H239218   0.754   3.339   2.362 -0.6900  1.7650 -0.6217
 5935TIP3   OH239219   4.175   5.575  11.153  0.3678 -0.0344 -0.1007
 5935TIP3    H139220   4.120   5.506  11.190 -3.0007  0.5199 -3.4440
 5935TIP3    H239221   4.194   5.544  11.064  0.4600  2.4296 -0.9956
 5936TIP3   OH239222   0.575   1.668   5.201  0.5971  0.3419  0.2514
 5936TIP3    H139223   0.651   1.720   5.175  0.2428  0.5551 -0.3723
 5936TIP3    H239224   0.501   1.728   5.195  0.0013 -0.5038 -1.6209
 5937TIP3   OH239225   6.257   4.044   4.046 -0.3062  0.1724 -0.2782
 5937TIP3    H139226   6.214   4.012   4.125 -2.3777  0.4216 -1.2219
 5937TIP3    H239227   6.343   4.002   4.046 -0.0480  0.5495  2.3089
 5938TIP3   OH239228   3.088   6.530   2.189  0.0283  0.4269  0.5160
 5938TIP3    H139229   3.112   6.547   2.280 -0.4335  1.2104  0.5050
 5938TIP3    H239230   3.160   6.568   2.138 -0.0029  0.5261  0.5446
 5939TIP3   OH239231   5.592   3.148  14.010  0.2321  0.2556  0.0665
 5939TIP3    H139232   5.540   3.179  13.937  1.7568  0.7380 -0.8446
 5939TIP3    H239233   5.529   3.099  14.064 -0.7779 -0.7868 -1.9318
 5940TIP3   OH239234   0.198   6.621   0.496 -0.3988  0.1134 -0.6527
 5940TIP3    H139235   0.114   6.602   0.455 -0.3252 -0.0687 -0.7169
 5940TIP3    H239236   0.262   6.568   0.448 -0.4840 -1.1157  0.5328
 5941TIP3   OH239237   0.808   6.797   3.202  0.2950 -0.1285 -0.3636
 5941TIP3    H139238   0.814   6.817   3.295  0.4352 -1.8267  0.0189
 5941TIP3    H239239   0.898   6.779   3.175  0.1471 -0.5227 -0.6085
 5942TIP3   OH239240   0.490   0.388   3.245 -0.1620  0.1848  0.6487
 5942TIP3    H139241   0.454   0.419   3.162  1.0838  0.3534  0.1536
 5942TIP3    H239242   0.427   0.416   3.310 -1.1233  0.1334 -0.2287
 5943TIP3   OH239243   1.252   3.529   2.701  0.2454 -0.3691  0.6916
 5943TIP3    H139244   1.324   3.497   2.756  0.2336  0.6978  1.3482
 5943TIP3    H239245   1.190   3.567   2.763  0.8444  2.0603 -0.1135
 5944TIP3   OH239246   6.120   2.195   1.009  0.0976  0.6222 -0.2342
 5944TIP3    H139247   6.118   2.277   1.060  1.1682  1.3215 -1.2678
 5944TIP3    H239248   6.103   2.222   0.919 -1.1113 -0.5184 -0.3786
 5945TIP3   OH239249   3.865   2.770  16.184  0.4260  0.4719 -0.1571
 5945TIP3    H139250   3.806   2.729  16.121  0.0456  2.7453 -1.3574
 5945TIP3    H239251   3.949   2.777  16.137  0.3069  1.6220 -0.2269
 5946TIP3   OH239252   0.859   3.657  15.774  0.3294  0.2396 -0.5962
 5946TIP3    H139253   0.841   3.610  15.855  0.3789  1.2718  0.0359
 5946TIP3    H239254   0.922   3.602  15.727 -0.0314 -0.5738 -0.1408
 5947TIP3   OH239255   3.409   2.486   4.357 -0.3419 -0.0798 -0.2366
 5947TIP3    H139256   3.367   2.457   4.438  0.4181 -0.3447  0.0732
 5947TIP3    H239257   3.403   2.410   4.298  0.1109 -0.2839 -0.0266
 5948TIP3   OH239258   3.544   5.353   0.591 -0.0188  0.3815 -0.3094
 5948TIP3    H139259   3.498   5.436   0.606 -0.7309 -0.2052  0.8994
 5948TIP3    H239260   3.624   5.360   0.643  0.2616  0.5599 -0.7505
 5949TIP3   OH239261   2.247   0.794   2.989  0.0834  0.1164  0.1107
 5949TIP3    H139262   2.176   0.838   3.037  0.0382  0.3923 -0.2039
 5949TIP3    H239263   2.327   0.832   3.026  0.0452  0.4416 -0.1343
 5950TIP3   OH239264   4.979   5.794   4.948  0.4011 -0.1742  0.4439
 5950TIP3    H139265   4.975   5.889   4.963 -0.2880  0.1958 -1.7025
 5950TIP3    H239266   4.916   5.757   5.010 -1.2594  1.0632 -0.4254
 5951TIP3   OH239267   2.985   2.971  11.854  0.1652  0.2838 -0.0375
 5951TIP3    H139268   2.901   3.007  11.883 -0.2347 -1.0255  0.5212
 5951TIP3    H239269   3.019   3.036  11.793 -1.9086  0.2516 -1.3542
 5952TIP3   OH239270   1.372   3.855   1.980 -0.0062  0.2179 -0.0487
 5952TIP3    H139271   1.286   3.814   1.994 -1.0724  2.1164 -0.6722
 5952TIP3    H239272   1.426   3.822   2.051 -1.5280 -0.3152  0.9141
 5953TIP3   OH239273   6.110   4.698   6.075  0.1935  0.6773  0.1422
 5953TIP3    H139274   6.064   4.704   6.159  0.0837  1.6232  0.0288
 5953TIP3    H239275   6.103   4.606   6.050 -0.6099  0.5729  0.7059
 5954TIP3   OH239276   6.458   0.102  13.918  0.0667  0.1608 -0.1171
 5954TIP3    H139277   6.391   0.169  13.931 -1.4204 -1.1507 -0.7461
 5954TIP3    H239278   6.475   0.103  13.824  0.1620 -0.2313 -0.1062
 5955TIP3   OH239279   1.428   3.553  13.846  0.1512  0.2246  0.0428
 5955TIP3    H139280   1.351   3.607  13.832  0.8153  0.7520 -1.8548
 5955TIP3    H239281   1.436   3.548  13.942 -1.1587  1.6861  0.2801
 5956TIP3   OH239282   1.335   0.264   2.285  0.4308  0.1683 -0.5982
 5956TIP3    H139283   1.424   0.229   2.292  0.4238  0.4950  1.7719
 5956TIP3    H239284   1.346   0.353   2.252  1.1746  0.7977  1.2377
 5957TIP3   OH239285   6.160   6.045  12.511  0.8128  0.3631  0.5819
 5957TIP3    H139286   6.080   6.074  12.467  0.8974 -0.3748 -0.0767
 5957TIP3    H239287   6.165   5.951  12.492  1.2617  0.1899  1.5301
 5958TIP3   OH239288   3.997   3.497  14.358  0.0488  0.5977  0.1886
 5958TIP3    H139289   3.921   3.439  14.367  0.0378  0.5027 -0.4725
 5958TIP3    H239290   3.962   3.577  14.320  0.2663  0.5712 -0.0742
 5959TIP3   OH239291   0.215   5.069   2.530  0.0856 -0.6123  0.3401
 5959TIP3    H139292   0.238   4.978   2.546 -0.7611 -1.4091 -2.4112
 5959TIP3    H239293   0.134   5.083   2.578 -0.3228 -1.6534 -0.0159
 5960TIP3   OH239294   1.566   0.674  16.193  0.3158 -0.1454  0.0816
 5960TIP3    H139295   1.574   0.618  16.116  0.4687 -0.6507  0.4599
 5960TIP3    H239296   1.529   0.756  16.160  0.9976 -0.1172 -0.6339
 5961TIP3   OH239297   6.185   2.636  11.331  0.5890  0.4612 -0.5451
 5961TIP3    H139298   6.237   2.665  11.256 -0.4249  1.6021 -0.8236
 5961TIP3    H239299   6.121   2.705  11.344 -0.9929 -0.9964 -0.3214
 5962TIP3   OH239300   5.946   6.174   4.534  0.0192  0.8929  0.7488
 5962TIP3    H139301   6.042   6.175   4.539  0.3135  0.7100 -2.7076
 5962TIP3    H239302   5.922   6.085   4.557  0.5764  1.1281  2.3561
 5963TIP3   OH239303   3.629   2.066  15.140  0.4778 -0.0965 -0.9098
 5963TIP3    H139304   3.636   2.016  15.221 -0.4372  0.8650 -0.2072
 5963TIP3    H239305   3.581   2.009  15.080 -3.1684  0.9212  0.8114
 5964TIP3   OH239306   4.388   6.348   2.919 -0.0160 -0.1874 -0.5599
 5964TIP3    H139307   4.363   6.427   2.872  0.2202 -0.4691 -1.1704
 5964TIP3    H239308   4.421   6.289   2.851 -0.1109 -0.7777 -0.1016
 5965TIP3   OH239309   3.765   1.526  14.051 -0.7093 -0.2824  0.0789
 5965TIP3    H139310   3.805   1.487  14.128  1.1600  2.0386  0.3708
 5965TIP3    H239311   3.675   1.493  14.052 -0.7040 -0.4842  3.1182
 5966TIP3   OH239312   6.784   4.969  11.556  0.1489 -0.0134 -0.3112
 5966TIP3    H139313   6.797   5.062  11.578 -2.0312  0.8480 -2.2344
 5966TIP3    H239314   6.710   4.942  11.610  1.9868 -1.3070  1.7085
 5967TIP3   OH239315   3.090   4.973  13.529  0.1156 -0.0622 -0.1805
 5967TIP3    H139316   3.053   4.886  13.516  0.5568 -0.2711 -0.0467
 5967TIP3    H239317   3.151   4.984  13.456  0.0056  0.1695 -0.2414
 5968TIP3   OH239318   4.339   2.501  10.861  0.1225 -0.5442  0.2699
 5968TIP3    H139319   4.365   2.431  10.801 -0.3580  0.2380 -0.8720
 5968TIP3    H239320   4.315   2.574  10.804 -0.5346  0.1513  1.4104
 5969TIP3   OH239321   1.158   6.423  12.512 -0.6127 -0.4160 -0.1849
 5969TIP3    H139322   1.249   6.403  12.489  0.2764  1.2236  1.5947
 5969TIP3    H239323   1.126   6.475  12.438  0.5319  0.5530 -0.0289
 5970TIP3   OH239324   2.113   1.299   0.765  0.6082  0.1415  0.5622
 5970TIP3    H139325   2.079   1.386   0.745  2.3498  0.8912  0.6684
 5970TIP3    H239326   2.208   1.308   0.756  0.8756 -1.5614  1.3278
 5971TIP3   OH239327   3.463   4.863   4.080 -0.2370 -0.4102 -0.3872
 5971TIP3    H139328   3.528   4.884   4.012 -0.0826 -0.3675 -0.2266
 5971TIP3    H239329   3.476   4.930   4.147  0.2016 -0.9549  0.0889
 5972TIP3   OH239330   4.637   2.259  11.273  0.5482 -0.2360  0.4177
 5972TIP3    H139331   4.628   2.286  11.181 -0.6238 -0.1104  0.5531
 5972TIP3    H239332   4.671   2.337  11.317 -0.4847  0.2534  0.3737
 5973TIP3   OH239333   5.266   4.927   0.879  0.2111  0.5443  0.1632
 5973TIP3    H139334   5.230   4.838   0.886  0.9404 -0.0022 -2.0892
 5973TIP3    H239335   5.190   4.982   0.860  0.1444 -0.2137 -2.0725
 5974TIP3   OH239336   3.893   2.682   1.841 -0.2913 -0.3766  0.1304
 5974TIP3    H139337   3.877   2.775   1.820 -0.0071 -0.5640 -0.9827
 5974TIP3    H239338   3.931   2.646   1.761  0.6594 -1.2019  0.9366
 5975TIP3   OH239339   2.049   3.275  15.009 -0.3389 -0.5425  0.0966
 5975TIP3    H139340   1.978   3.237  14.958  1.1370 -0.9536 -1.7712
 5975TIP3    H239341   2.078   3.205  15.067 -0.0784 -1.0867 -0.6744
 5976TIP3   OH239342   4.438   0.864  14.876  0.0195  0.8146 -0.2662
 5976TIP3    H139343   4.402   0.888  14.961 -2.0032 -0.1305 -0.8083
 5976TIP3    H239344   4.452   0.770  14.880 -1.1980  0.5552 -1.3272
 5977TIP3   OH239345   1.449   0.701  14.534 -0.0349  0.1762 -0.2912
 5977TIP3    H139346   1.356   0.703  14.559  0.3372  1.5773  1.1622
 5977TIP3    H239347   1.484   0.623  14.578 -0.1008  0.8181  0.9573
 5978TIP3   OH239348   6.808   4.364  15.441 -0.4529  0.2416  0.7898
 5978TIP3    H139349   6.756   4.422  15.496  0.2622  1.0376  0.6528
 5978TIP3    H239350   6.891   4.354  15.488 -0.0001  0.5775  0.0942
 5979TIP3   OH239351   2.525   3.047   4.766  0.3533  0.4933 -0.3620
 5979TIP3    H139352   2.613   3.078   4.746  0.4796  0.3325 -0.0700
 5979TIP3    H239353   2.517   3.057   4.861  0.0994  0.4005 -0.3726
 5980TIP3   OH239354   5.652   3.276   0.093  0.0765 -0.2167 -0.5536
 5980TIP3    H139355   5.724   3.336   0.110 -1.7184  2.5469 -1.8901
 5980TIP3    H239356   5.671   3.240   0.006  0.7158 -0.9551 -0.1222
 5981TIP3   OH239357   5.863   3.121   3.697  0.0663  0.5430  0.1867
 5981TIP3    H139358   5.867   3.031   3.728 -1.5404  0.4369  0.1454
 5981TIP3    H239359   5.860   3.174   3.777  0.3824  0.5332  0.2073
 5982TIP3   OH239360   2.989   5.329   1.554  0.6420  0.1597  0.3084
 5982TIP3    H139361   3.079   5.296   1.553 -0.5211 -3.5078 -0.2176
 5982TIP3    H239362   2.941   5.264   1.606 -1.7215  1.9711  0.5334
 5983TIP3   OH239363   5.116   6.250  12.714 -0.1702 -0.3366  0.0414
 5983TIP3    H139364   5.153   6.162  12.706  0.7012  0.0412 -0.2308
 5983TIP3    H239365   5.039   6.248  12.658 -0.7098 -1.2069  0.7847
 5984TIP3   OH239366   6.060   1.038   5.329  0.1687 -0.4440  0.1589
 5984TIP3    H139367   6.106   1.074   5.404 -0.1154  1.7525 -0.6336
 5984TIP3    H239368   5.982   0.996   5.366  0.9072 -0.9337  1.1985
 5985TIP3   OH239369   2.111   5.629  14.526 -0.0063 -0.5199 -0.2008
 5985TIP3    H139370   2.064   5.713  14.528  0.9941  0.0726  1.6767
 5985TIP3    H239371   2.201   5.653  14.504 -0.2530 -1.4784 -2.4512
 5986TIP3   OH239372   3.192   0.485   6.369 -0.3283  0.6590  0.4794
 5986TIP3    H139373   3.098   0.491   6.351 -0.2857  3.8123  0.6997
 5986TIP3    H239374   3.217   0.398   6.337 -2.9122  0.5300 -1.5652
 5987TIP3   OH239375   3.860   1.386   3.072  0.1216  0.2313  0.5136
 5987TIP3    H139376   3.891   1.442   3.143  0.9419  1.1993 -0.5688
 5987TIP3    H239377   3.778   1.427   3.043 -0.2761 -0.2303  0.9427
 5988TIP3   OH239378   3.630   0.867   0.636  0.0205  0.8426  0.6404
 5988TIP3    H139379   3.547   0.856   0.591 -0.5484  1.9953  1.3511
 5988TIP3    H239380   3.652   0.780   0.669  0.4433 -0.0280 -1.7882
 5989TIP3   OH239381   0.363   1.924  13.279  0.1921 -0.2643 -0.2225
 5989TIP3    H139382   0.292   1.890  13.223  0.3605 -0.4488 -0.3272
 5989TIP3    H239383   0.328   1.917  13.368  1.1008 -3.0707  0.0355
 5990TIP3   OH239384   3.400   2.082  12.906  0.3202  0.0712 -0.0653
 5990TIP3    H139385   3.408   2.083  12.811  1.5237  0.2290  0.0237
 5990TIP3    H239386   3.485   2.049  12.937 -0.7305 -1.8767  0.8868
 5991TIP3   OH239387   5.223   2.804   2.300  0.2784 -0.2173  0.0459
 5991TIP3    H139388   5.243   2.711   2.299  1.1617 -0.0769  1.5044
 5991TIP3    H239389   5.269   2.838   2.377 -1.9207  0.9840  0.9258
 5992TIP3   OH239390   1.966   3.781  14.321  0.2388 -0.0582  0.1910
 5992TIP3    H139391   2.050   3.820  14.294 -0.4790  1.9222  0.6522
 5992TIP3    H239392   1.979   3.758  14.413  0.3831 -0.0460  0.1742
 5993TIP3   OH239393   1.255   3.388  15.692  0.0451 -0.0552  0.1239
 5993TIP3    H139394   1.343   3.422  15.672  0.6053 -0.0184  2.3857
 5993TIP3    H239395   1.270   3.296  15.713 -0.6981 -0.4057 -0.7827
 5994TIP3   OH239396   3.217   5.189  14.984 -0.3465 -0.4105 -0.0892
 5994TIP3    H139397   3.290   5.216  14.927 -0.3280 -1.2718 -0.4973
 5994TIP3    H239398   3.158   5.142  14.925 -0.7303 -0.5982  0.4467
 5995TIP3   OH239399   0.334   6.471   0.265  0.4991  0.1756  0.2604
 5995TIP3    H139400   0.289   6.397   0.307  0.7943 -0.3601 -0.3421
 5995TIP3    H239401   0.380   6.431   0.191  0.7512  0.9559 -0.0059
 5996TIP3   OH239402   5.285   3.367  11.007 -0.2584 -1.0220 -0.1567
 5996TIP3    H139403   5.230   3.435  11.046  0.4574 -0.3183 -0.3281
 5996TIP3    H239404   5.261   3.365  10.915 -0.6144 -1.3408 -0.0586
 5997TIP3   OH239405   1.293   6.598   1.543 -0.3946 -0.0612  0.0171
 5997TIP3    H139406   1.232   6.568   1.475 -1.2126  0.0675  0.6781
 5997TIP3    H239407   1.273   6.690   1.555  1.8551  0.7552 -1.7300
 5998TIP3   OH239408   4.229   2.910   0.307 -0.1577  0.2548  0.3688
 5998TIP3    H139409   4.315   2.927   0.270  0.9709 -0.7394  2.3550
 5998TIP3    H239410   4.171   2.972   0.262  1.8230  1.9268 -0.0523
 5999TIP3   OH239411   6.690   4.818   0.814 -0.0879  0.0538 -0.2810
 5999TIP3    H139412   6.705   4.791   0.905 -0.6447  0.8449  0.0537
 5999TIP3    H239413   6.731   4.750   0.762 -0.4947 -0.8543  0.5582
 6000TIP3   OH239414   3.936   0.546   3.128 -0.6127  0.3864  0.3222
 6000TIP3    H139415   3.902   0.464   3.092  2.1149 -0.9281  0.4701
 6000TIP3    H239416   3.927   0.536   3.223  0.8441 -0.3494  0.4114
 6001TIP3   OH239417   4.294   2.589   2.275 -0.4963  0.7623  0.2225
 6001TIP3    H139418   4.250   2.507   2.253 -1.8760  0.7396  2.7222
 6001TIP3    H239419   4.301   2.636   2.192 -1.7320 -0.9058 -0.8820
 6002TIP3   OH239420   0.944   2.818   1.714  0.1169  0.4826  0.6314
 6002TIP3    H139421   0.908   2.857   1.634 -2.6837 -1.6979  0.6681
 6002TIP3    H239422   0.895   2.860   1.785 -2.4130 -2.2427  0.7062
 6003TIP3   OH239423   0.478   1.276  14.379 -0.1514 -0.3283 -0.2592
 6003TIP3    H139424   0.423   1.202  14.406  0.1999 -0.3651  0.3984
 6003TIP3    H239425   0.554   1.235  14.337  0.1258 -0.3586  0.2595
 6004TIP3   OH239426   0.334   2.461  17.031  0.1212 -0.1845  0.4552
 6004TIP3    H139427   0.261   2.399  17.036  1.3795 -1.8702 -0.6383
 6004TIP3    H239428   0.391   2.436  17.104  0.2735  0.1983  0.4670
 6005TIP3   OH239429   4.100   2.843  11.417  0.0420 -0.0453  0.2589
 6005TIP3    H139430   4.042   2.822  11.491 -0.0885 -0.9070 -0.0803
 6005TIP3    H239431   4.055   2.914  11.371  0.5906  1.1794  1.5453
 6006TIP3   OH239432   4.305   5.983  16.509 -0.2204  0.2165 -0.1567
 6006TIP3    H139433   4.285   5.939  16.425  0.3488 -0.7115  0.1815
 6006TIP3    H239434   4.322   6.074  16.484 -0.7330  0.1123 -0.9665
 6007TIP3   OH239435   3.856   3.470  11.683  0.1950 -0.7585  0.0260
 6007TIP3    H139436   3.812   3.546  11.721 -0.9895 -1.9475  1.1640
 6007TIP3    H239437   3.896   3.503  11.602  0.5901  1.2762  0.9933
 6008TIP3   OH239438   3.172   6.379  13.245 -0.1076 -0.6338 -0.5677
 6008TIP3    H139439   3.151   6.472  13.235 -0.3165 -0.7427 -1.2289
 6008TIP3    H239440   3.170   6.345  13.155  1.6412 -0.9303 -0.5175
 6009TIP3   OH239441   1.275   3.940  12.513  0.5891 -0.2330  0.5568
 6009TIP3    H139442   1.240   3.892  12.438 -1.7480  0.8026  0.8883
 6009TIP3    H239443   1.231   3.902  12.589 -0.0459  1.2777  0.9843
 6010TIP3   OH239444   5.773   5.559  12.987  0.6269 -0.1864  0.4309
 6010TIP3    H139445   5.786   5.554  13.081 -1.3779  0.2067  0.7683
 6010TIP3    H239446   5.736   5.646  12.973 -0.6084 -0.8361 -0.5070
 6011TIP3   OH239447   5.308   6.076   5.655 -0.2918 -0.3103 -0.4439
 6011TIP3    H139448   5.275   6.132   5.724  0.7299  0.5076 -0.5926
 6011TIP3    H239449   5.378   6.127   5.614 -0.9860 -0.6723 -2.2147
 6012TIP3   OH239450   3.367   1.073  16.555 -0.0972  0.6427  0.4155
 6012TIP3    H139451   3.280   1.044  16.528  0.1872 -1.4177  1.5047
 6012TIP3    H239452   3.352   1.158  16.597 -1.1584  1.6359 -1.8012
 6013TIP3   OH239453   5.586   1.875  16.814  0.4989  0.5330 -0.4256
 6013TIP3    H139454   5.501   1.832  16.809  1.1932 -0.7237 -3.2626
 6013TIP3    H239455   5.565   1.969  16.805 -0.5875  0.2457 -1.1239
 6014TIP3   OH239456   4.003   1.159   0.536 -0.4630  0.1364  0.3020
 6014TIP3    H139457   4.060   1.191   0.467 -0.3484 -1.0443 -0.1743
 6014TIP3    H239458   3.955   1.237   0.566  0.5877  0.9408 -0.0367
 6015TIP3   OH239459   5.092   2.774   3.406 -0.3338 -0.2895  0.4153
 6015TIP3    H139460   5.138   2.844   3.359 -0.7405  1.5631  2.5610
 6015TIP3    H239461   5.055   2.719   3.337  1.7057  0.4205 -1.3800
 6016TIP3   OH239462   2.130   1.947   2.428 -0.2613 -0.2447  0.7164
 6016TIP3    H139463   2.061   1.901   2.379  0.9275 -1.5130  0.1460
 6016TIP3    H239464   2.104   1.939   2.520 -1.2267 -0.0701  0.4715
 6017TIP3   OH239465   4.113   5.546  11.745  0.4740 -0.4752 -0.4735
 6017TIP3    H139466   4.024   5.583  11.749  0.8816  0.3686  1.6695
 6017TIP3    H239467   4.104   5.457  11.780 -0.1611 -1.9981 -3.9582
 6018TIP3   OH239468   3.863   0.538   4.020 -0.4489  0.4052  0.0882
 6018TIP3    H139469   3.827   0.578   3.941 -0.8742  0.5532  0.3532
 6018TIP3    H239470   3.787   0.498   4.063 -0.0385 -0.7122 -0.1840
 6019TIP3   OH239471   3.095   2.556  13.753 -0.2439 -0.6141  0.1175
 6019TIP3    H139472   3.144   2.638  13.759 -0.3481 -0.3615 -1.9104
 6019TIP3    H239473   3.122   2.506  13.830  3.2066 -0.4941 -0.8796
 6020TIP3   OH239474   6.252   4.379   1.986 -0.3578  0.7975  0.4888
 6020TIP3    H139475   6.195   4.412   2.055 -1.0072  0.4502  0.1285
 6020TIP3    H239476   6.275   4.290   2.015 -2.8081 -0.4185 -0.9570
 6021TIP3   OH239477   6.220   3.267   4.583 -0.0392  0.4896 -0.3660
 6021TIP3    H139478   6.299   3.216   4.602 -1.0985 -1.8277 -1.7362
 6021TIP3    H239479   6.166   3.256   4.662 -0.6604 -1.4219 -1.0100
 6022TIP3   OH239480   2.556   3.927  13.185 -0.9040  0.0591 -0.0663
 6022TIP3    H139481   2.518   3.982  13.253 -1.8077 -1.1379  0.4322
 6022TIP3    H239482   2.640   3.968  13.165 -0.9591  0.8575  1.2290
 6023TIP3   OH239483   1.556   2.704  10.487 -0.2964  0.5364  0.0945
 6023TIP3    H139484   1.478   2.755  10.507 -1.1353 -1.0979  1.1568
 6023TIP3    H239485   1.591   2.744  10.407 -1.1336  2.4896  0.6559
 6024TIP3   OH239486   2.740   4.861   5.539 -0.3690 -0.7055  0.4758
 6024TIP3    H139487   2.682   4.798   5.494 -1.0520 -0.4324  0.9513
 6024TIP3    H239488   2.709   4.861   5.630  0.3906 -0.5512  0.7426
 6025TIP3   OH239489   1.163   2.781   0.952  0.5925 -0.2754 -0.3480
 6025TIP3    H139490   1.253   2.752   0.943  1.0341  1.2498 -1.1163
 6025TIP3    H239491   1.113   2.726   0.892  0.4996 -3.0060  2.0261
 6026TIP3   OH239492   6.211   3.670  15.646 -0.1964  0.4067  0.9830
 6026TIP3    H139493   6.128   3.715  15.631 -0.4165 -0.2578  0.0920
 6026TIP3    H239494   6.220   3.666  15.741 -0.2811  2.0885  1.0998
 6027TIP3   OH239495   3.777   4.681   4.096 -0.0568 -0.1571 -0.1798
 6027TIP3    H139496   3.769   4.776   4.088  2.0277 -0.0704 -2.8977
 6027TIP3    H239497   3.759   4.663   4.188  1.0182  3.0755  0.8128
 6028TIP3   OH239498   3.047   2.769  15.628  0.3311  0.1112  0.0265
 6028TIP3    H139499   3.039   2.687  15.579  0.4283 -0.5068  1.0313
 6028TIP3    H239500   3.120   2.814  15.586  1.4610 -1.1246  0.5886
 6029TIP3   OH239501   3.036   3.859   3.342  0.0456 -0.0738 -0.2384
 6029TIP3    H139502   2.985   3.804   3.402 -1.3790  1.3319 -0.0995
 6029TIP3    H239503   3.126   3.830   3.354 -0.5815 -2.0306  0.1776
 6030TIP3   OH239504   6.075   5.248  14.491 -0.5841 -0.5031  0.6852
 6030TIP3    H139505   6.058   5.257  14.585 -1.4442 -0.2699  0.5120
 6030TIP3    H239506   6.136   5.174  14.485 -2.7007 -2.4287  1.2515
 6031TIP3   OH239507   6.400   1.329   3.389  0.2093 -0.0044 -0.5746
 6031TIP3    H139508   6.446   1.343   3.306  0.2868 -2.3744 -0.9840
 6031TIP3    H239509   6.339   1.402   3.394  1.2516  1.0280 -1.9660
 6032TIP3   OH239510   3.328   5.185   2.036 -0.1610  0.2831 -0.4157
 6032TIP3    H139511   3.417   5.170   2.005 -0.8980 -1.5356 -1.8399
 6032TIP3    H239512   3.278   5.204   1.957 -1.0240  1.5481  0.3978
 6033TIP3   OH239513   1.365   0.607   5.526  0.9515 -0.1641  0.1449
 6033TIP3    H139514   1.442   0.588   5.473  0.1701 -0.7121 -0.8421
 6033TIP3    H239515   1.325   0.522   5.542 -0.0228  0.1992 -0.2768
 6034TIP3   OH239516   0.497   4.820  12.931 -0.6200 -0.3151  0.0368
 6034TIP3    H139517   0.534   4.906  12.952 -0.7508 -0.0890 -0.6375
 6034TIP3    H239518   0.470   4.827  12.839  0.3257 -1.4061 -0.3467
 6035TIP3   OH239519   1.338   4.155   2.198 -0.1001 -0.4217  0.4473
 6035TIP3    H139520   1.369   4.139   2.287  1.2040 -1.4788 -0.1671
 6035TIP3    H239521   1.304   4.070   2.169  1.2970 -0.6147 -0.7370
 6036TIP3   OH239522   0.695   0.294  15.879  0.6123 -0.3555  0.3222
 6036TIP3    H139523   0.726   0.232  15.814  0.5590 -1.1003  1.0008
 6036TIP3    H239524   0.706   0.250  15.963 -0.0559  0.2835  0.7669
 6037TIP3   OH239525   2.796   2.224   4.117 -0.4105  0.1278  0.2284
 6037TIP3    H139526   2.792   2.290   4.047  0.2679  0.1261  0.1836
 6037TIP3    H239527   2.775   2.272   4.197 -1.3575  0.0992  0.0189
 6038TIP3   OH239528   5.918   3.759  12.540 -0.2868 -0.1271  0.4903
 6038TIP3    H139529   5.905   3.800  12.455 -1.1261 -2.6292 -0.6887
 6038TIP3    H239530   5.840   3.705  12.553 -1.4014  1.9510  4.0495
 6039TIP3   OH239531   1.703   6.295  11.886 -0.4200  0.3691 -0.2727
 6039TIP3    H139532   1.633   6.244  11.927 -0.7223  0.0841 -1.1128
 6039TIP3    H239533   1.706   6.263  11.796  0.9098  0.2681 -0.2122
 6040TIP3   OH239534   0.393   1.827   0.580 -0.0427  0.1378 -0.4571
 6040TIP3    H139535   0.299   1.834   0.598 -0.4145 -1.7047 -1.4792
 6040TIP3    H239536   0.407   1.883   0.504 -0.0663  1.3262  0.3896
 6041TIP3   OH239537   3.073   0.981  13.571  0.6826 -0.1093  0.4626
 6041TIP3    H139538   3.006   0.978  13.502 -0.7396  0.4853  1.7787
 6041TIP3    H239539   3.127   1.057  13.548 -0.0708  0.3731  0.2395
 6042TIP3   OH239540   1.305   4.378   0.161 -0.0389 -0.4220 -0.0300
 6042TIP3    H139541   1.348   4.347   0.081  0.9631 -0.5118  0.5301
 6042TIP3    H239542   1.220   4.411   0.131  0.1147 -0.9153 -1.0587
 6043TIP3   OH239543   1.658   3.962  11.216  0.3980 -0.3683 -0.6653
 6043TIP3    H139544   1.661   3.965  11.120  1.3275 -0.0154 -0.6360
 6043TIP3    H239545   1.569   3.987  11.238  0.5952  1.0796 -1.3984
 6044TIP3   OH239546   4.278   4.639   2.467 -0.1589 -0.6825  0.3568
 6044TIP3    H139547   4.268   4.545   2.475  1.6017 -0.9644 -0.3674
 6044TIP3    H239548   4.353   4.661   2.522 -0.6063  0.3228  0.5952
 6045TIP3   OH239549   5.335   0.614  13.647  0.7143  0.3893  0.4067
 6045TIP3    H139550   5.401   0.656  13.703  1.1804 -0.7114  0.7141
 6045TIP3    H239551   5.297   0.546  13.703 -0.0722  0.4411 -0.0584
 6046TIP3   OH239552   0.982   3.228   2.528 -0.3012 -0.2597  0.1519
 6046TIP3    H139553   0.957   3.306   2.478 -1.1412 -0.2352  0.5838
 6046TIP3    H239554   1.009   3.263   2.613  0.1167 -0.3814  0.0718
 6047TIP3   OH239555   1.856   2.679   4.300 -0.0181 -0.2724 -0.1282
 6047TIP3    H139556   1.768   2.680   4.337 -0.1575  1.3276 -0.4381
 6047TIP3    H239557   1.912   2.714   4.369  0.5099 -1.9310  0.3220
 6048TIP3   OH239558   0.647   4.229  14.014 -0.1573  0.4679  0.4305
 6048TIP3    H139559   0.682   4.179  14.087 -1.8665  1.3521  1.9369
 6048TIP3    H239560   0.552   4.218  14.021 -0.3812  0.7585 -1.5501
 6049TIP3   OH239561   0.844   2.299  14.676 -0.0160 -0.0563 -0.2879
 6049TIP3    H139562   0.930   2.272  14.710 -0.3085  0.4258  0.8526
 6049TIP3    H239563   0.865   2.358  14.603  0.6125 -1.2134 -1.0837
 6050TIP3   OH239564   6.753   4.264  11.197  0.1759  0.0896 -0.2939
 6050TIP3    H139565   6.787   4.302  11.278  1.4612 -2.6026  0.5718
 6050TIP3    H239566   6.682   4.206  11.227  0.8293 -1.1208 -1.0136
 6051TIP3   OH239567   5.983   4.675   6.334 -0.1195  0.0406  0.7602
 6051TIP3    H139568   6.031   4.600   6.368 -1.7686 -0.8627  1.1677
 6051TIP3    H239569   5.987   4.740   6.404  0.5152 -0.0029  0.7740
 6052TIP3   OH239570   0.004   3.130   4.361 -0.3450 -0.0738  0.2904
 6052TIP3    H139571  -0.057   3.190   4.402 -0.7789 -0.4000  0.1258
 6052TIP3    H239572   0.090   3.170   4.375 -0.6501  0.7204 -0.0703
 6053TIP3   OH239573   0.834   3.178   5.520 -0.5392 -0.5629 -0.2094
 6053TIP3    H139574   0.754   3.132   5.496 -1.6045  0.9679  0.2679
 6053TIP3    H239575   0.824   3.195   5.614  0.1919 -0.0756 -0.2156
 6054TIP3   OH239576   4.449   4.755   2.654  0.7928  0.2421  0.6478
 6054TIP3    H139577   4.425   4.705   2.732  0.0647 -1.4084 -0.5834
 6054TIP3    H239578   4.538   4.786   2.672  1.2769 -1.5020  1.4741
 6055TIP3   OH239579   2.510   1.132   3.335  0.1392 -0.3395  0.0077
 6055TIP3    H139580   2.527   1.199   3.269  2.0290 -1.2040 -0.4714
 6055TIP3    H239581   2.529   1.175   3.418  0.1065  0.0749 -0.1947
 6056TIP3   OH239582   6.646   5.309   0.159 -0.4878 -0.2503  0.2746
 6056TIP3    H139583   6.688   5.224   0.170 -0.2642 -0.0570  0.9716
 6056TIP3    H239584   6.694   5.350   0.087 -1.0300 -0.9653 -0.5181
 6057TIP3   OH239585   3.936   3.182  12.678  0.5906 -0.3907  0.0202
 6057TIP3    H139586   3.976   3.096  12.690 -2.4195 -1.5638  3.5973
 6057TIP3    H239587   3.970   3.235  12.751 -1.0382 -0.0876  0.5950
 6058TIP3   OH239588   0.931   4.466  13.617 -0.0803  0.5992 -0.2832
 6058TIP3    H139589   0.867   4.466  13.688  3.3528  1.1665  3.1071
 6058TIP3    H239590   0.959   4.374  13.610  0.6801  0.7803  0.2379
 6059TIP3   OH239591   6.040   1.716  14.155  0.0950 -0.1379  0.3205
 6059TIP3    H139592   6.119   1.720  14.208 -0.0778 -0.4598  0.6074
 6059TIP3    H239593   6.019   1.807  14.135 -0.4696  0.0594  1.7394
 6060TIP3   OH239594   5.727   2.084   0.218 -0.1345  0.5471  0.0002
 6060TIP3    H139595   5.733   2.144   0.143  2.1427  0.9679  0.4451
 6060TIP3    H239596   5.691   2.138   0.289  0.2983  0.9191 -0.0596
 6061TIP3   OH239597   0.776   2.141   4.976 -0.2173  0.1738 -0.3245
 6061TIP3    H139598   0.741   2.200   4.910  1.6452  3.2462  1.2129
 6061TIP3    H239599   0.700   2.116   5.028 -1.1945  0.5005 -1.5531
 6062TIP3   OH239600   1.556   4.741   1.020 -0.1821  0.4521  0.1033
 6062TIP3    H139601   1.590   4.746   0.931 -1.7706 -1.4100 -0.6887
 6062TIP3    H239602   1.463   4.763   1.012  0.0483  2.2968  1.6735
 6063TIP3   OH239603   4.126   0.096   5.439  0.3755 -0.8124  0.4174
 6063TIP3    H139604   4.105   0.189   5.434  0.8811 -0.7588 -1.1390
 6063TIP3    H239605   4.191   0.089   5.509 -0.0690 -0.0822  0.9117
 6064TIP3   OH239606   0.401   5.050  11.528 -0.3298 -0.2030  0.3498
 6064TIP3    H139607   0.418   5.124  11.469 -0.1264  1.6682  2.6238
 6064TIP3    H239608   0.306   5.039  11.525 -0.3281 -0.1112 -0.2808
 6065TIP3   OH239609   3.722   1.444   1.916 -0.4927 -0.3360  0.1822
 6065TIP3    H139610   3.768   1.380   1.862 -0.9944  1.0430 -1.9538
 6065TIP3    H239611   3.683   1.392   1.986 -1.1261 -2.4260 -1.6304
 6066TIP3   OH239612   4.624   1.869  15.979 -0.1358  0.2586  0.0582
 6066TIP3    H139613   4.674   1.891  15.900  2.0194  0.8033  1.4636
 6066TIP3    H239614   4.651   1.779  15.999 -2.0527 -0.5445 -0.7504
 6067TIP3   OH239615   4.174   0.582  13.469 -0.3117 -0.3710  0.3045
 6067TIP3    H139616   4.134   0.635  13.538  0.2121 -1.3007  1.3414
 6067TIP3    H239617   4.236   0.525  13.515  1.4441  0.2880 -1.1270
 6068TIP3   OH239618   2.632   1.296  15.154  0.2447 -1.0189  0.9005
 6068TIP3    H139619   2.626   1.254  15.239 -3.3163  1.9403  2.3801
 6068TIP3    H239620   2.675   1.380  15.171  0.6315 -0.9071 -0.4798
 6069TIP3   OH239621   5.905   6.180  16.078 -0.3693  0.2708 -0.2398
 6069TIP3    H139622   5.914   6.194  16.172 -0.9736  1.7355 -0.3653
 6069TIP3    H239623   5.926   6.265  16.039  0.1379 -0.3866 -1.4547
 6070TIP3   OH239624   0.283   1.739   1.923 -0.1490  0.4902  0.1467
 6070TIP3    H139625   0.288   1.700   2.010 -2.0947 -0.5828 -0.1606
 6070TIP3    H239626   0.289   1.833   1.938 -0.7702  0.3383  1.4907
 6071TIP3   OH239627   2.111   2.210   4.631  0.0894 -0.3499 -0.6127
 6071TIP3    H139628   2.176   2.279   4.643 -0.5727 -0.0391  1.8412
 6071TIP3    H239629   2.157   2.129   4.649  0.3920 -0.3794 -1.4901
 6072TIP3   OH239630   3.410   5.386  14.612 -0.3411  0.1037 -0.2910
 6072TIP3    H139631   3.426   5.335  14.691  1.4657  1.2148  0.1071
 6072TIP3    H239632   3.494   5.385  14.565 -1.1648  0.1003 -1.8185
 6073TIP3   OH239633   3.356   2.368   0.997 -0.1267 -0.6023 -0.0562
 6073TIP3    H139634   3.305   2.305   1.048 -0.9577  0.9550  1.1016
 6073TIP3    H239635   3.412   2.411   1.062  0.5813 -0.2749 -0.8630
 6074TIP3   OH239636   5.248   5.663   0.628 -0.2853  0.3158 -0.2352
 6074TIP3    H139637   5.203   5.608   0.564 -0.1219  1.1575 -1.1057
 6074TIP3    H239638   5.180   5.687   0.691  0.1104 -2.6797  1.4839
 6075TIP3   OH239639   1.446   4.576   2.120 -0.2551  0.3961 -0.2202
 6075TIP3    H139640   1.497   4.495   2.116 -0.4784  0.1424  1.5215
 6075TIP3    H239641   1.398   4.578   2.037  0.3841 -0.8332 -0.6414
 6076TIP3   OH239642   3.707   4.257  12.595  0.3640 -0.8366  0.5624
 6076TIP3    H139643   3.709   4.312  12.516 -0.1969 -0.0469  1.0858
 6076TIP3    H239644   3.797   4.258  12.627  1.1022 -2.8965 -1.2093
 6077TIP3   OH239645   2.306   2.383  12.106 -0.5603  0.2944  0.0224
 6077TIP3    H139646   2.260   2.318  12.159 -1.3652 -0.1151 -1.1426
 6077TIP3    H239647   2.244   2.407  12.037  0.4837  0.7366 -0.7925
 6078TIP3   OH239648   4.510   3.249   2.011  0.0215  0.2684  0.3897
 6078TIP3    H139649   4.480   3.259   1.921  0.6624  0.1083  0.1546
 6078TIP3    H239650   4.485   3.331   2.054 -1.7176 -0.2805  0.4895
 6079TIP3   OH239651   6.044   6.785   0.524 -0.1284 -0.3545  0.1033
 6079TIP3    H139652   5.961   6.782   0.476 -1.6798  3.2251  2.1736
 6079TIP3    H239653   6.028   6.732   0.603 -1.0528  1.4104  1.1630
 6080TIP3   OH239654   2.291   5.951   0.727 -0.2978  0.0122 -0.0436
 6080TIP3    H139655   2.360   6.003   0.768 -0.1856 -0.7070  0.7038
 6080TIP3    H239656   2.315   5.860   0.745 -0.8313 -0.2852 -0.7706
 6081TIP3   OH239657   6.741   4.540  13.747 -0.7717  0.3106 -0.0784
 6081TIP3    H139658   6.757   4.523  13.654  1.7438  0.6780  0.2172
 6081TIP3    H239659   6.684   4.468  13.775  0.8046 -1.5225 -1.2818
 6082TIP3   OH239660   6.447   4.820   1.275 -0.5195 -0.2458 -0.2708
 6082TIP3    H139661   6.435   4.779   1.189  0.7294 -0.4413 -0.3609
 6082TIP3    H239662   6.542   4.823   1.288 -0.6037  1.6740  0.1980
 6083TIP3   OH239663   5.812   5.995   2.112  0.0472 -0.2705  0.0599
 6083TIP3    H139664   5.806   6.056   2.038 -0.1302  0.1317  0.3997
 6083TIP3    H239665   5.742   6.022   2.171 -1.7322 -2.4097 -0.9304
 6084TIP3   OH239666   0.203   5.845  16.189 -0.2125  0.2531 -0.0389
 6084TIP3    H139667   0.232   5.797  16.267 -0.7720  0.1619  0.1134
 6084TIP3    H239668   0.135   5.904  16.220  1.3207  2.1063  0.0210
 6085TIP3   OH239669   0.463   2.757  14.130 -0.3801  0.1646 -0.3546
 6085TIP3    H139670   0.537   2.715  14.087 -1.0672  0.2802 -1.7008
 6085TIP3    H239671   0.408   2.684  14.160  0.4196  0.0709  0.9692
 6086TIP3   OH239672   3.517   0.542  13.537  0.3141  0.2515 -0.5111
 6086TIP3    H139673   3.513   0.448  13.554 -0.2395 -0.1794 -2.7218
 6086TIP3    H239674   3.458   0.555  13.462  1.2575  2.1706 -0.9732
 6087TIP3   OH239675   6.233   1.245   0.836  0.1754 -0.4302 -1.0577
 6087TIP3    H139676   6.240   1.321   0.778  0.7641 -0.2578 -0.7638
 6087TIP3    H239677   6.156   1.198   0.804  0.5302 -0.3776 -2.0259
 6088TIP3   OH239678   2.777   4.402  15.095 -0.3686 -0.3382  0.6031
 6088TIP3    H139679   2.783   4.336  15.027  0.7022  0.2067  0.1410
 6088TIP3    H239680   2.683   4.422  15.102 -0.5295 -0.7248 -0.3925
 6089TIP3   OH239681   3.178   6.186  13.063  0.2384  0.6408  1.0083
 6089TIP3    H139682   3.271   6.167  13.052  0.5503  0.0597  3.8191
 6089TIP3    H239683   3.138   6.102  13.085 -0.4735  1.2712  2.2576
 6090TIP3   OH239684   0.785   3.876  11.222  0.4233  0.3799  0.1246
 6090TIP3    H139685   0.879   3.871  11.237  0.4180 -0.1540  0.0057
 6090TIP3    H239686   0.776   3.886  11.127  0.3249 -1.5482 -0.1193
 6091TIP3   OH239687   3.188   1.591  13.236 -0.1132  0.1456 -0.1423
 6091TIP3    H139688   3.268   1.623  13.194 -0.5082  0.3824 -0.7369
 6091TIP3    H239689   3.146   1.670  13.270 -0.5313  0.1296 -0.6181
 6092TIP3   OH239690   6.789   4.442  10.651  0.7351  0.6296 -0.6108
 6092TIP3    H139691   6.737   4.362  10.639  1.5705  0.0588 -0.5327
 6092TIP3    H239692   6.785   4.460  10.745 -0.3062  1.2790 -0.7714
 6093TIP3   OH239693   1.266   5.307   5.344 -0.2378 -0.1945 -0.8623
 6093TIP3    H139694   1.212   5.330   5.420 -1.8026 -0.6101 -1.8148
 6093TIP3    H239695   1.267   5.211   5.344  1.9819 -0.2539  0.1142
 6094TIP3   OH239696   6.223   0.509   2.301 -0.3723 -0.0027 -0.3306
 6094TIP3    H139697   6.234   0.454   2.223  0.4409  1.1788 -1.0810
 6094TIP3    H239698   6.303   0.561   2.305 -1.3137  1.4553  0.0900
 6095TIP3   OH239699   0.884   2.266  16.121  0.1491 -0.5922 -0.0428
 6095TIP3    H139700   0.788   2.267  16.121  0.0907 -2.2688 -0.9310
 6095TIP3    H239701   0.908   2.189  16.172  0.9771 -0.7654 -0.6566
 6096TIP3   OH239702   4.232   2.721   3.963  0.1555  0.2888  0.2424
 6096TIP3    H139703   4.268   2.765   4.040  0.1945  1.2410 -0.3018
 6096TIP3    H239704   4.307   2.677   3.924  0.5212  1.3010 -0.2388
 6097TIP3   OH239705   2.459   1.827   4.073 -0.5574 -0.6252 -0.1616
 6097TIP3    H139706   2.462   1.830   3.977 -2.3041  0.1518 -0.2200
 6097TIP3    H239707   2.521   1.894   4.101  0.2127 -1.0850 -0.7192
 6098TIP3   OH239708   1.077   6.489  15.836  0.2244 -0.2695 -0.3446
 6098TIP3    H139709   1.130   6.509  15.914  0.5132  0.6363 -0.7677
 6098TIP3    H239710   1.062   6.574  15.795 -0.7279 -0.6400 -0.7740
 6099TIP3   OH239711   6.210   2.911   2.497 -0.1405 -0.6526 -0.2980
 6099TIP3    H139712   6.213   2.836   2.557  0.4263  0.2182  0.8078
 6099TIP3    H239713   6.122   2.908   2.459  0.2931 -2.6008 -1.2757
 6100TIP3   OH239714   0.471   6.580  12.642  0.3945 -0.1520  0.2568
 6100TIP3    H139715   0.484   6.513  12.709 -1.2949 -0.2956  0.4777
 6100TIP3    H239716   0.428   6.534  12.569  2.1067  0.0194 -0.9378
 6101TIP3   OH239717   0.145   1.111   5.314 -0.3364 -0.0890  1.0227
 6101TIP3    H139718   0.229   1.149   5.288 -0.0824 -0.2015  1.6604
 6101TIP3    H239719   0.084   1.139   5.245 -0.0803  1.1872  1.2876
 6102TIP3   OH239720   5.560   2.721  13.162  0.1355 -0.2834 -0.1391
 6102TIP3    H139721   5.503   2.750  13.234  0.9725 -2.2433  1.4038
 6102TIP3    H239722   5.500   2.704  13.089 -1.0016 -0.2452  0.7600
 6103TIP3   OH239723   3.749   3.529   0.920 -0.5414  0.1590 -0.2405
 6103TIP3    H139724   3.800   3.583   0.981  1.5882 -1.0311 -0.8378
 6103TIP3    H239725   3.740   3.584   0.842  2.1492 -0.4281 -1.0787
 6104TIP3   OH239726   4.425   5.452   0.769 -0.1029  0.3646 -0.1706
 6104TIP3    H139727   4.361   5.424   0.835  0.7904  0.6548  0.8523
 6104TIP3    H239728   4.499   5.392   0.781  0.6244  1.2830  0.0317
 6105TIP3   OH239729   4.013   2.531   5.620 -0.5249 -0.0674 -0.4014
 6105TIP3    H139730   3.952   2.462   5.595 -0.5407 -0.5401  0.8789
 6105TIP3    H239731   4.097   2.487   5.632 -1.0395 -0.4603  2.9426
 6106TIP3   OH239732   4.966   0.928  13.973 -0.1621 -0.1784 -0.3165
 6106TIP3    H139733   5.032   0.861  13.953 -0.8412 -1.2231  0.8364
 6106TIP3    H239734   4.977   0.992  13.903  2.3417 -0.0961  0.0428
 6107TIP3   OH239735   1.640   0.728  12.592  0.1167  0.6364  0.7450
 6107TIP3    H139736   1.684   0.813  12.594  1.6148 -0.1056  0.2596
 6107TIP3    H239737   1.665   0.690  12.508  2.7642 -1.9550  2.5207
 6108TIP3   OH239738   0.665   2.573  14.069 -0.1596 -0.0036 -0.1377
 6108TIP3    H139739   0.754   2.556  14.101 -0.4607 -2.4497 -0.3777
 6108TIP3    H239740   0.664   2.536  13.981 -1.7662 -1.3360  0.3822
 6109TIP3   OH239741   3.618   3.259  15.851 -0.1156 -0.3095  0.4441
 6109TIP3    H139742   3.677   3.333  15.865 -1.8440  1.2670 -0.1335
 6109TIP3    H239743   3.676   3.184  15.839  1.6851  0.6539  2.4264
 6110TIP3   OH239744   4.328   2.474  11.733  0.0949  0.0827  0.1909
 6110TIP3    H139745   4.345   2.487  11.640  1.0171 -0.4777  0.2614
 6110TIP3    H239746   4.356   2.556  11.774 -0.1949  0.2848 -0.0158
 6111TIP3   OH239747   0.858   2.373   0.027 -0.4102 -0.2094  1.0145
 6111TIP3    H139748   0.868   2.286   0.065  1.6948  0.2324  1.6180
 6111TIP3    H239749   0.770   2.401   0.053 -0.8929 -1.9047  1.2948
 6112TIP3   OH239750   0.025   3.268  11.163 -0.1774 -0.7228 -0.8666
 6112TIP3    H139751   0.105   3.241  11.207 -0.4115  0.3056  0.2203
 6112TIP3    H239752   0.046   3.263  11.070  2.0241  1.8825 -0.6391
 6113TIP3   OH239753   6.641   2.377   6.082 -0.3878  0.2354  0.5182
 6113TIP3    H139754   6.566   2.409   6.131 -1.3776 -0.8065 -0.2631
 6113TIP3    H239755   6.661   2.446   6.019 -0.2192  0.8281  1.2226
 6114TIP3   OH239756   3.165   5.043  11.131 -0.5457  0.0322 -0.4174
 6114TIP3    H139757   3.193   5.046  11.223  0.5849 -0.3633 -0.7346
 6114TIP3    H239758   3.209   4.967  11.095 -0.5879  0.4737 -1.4202
 6115TIP3   OH239759   3.731   3.530  12.109 -0.5690  0.1740  0.5987
 6115TIP3    H139760   3.662   3.593  12.130 -1.3132 -1.0874  2.0776
 6115TIP3    H239761   3.733   3.528  12.013 -2.1335  0.7068  0.5240
 6116TIP3   OH239762   3.964   2.531   0.398 -0.0146 -0.0263  0.0370
 6116TIP3    H139763   3.962   2.614   0.444  2.5918 -0.5357  1.2214
 6116TIP3    H239764   4.033   2.542   0.332 -0.4055 -0.8863 -0.5323
 6117TIP3   OH239765   1.202   2.082  16.351 -0.6001 -0.7856 -0.0093
 6117TIP3    H139766   1.228   2.027  16.277  0.9151 -0.3362  0.1590
 6117TIP3    H239767   1.201   2.023  16.426 -1.4924 -1.0987 -0.2473
 6118TIP3   OH239768   3.800   5.500   2.048 -0.3672  0.1261 -0.0113
 6118TIP3    H139769   3.892   5.478   2.064 -0.2865  0.2046 -0.3659
 6118TIP3    H239770   3.752   5.455   2.118 -0.0801 -0.1100  0.0350
 6119TIP3   OH239771   3.638   0.586  12.955  0.1357 -0.3810  0.5903
 6119TIP3    H139772   3.577   0.569  12.884 -0.8223 -0.6704  1.4661
 6119TIP3    H239773   3.725   0.575  12.915 -0.3576  0.4039 -0.7562
 6120TIP3   OH239774   4.546   1.864  16.874  0.2196 -0.9232 -0.4217
 6120TIP3    H139775   4.484   1.932  16.900  1.8017  0.1842  0.7000
 6120TIP3    H239776   4.498   1.809  16.813 -1.9102 -0.2692  0.5748
 6121TIP3   OH239777   1.962   5.609   1.824 -0.2340 -0.2305  0.0302
 6121TIP3    H139778   1.969   5.576   1.914 -0.4887 -0.1324  0.0859
 6121TIP3    H239779   1.987   5.534   1.770 -3.4271 -1.4305  0.0435
 6122TIP3   OH239780   5.590   1.348  11.267 -0.1021  0.3229 -0.4259
 6122TIP3    H139781   5.588   1.300  11.184  2.2201 -0.4572 -0.0932
 6122TIP3    H239782   5.533   1.424  11.251  2.2676  1.6686 -3.7008
 6123TIP3   OH239783   0.149   3.838   4.893  0.2120 -0.1153 -0.2961
 6123TIP3    H139784   0.140   3.839   4.988 -1.0230 -0.4512 -0.3914
 6123TIP3    H239785   0.150   3.931   4.868  2.3294  0.0192  0.1662
 6124TIP3   OH239786   5.150   2.236   1.828 -0.1731 -0.3134  0.1570
 6124TIP3    H139787   5.211   2.164   1.814  0.4801  0.2945 -0.1451
 6124TIP3    H239788   5.084   2.200   1.888 -0.0354 -1.2562 -0.2469
 6125TIP3   OH239789   5.285   1.096  11.227 -0.2496 -0.5105  0.3788
 6125TIP3    H139790   5.335   1.124  11.304 -0.6121 -0.2197  0.5144
 6125TIP3    H239791   5.351   1.080  11.160  0.0640 -0.6589  0.7174
 6126TIP3   OH239792   1.957   4.721  16.545 -0.4577  0.7950 -0.1260
 6126TIP3    H139793   2.021   4.781  16.582 -1.6503  1.5849  0.7327
 6126TIP3    H239794   1.905   4.691  16.619  0.3382 -1.6683 -0.4604
 6127TIP3   OH239795   0.905   6.101  12.482 -0.7666 -0.2920 -0.3422
 6127TIP3    H139796   0.860   6.076  12.401  0.9691 -1.2877 -1.0367
 6127TIP3    H239797   0.869   6.042  12.548 -0.4029 -1.1940 -0.9250
 6128TIP3   OH239798   4.391   4.059  10.868 -0.1677 -0.0166 -0.2334
 6128TIP3    H139799   4.381   4.121  10.795  0.0512 -1.1282 -1.2487
 6128TIP3    H239800   4.393   3.973  10.825 -2.5179 -0.9245  1.2615
 6129TIP3   OH239801   5.752   4.436  13.995 -0.3827  0.5562  0.5750
 6129TIP3    H139802   5.832   4.428  14.047  0.9426  0.4526 -1.3671
 6129TIP3    H239803   5.760   4.520  13.950 -1.0980  0.2880 -0.0787
 6130TIP3   OH239804   5.754   2.975  13.829 -0.4901 -0.2161  0.1467
 6130TIP3    H139805   5.846   2.962  13.854  0.3221  2.8572 -0.8109
 6130TIP3    H239806   5.714   3.017  13.904  0.0964  2.3615 -0.8593
 6131TIP3   OH239807   6.753   2.873  14.638 -0.1696  0.1919 -0.3277
 6131TIP3    H139808   6.802   2.956  14.637 -0.5921  0.4489 -1.5690
 6131TIP3    H239809   6.673   2.893  14.687  0.5835 -0.0268  1.0516
 6132TIP3   OH239810   3.263   3.872  12.825  0.0827  0.5185  0.6543
 6132TIP3    H139811   3.190   3.870  12.762 -0.9784  1.3698  1.8182
 6132TIP3    H239812   3.337   3.905  12.774  0.3415 -2.4505 -1.1751
 6133TIP3   OH239813   0.420   3.775  15.433 -0.6691 -0.0034 -0.3223
 6133TIP3    H139814   0.481   3.730  15.491 -1.8936  0.6251  1.5541
 6133TIP3    H239815   0.465   3.857  15.409 -0.5440  0.2141  0.6099
 6134TIP3   OH239816   0.161   5.012  13.016  0.3536 -0.3414  0.7924
 6134TIP3    H139817   0.108   5.082  12.979  3.2490  2.0242  0.7655
 6134TIP3    H239818   0.104   4.971  13.082 -0.9346  3.2601  2.1574
 6135TIP3   OH239819   1.015   6.515  16.198 -0.2431 -0.5340 -0.0681
 6135TIP3    H139820   1.104   6.512  16.162 -0.3514 -0.1794 -0.3660
 6135TIP3    H239821   0.971   6.440  16.159 -0.3732 -0.1265 -0.7126
 6136TIP3   OH239822   4.161   0.003  13.244 -0.2605 -0.1738 -0.1614
 6136TIP3    H139823   4.235  -0.009  13.305 -1.1912 -2.7302  0.5961
 6136TIP3    H239824   4.152   0.098  13.237  2.3521  0.2280  0.6219
 6137TIP3   OH239825   1.562   6.389  10.531  0.4740 -0.5678 -0.1073
 6137TIP3    H139826   1.599   6.465  10.487 -0.4735  1.5235  2.4239
 6137TIP3    H239827   1.467   6.399  10.520  0.3659 -1.8391 -0.4113
 6138TIP3   OH239828   6.566   3.927   6.343 -0.2894 -0.1456 -0.1378
 6138TIP3    H139829   6.582   3.927   6.438  1.4170 -2.6434 -0.3466
 6138TIP3    H239830   6.506   3.854   6.329  0.9312 -0.9879 -1.1484
 6139TIP3   OH239831   5.821   0.353  14.216 -0.2040 -0.6754  0.2561
 6139TIP3    H139832   5.801   0.445  14.201 -2.9203 -0.7504  2.5728
 6139TIP3    H239833   5.761   0.306  14.157 -0.0510 -0.9670  0.3321
 6140TIP3   OH239834   1.074   2.529   2.550  0.0347 -0.0752 -0.3741
 6140TIP3    H139835   1.055   2.475   2.473 -0.0804 -1.1801  0.4022
 6140TIP3    H239836   1.032   2.613   2.532 -1.7742 -0.9921 -0.6307
 6141TIP3   OH239837   6.415   5.798  11.363  0.4118  0.8248  0.5280
 6141TIP3    H139838   6.346   5.863  11.347  1.3571  2.3043  2.0140
 6141TIP3    H239839   6.374   5.734  11.422 -0.5158  0.0434 -0.9039
 6142TIP3   OH239840   5.413   3.662   1.087  0.1801  0.4008 -0.2602
 6142TIP3    H139841   5.413   3.580   1.037  2.4084 -0.7965  1.4985
 6142TIP3    H239842   5.355   3.645   1.161  0.1201  0.6573 -0.2479
 6143TIP3   OH239843   0.020   4.017   1.663 -0.1328  0.7341 -0.2967
 6143TIP3    H139844   0.069   3.970   1.595 -0.6230  0.3265 -0.3700
 6143TIP3    H239845  -0.052   3.958   1.686  0.5782  0.4458  1.2773
 6144TIP3   OH239846   4.698   3.891   5.415 -0.2438  1.0579 -0.2444
 6144TIP3    H139847   4.656   3.813   5.451  2.7209 -0.6648 -0.2481
 6144TIP3    H239848   4.718   3.945   5.492  0.4258  0.3689  0.0693
 6145TIP3   OH239849   4.795   0.407  14.037 -0.4095 -0.1560  0.3016
 6145TIP3    H139850   4.849   0.345  13.988  0.5488 -0.9423  2.2317
 6145TIP3    H239851   4.753   0.353  14.105 -3.2727  0.5130 -0.7960
 6146TIP3   OH239852   2.670   5.928   4.062 -0.4564 -0.0398  0.1924
 6146TIP3    H139853   2.680   5.943   3.968 -3.4220 -0.0583 -0.2274
 6146TIP3    H239854   2.712   5.844   4.078  0.4209  0.1437 -1.0216
 6147TIP3   OH239855   5.590   5.700  16.624 -0.6223  0.3845  0.5302
 6147TIP3    H139856   5.661   5.648  16.662 -0.1800  0.7266  0.1817
 6147TIP3    H239857   5.589   5.780  16.675 -1.0486  0.1989  0.8157
 6148TIP3   OH239858   4.555   6.715   5.718  0.2164  0.1667  0.6050
 6148TIP3    H139859   4.594   6.753   5.639  0.4489 -0.5713  0.3546
 6148TIP3    H239860   4.622   6.729   5.786  0.6723 -0.5615  0.3137
 6149TIP3   OH239861   1.378   3.721   1.598  0.7194  0.2072  0.7361
 6149TIP3    H139862   1.427   3.782   1.544 -0.9152  2.0104  1.1579
 6149TIP3    H239863   1.434   3.705   1.674  1.4777  0.5966  0.2712
 6150TIP3   OH239864   3.101   6.170   3.281 -0.0303 -0.3056 -0.3208
 6150TIP3    H139865   3.066   6.198   3.365  1.0022 -1.9457  0.7091
 6150TIP3    H239866   3.187   6.211   3.276  0.2452 -0.8581 -0.1856
 6151TIP3   OH239867   1.693   3.403  15.768 -0.2414  0.0469 -0.3391
 6151TIP3    H139868   1.697   3.347  15.690 -1.0411  0.0872 -0.4230
 6151TIP3    H239869   1.632   3.473  15.744 -0.8274 -0.1780  0.4592
 6152TIP3   OH239870   3.839   6.306  15.320 -0.2083  0.1705  0.1977
 6152TIP3    H139871   3.756   6.266  15.347 -0.5449 -0.4740 -1.6253
 6152TIP3    H239872   3.814   6.395  15.294 -0.6130 -0.4388 -1.6135
 6153TIP3   OH239873   6.762   3.408   5.216  0.3406  0.0647 -0.2637
 6153TIP3    H139874   6.765   3.469   5.290  0.2562 -1.0271  0.6800
 6153TIP3    H239875   6.772   3.463   5.139  2.4596  1.0572  0.6378
 6154TIP3   OH239876   6.745   5.448  16.979  0.0963 -0.7148  0.7868
 6154TIP3    H139877   6.693   5.523  17.008  0.8940 -0.0271  0.4856
 6154TIP3    H239878   6.704   5.421  16.897  0.9183  0.5963 -0.0879
 6155TIP3   OH239879   0.432   3.806  15.965  0.1015  0.2981  0.1129
 6155TIP3    H139880   0.522   3.825  15.938  0.5051 -3.0635 -1.4999
 6155TIP3    H239881   0.412   3.722  15.923 -4.0261  1.1699 -0.0505
 6156TIP3   OH239882   1.909   6.085  14.703  0.6693 -1.0236 -0.0755
 6156TIP3    H139883   1.876   6.088  14.613 -0.2487 -0.3211  0.2624
 6156TIP3    H239884   2.001   6.064  14.694  0.3022 -2.3455 -1.1068
 6157TIP3   OH239885   1.666   2.640  16.284 -0.3539 -0.2542 -0.1422
 6157TIP3    H139886   1.637   2.563  16.234 -1.3864 -0.4150  0.6608
 6157TIP3    H239887   1.600   2.649  16.353 -0.7486  1.8943 -0.7485
 6158TIP3   OH239888   4.857   6.394  11.679  0.3430  0.3206  0.5090
 6158TIP3    H139889   4.838   6.311  11.723  0.9915 -0.6429 -0.9117
 6158TIP3    H239890   4.953   6.400  11.681  0.2620  1.5151  1.4091
 6159TIP3   OH239891   1.547   4.475   2.875 -0.7347  0.2293 -0.2132
 6159TIP3    H139892   1.589   4.390   2.892 -1.0161 -0.3614 -2.1898
 6159TIP3    H239893   1.592   4.536   2.934  1.1461 -0.8528 -0.4287
 6160TIP3   OH239894   0.214   2.155  12.654  0.4846  0.0494 -0.3439
 6160TIP3    H139895   0.272   2.173  12.580  1.1292  1.0596  0.3825
 6160TIP3    H239896   0.273   2.126  12.724  0.1217  1.0828  0.4044
 6161TIP3   OH239897   1.674   3.776  12.181 -0.0011 -0.1735  0.2136
 6161TIP3    H139898   1.620   3.700  12.156 -0.8009  0.0722  1.1269
 6161TIP3    H239899   1.764   3.743  12.177 -0.2268 -0.7137 -0.9288
 6162TIP3   OH239900   1.119   5.469   2.855  0.1117 -0.7056 -0.4455
 6162TIP3    H139901   1.044   5.490   2.910  1.0662  0.8364  0.3354
 6162TIP3    H239902   1.098   5.383   2.819 -2.5941  0.1767 -1.2632
 6163TIP3   OH239903   4.770   1.376   2.477  0.1562  0.2173  0.4019
 6163TIP3    H139904   4.756   1.471   2.481 -0.3198  0.1735 -0.1195
 6163TIP3    H239905   4.737   1.351   2.391 -3.3683 -0.9992  1.9096
 6164TIP3   OH239906   6.802   0.997  14.728  0.1279 -0.1251 -0.0938
 6164TIP3    H139907   6.793   1.061  14.657  2.0127  0.8638  0.5012
 6164TIP3    H239908   6.748   1.031  14.799 -1.8421 -1.1636 -0.9811
 6165TIP3   OH239909   3.967   2.814   5.121  0.4614 -0.1156  0.1358
 6165TIP3    H139910   4.002   2.749   5.060 -2.9577 -1.3151 -0.7622
 6165TIP3    H239911   3.939   2.763   5.197 -0.0444  0.6600  0.4776
 6166TIP3   OH239912   0.710   0.054  12.305  0.0876  0.0480  0.9015
 6166TIP3    H139913   0.614   0.046  12.300 -0.2786  2.4444  2.3625
 6166TIP3    H239914   0.735  -0.004  12.376 -0.0938 -1.3419 -0.1126
 6167TIP3   OH239915   0.281   5.255  15.744 -0.1595  0.2661 -0.7295
 6167TIP3    H139916   0.296   5.177  15.689 -0.2868  0.7958 -1.5348
 6167TIP3    H239917   0.216   5.306  15.696 -0.7709  0.4363  0.2444
 6168TIP3   OH239918   0.965   3.304  15.443  0.8882  0.2181 -0.5863
 6168TIP3    H139919   0.880   3.298  15.485  0.4521  0.0207 -1.4736
 6168TIP3    H239920   1.003   3.385  15.476  0.3369  0.3309 -0.2255
 6169TIP3   OH239921   6.691   4.532  14.582  0.0329 -0.0236  0.1600
 6169TIP3    H139922   6.706   4.581  14.502  0.9948 -1.3509 -0.5167
 6169TIP3    H239923   6.747   4.574  14.647 -1.2293  1.4504  0.3261
 6170TIP3   OH239924   4.467   2.755   5.410  0.3756 -0.2137  0.0960
 6170TIP3    H139925   4.426   2.837   5.384  0.1646 -0.6610 -1.0178
 6170TIP3    H239926   4.529   2.780   5.479 -0.1771  0.7709  0.2530
 6171TIP3   OH239927   4.048   2.038   1.831 -0.5092 -0.1148  0.2408
 6171TIP3    H139928   4.025   2.106   1.769 -1.0788  0.8704  1.4891
 6171TIP3    H239929   4.013   2.068   1.915  0.2298 -1.3947  1.0575
 6172TIP3   OH239930   1.081   1.481   0.421 -0.3761 -0.2150 -0.3555
 6172TIP3    H139931   1.095   1.506   0.329 -0.1231  0.4114 -0.1542
 6172TIP3    H239932   0.993   1.514   0.441  0.2316  1.2089  0.1191
 6173TIP3   OH239933   1.529   4.503  15.555  0.1857  0.4126  0.7688
 6173TIP3    H139934   1.614   4.467  15.581  1.1446  2.4852  0.7104
 6173TIP3    H239935   1.549   4.564  15.484 -1.4042  0.7223  0.5459
 6174TIP3   OH239936   0.361   3.151  13.103 -0.0329  0.2259  0.2209
 6174TIP3    H139937   0.342   3.059  13.122  0.1676  0.3776  1.2221
 6174TIP3    H239938   0.289   3.179  13.046  0.4943 -0.8372 -1.0244
 6175TIP3   OH239939   5.794   2.197  12.847  0.0898 -0.0542  0.0317
 6175TIP3    H139940   5.746   2.272  12.812  0.9151  0.4280 -0.0919
 6175TIP3    H239941   5.851   2.234  12.914  0.5571 -0.5694 -0.0802
 6176TIP3   OH239942   2.249   6.270  13.086  0.0533 -0.8405  0.3125
 6176TIP3    H139943   2.188   6.338  13.058 -0.2014 -0.5413  1.5394
 6176TIP3    H239944   2.233   6.197  13.026  0.6449  0.3138 -1.3258
 6177TIP3   OH239945   2.594   6.464   0.832 -0.1734  0.3795  0.8071
 6177TIP3    H139946   2.641   6.541   0.799 -0.8287  1.2919  1.8918
 6177TIP3    H239947   2.526   6.448   0.766 -0.0783  0.7685  0.6098
 6178TIP3   OH239948   4.006   5.822   5.451 -0.8632  0.2533  0.3232
 6178TIP3    H139949   4.102   5.823   5.442 -0.8882  0.5420  0.0365
 6178TIP3    H239950   3.982   5.914   5.461 -1.0214  0.0893  1.5111
 6179TIP3   OH239951   5.921   4.983   1.569 -0.1805 -0.0564 -0.2662
 6179TIP3    H139952   5.907   4.988   1.664  0.3135  0.0458 -0.1964
 6179TIP3    H239953   5.835   5.001   1.532 -0.1397  1.0704  0.1437
 6180TIP3   OH239954   4.278   1.452  16.376  0.5179  0.2399  0.3867
 6180TIP3    H139955   4.316   1.412  16.297 -0.0639 -0.2164  0.3312
 6180TIP3    H239956   4.268   1.379  16.437 -0.6836  0.2634  0.2408
 6181TIP3   OH239957   0.036   6.142  13.718 -0.0416 -0.3822  0.4523
 6181TIP3    H139958   0.072   6.228  13.737 -2.7071  0.9464 -0.0727
 6181TIP3    H239959   0.102   6.100  13.663  1.7046  0.9526  1.4262
 6182TIP3   OH239960   6.652   6.656   5.429  0.0575  0.1939 -0.1946
 6182TIP3    H139961   6.742   6.651   5.461  0.0056 -0.8194 -0.1518
 6182TIP3    H239962   6.660   6.690   5.340  0.4246  0.6970  0.0271
 6183TIP3   OH239963   4.353   2.187  12.852  0.2186 -0.0890 -0.0451
 6183TIP3    H139964   4.315   2.271  12.880 -1.0967 -0.1969 -1.3893
 6183TIP3    H239965   4.279   2.139  12.813  0.6802 -2.3610  1.6891
 6184TIP3   OH239966   2.642   2.534   0.429  0.3010  0.3347 -0.7754
 6184TIP3    H139967   2.717   2.491   0.469  1.2607  2.6701  0.1454
 6184TIP3    H239968   2.579   2.464   0.414  1.2086 -1.1765  1.7914
 6185TIP3   OH239969   1.779   3.839   5.985 -0.5894  0.0758 -0.8822
 6185TIP3    H139970   1.842   3.840   5.913 -1.4038  2.9014 -1.6953
 6185TIP3    H239971   1.703   3.793   5.949 -0.5812  0.4949 -1.4532
 6186TIP3   OH239972   6.235   4.289  10.793 -0.2890 -0.4095  0.3256
 6186TIP3    H139973   6.257   4.270  10.702 -2.4461  0.1708 -0.3671
 6186TIP3    H239974   6.144   4.260  10.802  0.1923 -1.4075  2.5991
 6187TIP3   OH239975   1.280   2.795  15.308 -0.1411 -0.2574 -0.6859
 6187TIP3    H139976   1.335   2.865  15.274  0.4416 -0.5036 -0.2751
 6187TIP3    H239977   1.334   2.716  15.301 -0.6032 -0.5792 -0.6830
 6188TIP3   OH239978   5.497   4.470  16.871 -0.0391  0.2113  0.6436
 6188TIP3    H139979   5.449   4.402  16.824  0.4681  0.2818  0.0078
 6188TIP3    H239980   5.507   4.540  16.807  0.4782  0.3936  0.9224
 6189TIP3   OH239981   2.829   2.837   2.729 -0.1002 -0.0021  0.0566
 6189TIP3    H139982   2.749   2.847   2.781  0.9039 -1.5961  2.0307
 6189TIP3    H239983   2.803   2.780   2.656 -0.7425 -0.6843  0.7951
 6190TIP3   OH239984   1.870   2.033  16.471  0.7148  0.0207 -0.4105
 6190TIP3    H139985   1.915   1.961  16.516 -0.9307 -1.0700 -0.4434
 6190TIP3    H239986   1.869   2.104  16.536 -0.2847 -1.0166  0.7511
 6191TIP3   OH239987   4.402   2.338  10.672  0.2861  0.1937 -0.3742
 6191TIP3    H139988   4.454   2.287  10.610 -1.3232 -0.2303 -1.4264
 6191TIP3    H239989   4.326   2.367  10.622 -0.8986  0.1337  1.3032
 6192TIP3   OH239990   5.581   3.610  13.806  0.0550  0.0157  0.1619
 6192TIP3    H139991   5.659   3.596  13.859  0.0675 -0.7053 -0.0270
 6192TIP3    H239992   5.509   3.574  13.859 -0.3858  1.9577  0.9595
 6193TIP3   OH239993   3.564   3.276   3.977 -0.3817 -0.0174  0.1865
 6193TIP3    H139994   3.532   3.298   4.065 -2.9521  1.8942 -1.0703
 6193TIP3    H239995   3.496   3.219   3.941 -0.4941  0.9712 -1.2536
 6194TIP3   OH239996   0.897   6.565  17.021  0.6880 -0.1100  0.5271
 6194TIP3    H139997   0.902   6.489  16.963 -0.8446  0.8108 -0.8826
 6194TIP3    H239998   0.852   6.532  17.099 -4.0271  0.1424 -1.7496
 6195TIP3   OH239999   2.872   0.521  12.337 -0.2642  0.3690  0.2988
 6195TIP3    H140000   2.866   0.430  12.367 -0.9602 -0.2118 -1.4734
 6195TIP3    H240001   2.783   0.554  12.344 -0.3080  0.4264 -0.4761
 6196TIP3   OH240002   2.967   6.039  14.362  0.0983  0.7014 -0.0623
 6196TIP3    H140003   2.993   5.952  14.331  0.7037  0.1426  1.8735
 6196TIP3    H240004   3.000   6.044  14.451 -1.2955  2.3256  0.4284
 6197TIP3   OH240005   3.993   6.553   0.915 -0.2253 -0.7063 -0.1117
 6197TIP3    H140006   4.039   6.636   0.924  0.3926 -0.8493 -1.6781
 6197TIP3    H240007   4.061   6.487   0.931 -0.1177 -0.9110 -1.3226
 6198TIP3   OH240008   0.633   5.163  14.223 -0.2638  0.0142  0.0003
 6198TIP3    H140009   0.631   5.170  14.128 -1.6528  1.0404  0.0802
 6198TIP3    H240010   0.617   5.070  14.241 -0.0170 -0.1796 -0.7551
 6199TIP3   OH240011   3.053   5.720  12.279 -0.2383 -0.2304  0.3198
 6199TIP3    H140012   3.143   5.687  12.276 -0.0275  0.3424  0.3111
 6199TIP3    H240013   3.010   5.678  12.205  0.5919  1.1393 -0.9786
 6200TIP3   OH240014   5.035   5.156  13.532 -0.6423 -0.5610 -0.0634
 6200TIP3    H140015   4.972   5.170  13.602 -0.0412  0.2109  0.3465
 6200TIP3    H240016   5.029   5.063  13.512  0.1561 -1.1030  1.9835
 6201TIP3   OH240017   5.824   0.913  11.192  0.0547  0.4400 -0.1585
 6201TIP3    H140018   5.848   0.999  11.156  0.3002  0.4630  0.0579
 6201TIP3    H240019   5.887   0.853  11.152  0.5310  0.5116  0.4697
 6202TIP3   OH240020   3.287   2.290   0.031  0.0430 -0.0627 -0.1081
 6202TIP3    H140021   3.275   2.270  -0.061 -0.8007  0.8655 -0.2223
 6202TIP3    H240022   3.300   2.385   0.033 -0.3986 -0.0102  0.7668
 6203TIP3   OH240023   0.257   6.573   2.504  0.5499  0.3275  0.0060
 6203TIP3    H140024   0.239   6.638   2.571 -0.6095  0.1177 -0.0900
 6203TIP3    H240025   0.172   6.552   2.466  1.1243  0.1487 -1.2682
 6204TIP3   OH240026   5.790   4.432  11.869  0.5240 -0.1745 -0.1127
 6204TIP3    H140027   5.696   4.447  11.866  0.5342 -0.1112 -0.1301
 6204TIP3    H240028   5.803   4.369  11.940  0.3589 -1.0263 -0.8251
 6205TIP3   OH240029   3.865   4.974  11.644  0.2093 -0.1469 -0.7748
 6205TIP3    H140030   3.846   5.047  11.585  1.0758  0.9076  0.1997
 6205TIP3    H240031   3.826   5.000  11.728  0.9552 -0.5771 -0.2814
 6206TIP3   OH240032   4.042   4.667   2.148 -0.0949 -0.0437 -0.0580
 6206TIP3    H140033   4.017   4.722   2.222 -0.6445  1.4066 -1.2587
 6206TIP3    H240034   4.130   4.695   2.125 -0.4041  0.4378 -0.7206
 6207TIP3   OH240035   6.160   6.185   2.593  0.2513  0.1413  0.3166
 6207TIP3    H140036   6.131   6.276   2.586  0.1500  0.2225  1.5933
 6207TIP3    H240037   6.112   6.139   2.524 -0.2813  0.9116  0.1582
 6208TIP3   OH240038   6.513   6.619   6.194 -0.4520  0.2138  0.1024
 6208TIP3    H140039   6.471   6.625   6.108  2.1769 -1.5414 -1.4530
 6208TIP3    H240040   6.545   6.707   6.211  0.2564  0.2979 -1.4708
 6209TIP3   OH240041   1.386   6.232   6.254 -0.3669  0.1226 -0.4249
 6209TIP3    H140042   1.451   6.293   6.287 -1.6003  0.6499  1.1579
 6209TIP3    H240043   1.320   6.228   6.323  0.1958 -3.8938  0.1168
 6210TIP3   OH240044   1.580   0.884  13.722  0.3893 -0.4592 -0.1849
 6210TIP3    H140045   1.628   0.846  13.796 -0.4283 -2.5726 -0.6588
 6210TIP3    H240046   1.490   0.890  13.754  0.7121  2.6535  0.3985
 6211TIP3   OH240047   2.219   5.819  12.627 -0.2938  0.2883 -0.3474
 6211TIP3    H140048   2.132   5.839  12.594  0.7408  1.3104 -2.6681
 6211TIP3    H240049   2.236   5.887  12.693 -0.7373  0.9227 -0.8735
 6212TIP3   OH240050   2.045   2.590  15.360  0.1625  0.2689 -0.2508
 6212TIP3    H140051   2.079   2.524  15.299  3.4375  2.1776 -0.7103
 6212TIP3    H240052   1.998   2.652  15.303 -1.9106 -0.9351  0.0410
 6213TIP3   OH240053   3.901   6.014   2.948  0.0002 -0.2607  0.5112
 6213TIP3    H140054   3.971   6.079   2.937 -0.6537  0.2574 -0.8739
 6213TIP3    H240055   3.938   5.934   2.911  0.2875 -0.3105  0.8968
 6214TIP3   OH240056   5.194   6.713   3.632  0.7432  0.0262 -0.5061
 6214TIP3    H140057   5.215   6.791   3.684  0.8662 -0.8169  0.7466
 6214TIP3    H240058   5.280   6.677   3.609  0.7192 -0.7530  0.5247
 6215TIP3   OH240059   2.139   2.510  13.378  1.0084 -0.5955 -0.4796
 6215TIP3    H140060   2.139   2.522  13.283 -0.1503  0.0905 -0.4103
 6215TIP3    H240061   2.184   2.427  13.392 -1.3328 -2.2187 -1.8592
 6216TIP3   OH240062   4.085   0.558  11.644 -0.2291 -0.3305 -0.4068
 6216TIP3    H140063   4.114   0.582  11.556 -0.4266  1.4071 -0.0401
 6216TIP3    H240064   4.030   0.631  11.672 -1.9646 -1.8312  0.3542
 6217TIP3   OH240065   1.941   2.122   0.673  0.2153  0.2433 -0.0170
 6217TIP3    H140066   2.017   2.069   0.648  0.5284  0.7068 -0.0574
 6217TIP3    H240067   1.955   2.141   0.766  0.2799  0.5426 -0.0873
 6218TIP3   OH240068   2.462   2.706  15.801  0.5787  0.1259 -0.3694
 6218TIP3    H140069   2.426   2.696  15.713  2.5575 -2.3358 -1.0205
 6218TIP3    H240070   2.553   2.731  15.788  1.3206 -1.6903  0.8456
 6219TIP3   OH240071   6.771   5.687   1.586  0.4167  0.1521  0.2797
 6219TIP3    H140072   6.859   5.686   1.624  1.0265  1.0073 -1.0185
 6219TIP3    H240073   6.767   5.607   1.533 -0.3446 -0.9133  1.8634
 6220TIP3   OH240074   2.625   2.925  16.252  0.4028 -0.4945 -0.0034
 6220TIP3    H140075   2.592   3.001  16.204  0.3573 -1.4696 -1.5735
 6220TIP3    H240076   2.551   2.865  16.257  0.6135 -0.7126  0.6912
 6221TIP3   OH240077   2.212   2.183  15.284 -0.3821 -0.2507  0.5313
 6221TIP3    H140078   2.190   2.090  15.279  0.9426 -0.5841  0.4417
 6221TIP3    H240079   2.241   2.196  15.374  2.0492 -0.5878 -0.1338
 6222TIP3   OH240080   1.866   2.503  15.697 -0.3286 -0.9875  0.2528
 6222TIP3    H140081   1.905   2.487  15.782  0.4608 -0.7773 -0.0643
 6222TIP3    H240082   1.924   2.566  15.654 -0.5184 -1.3543 -0.5746
 6223TIP3   OH240083   0.372   4.219  14.055  0.3790  0.1158  0.6595
 6223TIP3    H140084   0.371   4.144  13.995 -1.8800  0.2101  0.4958
 6223TIP3    H240085   0.323   4.287  14.008  0.0088  0.7533  1.9383
 6224TIP3   OH240086   0.981   5.625  16.062 -0.2067 -0.6506 -0.2190
 6224TIP3    H140087   1.016   5.584  16.141  0.3061  0.6719  0.2788
 6224TIP3    H240088   0.998   5.561  15.992 -0.7106 -1.8577  0.7306
 6225TIP3   OH240089   2.765   6.394   1.947  0.0892  0.3285  0.3840
 6225TIP3    H140090   2.720   6.357   1.871 -4.0108  2.8529  1.2335
 6225TIP3    H240091   2.748   6.331   2.018  0.2577 -0.0200  0.1169
 6226TIP3   OH240092   6.594   1.476  14.834 -0.5418 -0.1176 -0.8696
 6226TIP3    H140093   6.663   1.523  14.788 -0.2504  1.5771  1.1345
 6226TIP3    H240094   6.515   1.496  14.785 -0.3226  2.0148 -0.4467
 6227TIP3   OH240095   2.729   4.038  15.500  0.1255  0.9263 -0.3694
 6227TIP3    H140096   2.650   4.090  15.512 -0.9622 -0.8511  0.6611
 6227TIP3    H240097   2.708   3.977  15.429 -0.3891 -1.1207  1.4184
 6228TIP3   OH240098   2.563   6.793   5.683 -0.1857  0.8252 -0.0494
 6228TIP3    H140099   2.492   6.751   5.732  0.6193 -1.6754 -0.8781
 6228TIP3    H240100   2.526   6.876   5.655 -1.8498  0.8081  1.8286
 6229TIP3   OH240101   5.481   0.216   0.442 -0.2145 -0.0079 -0.2350
 6229TIP3    H140102   5.517   0.281   0.501  0.3857 -0.4882 -0.0665
 6229TIP3    H240103   5.483   0.134   0.492  0.7831 -0.5278 -1.0803
 6230TIP3   OH240104   1.504   5.475   1.514 -0.1760  0.2131  1.0247
 6230TIP3    H140105   1.595   5.458   1.494 -0.4701  0.3816 -0.6113
 6230TIP3    H240106   1.487   5.427   1.595  1.2056 -0.2489  1.0592
 6231TIP3   OH240107   2.575   4.939   0.895 -0.0357  0.3215  0.0740
 6231TIP3    H140108   2.639   5.005   0.922 -0.4623  0.6762  0.2272
 6231TIP3    H240109   2.555   4.961   0.804  1.2450 -0.7478 -0.4943
 6232TIP3   OH240110   3.646   6.707  14.909 -0.0083  0.3059 -0.5215
 6232TIP3    H140111   3.729   6.716  14.862 -0.4587 -0.5948 -1.5451
 6232TIP3    H240112   3.671   6.681  14.998  0.8731  2.1494 -0.1891
 6233TIP3   OH240113   0.197   3.435  16.838 -0.3335  0.2617  0.6851
 6233TIP3    H140114   0.188   3.362  16.899 -1.0165  0.7720  1.2163
 6233TIP3    H240115   0.192   3.394  16.751  0.2457 -0.4243  0.9600
 6234TIP3   OH240116   5.238   4.980  16.247  0.0805 -0.0986 -0.1245
 6234TIP3    H140117   5.288   5.060  16.265  0.1462 -0.1699  0.0142
 6234TIP3    H240118   5.301   4.922  16.204  0.4678 -0.6371  1.1153
 6235TIP3   OH240119   4.391   5.643   3.581  0.2272 -0.1528 -0.3083
 6235TIP3    H140120   4.460   5.709   3.574  1.8059 -1.4696  1.5855
 6235TIP3    H240121   4.327   5.682   3.641  0.0638  0.4747 -0.8761
 6236TIP3   OH240122   1.473   0.930   0.419  0.6820 -0.4380 -0.6520
 6236TIP3    H140123   1.379   0.942   0.406 -0.0285 -1.6528  2.3615
 6236TIP3    H240124   1.512   1.012   0.391 -1.4254  0.5688 -0.8553
 6237TIP3   OH240125   5.009   5.273   1.797 -0.0841  0.7222 -0.0909
 6237TIP3    H140126   4.954   5.331   1.744  1.4049  1.0137 -1.4023
 6237TIP3    H240127   5.099   5.298   1.774  0.5965 -1.1111  0.4078
 6238TIP3   OH240128   1.234   1.322   2.963 -0.6474 -0.3725  0.6672
 6238TIP3    H140129   1.279   1.372   2.895  0.2560 -2.3813 -0.3031
 6238TIP3    H240130   1.170   1.383   3.000  0.4530  1.4860 -0.3587
 6239TIP3   OH240131   6.185   6.334  16.485 -0.0314 -0.3138  0.4316
 6239TIP3    H140132   6.181   6.430  16.480  2.3398 -0.1762 -0.0539
 6239TIP3    H240133   6.209   6.315  16.575 -1.4329 -0.5384  0.7801
 6240TIP3   OH240134   5.128   1.111   5.496 -0.0099  0.1038  0.0157
 6240TIP3    H140135   5.073   1.178   5.535 -0.1776 -0.5441  0.9312
 6240TIP3    H240136   5.208   1.157   5.470  0.4426  0.4293  1.8673
 6241TIP3   OH240137   1.584   1.927   2.357 -0.5912  0.6827 -0.4609
 6241TIP3    H140138   1.568   1.856   2.419 -3.0183 -1.2080 -2.9925
 6241TIP3    H240139   1.512   1.988   2.371 -1.6429 -0.1735 -1.8377
 6242TIP3   OH240140   6.608   0.180   1.561 -0.4574 -0.0869 -0.1389
 6242TIP3    H140141   6.675   0.226   1.511 -0.9924  0.9066  0.0215
 6242TIP3    H240142   6.525   0.210   1.522 -0.8316 -0.6442  0.2132
 6243TIP3   OH240143   4.557   1.052   6.352  0.3626  0.0492  0.1627
 6243TIP3    H140144   4.561   1.029   6.259  1.7453 -0.1272  0.2494
 6243TIP3    H240145   4.539   0.969   6.397  0.6430 -0.0328  0.1231
 6244TIP3   OH240146   6.617   1.331  14.498 -0.1692  0.3904  0.2538
 6244TIP3    H140147   6.643   1.242  14.471  1.6434 -0.0483  3.0542
 6244TIP3    H240148   6.521   1.328  14.502 -0.1905 -1.1416 -0.5759
 6245TIP3   OH240149   2.901   6.256   4.273  0.1268  0.0893 -0.2211
 6245TIP3    H140150   2.822   6.216   4.310 -0.1047  0.7862  0.0451
 6245TIP3    H240151   2.893   6.240   4.179 -0.0834 -0.2719 -0.1466
 6246TIP3   OH240152   1.220   4.778   0.670 -0.2098 -0.2713 -0.3828
 6246TIP3    H140153   1.176   4.714   0.726  0.8672  0.1665  1.0331
 6246TIP3    H240154   1.296   4.731   0.635 -0.4616 -0.3121 -0.8913
 6247TIP3   OH240155   0.605   0.172  14.952  0.0429  0.2029 -0.2691
 6247TIP3    H140156   0.639   0.259  14.973  0.0547 -0.2674  2.0032
 6247TIP3    H240157   0.649   0.148  14.871  1.4466  1.5779  0.0207
 6248TIP3   OH240158   1.969   3.729  14.580  0.3110  0.1854  0.3449
 6248TIP3    H140159   2.043   3.705  14.636  0.1143  0.2862  0.6480
 6248TIP3    H240160   1.911   3.779  14.637 -0.1855 -0.2421  0.2152
 6249TIP3   OH240161   3.242   3.290   3.199 -0.1430  0.3674 -0.1641
 6249TIP3    H140162   3.190   3.210   3.206 -1.5793  1.3108  0.5765
 6249TIP3    H240163   3.279   3.302   3.287 -0.2436  0.7018 -0.1643
 6250TIP3   OH240164   2.255   0.634   4.192 -0.6826  0.1629 -0.2044
 6250TIP3    H140165   2.332   0.594   4.232 -0.7092  1.1204  0.8560
 6250TIP3    H240166   2.191   0.562   4.187 -0.1571 -0.3342  0.0754
 6251TIP3   OH240167   1.530   6.450  11.389  0.1452 -0.7078  0.7332
 6251TIP3    H140168   1.599   6.516  11.380  0.3524 -0.8151  1.4959
 6251TIP3    H240169   1.548   6.386  11.320 -0.9103  0.7704 -1.0102
 6252TIP3   OH240170   5.838   1.905  12.499  0.3757 -0.6004  0.4567
 6252TIP3    H140171   5.775   1.907  12.427  0.4894  0.1481  0.3698
 6252TIP3    H240172   5.846   1.813  12.521  1.8403 -1.0970 -1.8114
 6253TIP3   OH240173   1.680   5.932  14.908  0.0188 -0.6419 -0.5924
 6253TIP3    H140174   1.586   5.930  14.889  0.2075  0.0291 -1.6788
 6253TIP3    H240175   1.722   5.917  14.823  0.8960 -0.2700 -0.2392
 6254TIP3   OH240176   2.888   5.816   3.122 -0.1405  0.2264  0.3248
 6254TIP3    H140177   2.960   5.812   3.059  0.0849  2.7433  0.3188
 6254TIP3    H240178   2.822   5.756   3.087  0.8033  0.0111 -1.1688
 6255TIP3   OH240179   2.929   2.531  13.077  0.1691 -0.0759 -0.8510
 6255TIP3    H140180   2.909   2.599  13.012 -1.8438  0.4369  0.2212
 6255TIP3    H240181   2.942   2.579  13.159 -3.0295 -0.9639  0.3214
 6256TIP3   OH240182   3.668   3.435   3.778  0.0245  0.2124  0.4642
 6256TIP3    H140183   3.628   3.399   3.858  0.4951 -0.9972  0.1761
 6256TIP3    H240184   3.756   3.397   3.775  0.0452  0.3032 -0.5850
 6257TIP3   OH240185   4.095   2.179   5.330 -0.1623  0.2398  0.4477
 6257TIP3    H140186   4.151   2.154   5.403 -0.0322 -1.5530 -0.2115
 6257TIP3    H240187   4.144   2.154   5.252 -0.0128  2.7318 -0.3234
 6258TIP3   OH240188   5.397   5.542   5.695  0.4412  0.0794  0.0026
 6258TIP3    H140189   5.385   5.538   5.601  3.5858 -0.7814 -0.4757
 6258TIP3    H240190   5.398   5.636   5.715  0.9110  0.3050 -1.0250
 6259TIP3   OH240191   0.022   2.101   0.511 -0.0905  0.1359 -0.3546
 6259TIP3    H140192   0.081   2.026   0.519 -1.5920 -1.1993 -1.1602
 6259TIP3    H240193   0.001   2.126   0.601  1.0722  0.1464 -0.0742
 6260TIP3   OH240194   0.273   5.416  12.861  0.2580 -0.1975 -0.1393
 6260TIP3    H140195   0.295   5.431  12.769 -0.5167  1.6041 -0.0650
 6260TIP3    H240196   0.281   5.502  12.902  1.0105 -1.0538  1.5845
 6261TIP3   OH240197   6.255   4.033   0.674  0.1249 -0.1077 -0.1436
 6261TIP3    H140198   6.278   3.964   0.612  0.1654 -0.2615  0.0440
 6261TIP3    H240199   6.290   4.003   0.758 -0.8800 -0.4061  0.1755
 6262TIP3   OH240200   5.206   2.349  16.720  0.0070  0.9105 -0.0936
 6262TIP3    H140201   5.226   2.340  16.813  0.8534 -0.7051 -0.3865
 6262TIP3    H240202   5.132   2.409  16.716  0.1891  1.2766  1.5922
 6263TIP3   OH240203   0.902   0.707   1.236  0.4869  0.3654  0.5647
 6263TIP3    H140204   0.835   0.756   1.284 -0.7772 -0.8209  0.0569
 6263TIP3    H240205   0.897   0.618   1.271  2.0085  0.3088  0.7115
 6264TIP3   OH240206   5.346   5.383   2.913 -0.2647  0.2158 -0.8470
 6264TIP3    H140207   5.420   5.323   2.906 -0.1854  0.4096 -1.8132
 6264TIP3    H240208   5.277   5.332   2.956  0.7744  0.3816  1.1271
 6265TIP3   OH240209   2.299   5.693   2.676  0.2764  0.6699 -0.3838
 6265TIP3    H140210   2.277   5.752   2.748 -0.6397 -2.5701  2.2085
 6265TIP3    H240211   2.217   5.683   2.628 -0.4887 -0.8365  1.1157
 6266TIP3   OH240212   0.223   0.630  17.019  0.0607 -0.1857 -0.3838
 6266TIP3    H140213   0.248   0.576  16.945 -0.9513 -0.3761 -0.6046
 6266TIP3    H240214   0.281   0.604  17.090 -0.0730 -1.1864 -0.6380
 6267TIP3   OH240215   0.667   4.152   2.205  0.1782  0.6237  0.1633
 6267TIP3    H140216   0.615   4.220   2.162  0.5061  1.9891  1.8509
 6267TIP3    H240217   0.745   4.197   2.237  0.1032 -0.3822  1.9033
 6268TIP3   OH240218   4.397   0.232   6.285  0.4193  0.0342 -0.2458
 6268TIP3    H140219   4.455   0.272   6.351 -0.3100  0.2565  0.2754
 6268TIP3    H240220   4.337   0.302   6.261  0.2101 -0.2664 -0.5962
 6269TIP3   OH240221   5.337   4.234  15.457  0.0025 -0.2433 -0.6212
 6269TIP3    H140222   5.247   4.199  15.452  0.6456 -2.2540  0.6343
 6269TIP3    H240223   5.358   4.258  15.367 -1.1572 -1.4723 -1.2536
 6270TIP3   OH240224   5.291   3.243  15.585 -0.2177 -0.2956  0.6447
 6270TIP3    H140225   5.244   3.325  15.599  1.5900  0.6982  1.2759
 6270TIP3    H240226   5.323   3.218  15.673  2.0621  0.1580  0.0169
 6271TIP3   OH240227   1.479   5.529  14.054 -0.3759  0.3001  0.5658
 6271TIP3    H140228   1.522   5.487  13.979 -0.0299  0.5019  0.6519
 6271TIP3    H240229   1.479   5.462  14.122  1.4231  0.8669  1.1740
 6272TIP3   OH240230   0.565   0.078   2.734  0.2299 -0.4557 -0.0907
 6272TIP3    H140231   0.592   0.020   2.663 -0.5421  2.0047 -2.5278
 6272TIP3    H240232   0.621   0.052   2.808  1.3580 -2.8503 -1.6517
 6273TIP3   OH240233   1.478   4.330  12.022  0.0826  0.2841 -0.2786
 6273TIP3    H140234   1.392   4.367  12.043  0.2245  0.3433  0.1964
 6273TIP3    H240235   1.520   4.317  12.106  1.1955  1.7703 -0.5791
 6274TIP3   OH240236   2.712   3.937   6.461  0.0525 -1.0510 -0.5286
 6274TIP3    H140237   2.660   3.999   6.512  0.4917  0.5460 -1.9309
 6274TIP3    H240238   2.794   3.928   6.509 -0.2716 -1.0487  0.0220
 6275TIP3   OH240239   0.252   3.463  12.891 -0.1991  0.0181  0.0738
 6275TIP3    H140240   0.275   3.448  12.983 -2.1369  1.9488  0.9632
 6275TIP3    H240241   0.337   3.464  12.845  0.7783 -1.4406  1.7103
 6276TIP3   OH240242   5.074   6.188   1.495 -0.5182  0.5071 -0.1095
 6276TIP3    H140243   5.128   6.136   1.435  0.1898  1.1601 -0.0474
 6276TIP3    H240244   5.008   6.126   1.526  1.6131 -1.0737  1.6929
 6277TIP3   OH240245   6.456   0.974  13.565 -0.2249 -0.2758 -0.5134
 6277TIP3    H140246   6.403   1.030  13.508  1.0927  2.5852  0.8664
 6277TIP3    H240247   6.538   0.962  13.517 -0.4568 -0.9558 -0.7492
 6278TIP3   OH240248   2.493   1.083   5.631 -0.0471  0.2889  0.3567
 6278TIP3    H140249   2.454   0.996   5.624 -0.6236  0.6118 -0.5965
 6278TIP3    H240250   2.435   1.140   5.580  0.7196  1.1029  0.3604
 6279TIP3   OH240251   1.841   4.169   5.561 -0.0906  0.1783 -0.3320
 6279TIP3    H140252   1.875   4.253   5.529  0.7753 -0.1234 -0.1992
 6279TIP3    H240253   1.898   4.103   5.523  0.9609 -0.2076  1.7772
 6280TIP3   OH240254   1.460   3.137   2.943 -0.7202 -0.2811 -0.0343
 6280TIP3    H140255   1.391   3.173   2.887 -2.2759  2.4749  3.2680
 6280TIP3    H240256   1.530   3.202   2.940  0.9887 -2.0630 -1.7357
 6281TIP3   OH240257   1.698   1.940   5.174  0.9892  0.2945  0.1266
 6281TIP3    H140258   1.663   1.859   5.136  0.2079  0.3021  0.7954
 6281TIP3    H240259   1.693   2.004   5.103 -0.3866  0.2921  0.1876
 6282TIP3   OH240260   0.913   3.310  16.802 -0.3249 -0.5100  0.2015
 6282TIP3    H140261   1.007   3.323  16.792 -0.0990 -0.6984  1.8050
 6282TIP3    H240262   0.897   3.323  16.896 -2.0713  0.5848 -0.2002
 6283TIP3   OH240263   0.408   5.415   3.912 -0.4989 -0.5765 -0.4414
 6283TIP3    H140264   0.422   5.432   3.819 -2.0869  2.8866 -0.1999
 6283TIP3    H240265   0.329   5.361   3.915 -0.9928  0.0737 -1.1432
 6284TIP3   OH240266   3.249   1.423  16.206  0.0877  0.0597  0.2671
 6284TIP3    H140267   3.298   1.452  16.129 -0.3042 -0.7329 -0.2940
 6284TIP3    H240268   3.250   1.499  16.265 -0.1321  0.8886 -0.7653
 6285TIP3   OH240269   4.727   4.387  12.985 -0.4479  0.6318  0.4468
 6285TIP3    H140270   4.663   4.393  13.056  0.5560 -0.5542  1.4956
 6285TIP3    H240271   4.727   4.295  12.961  0.8389  0.6159  0.4522
 6286TIP3   OH240272   2.983   5.792   1.356 -0.1063 -0.0963  0.1407
 6286TIP3    H140273   3.053   5.843   1.315  0.1539 -0.2843  0.3486
 6286TIP3    H240274   3.027   5.738   1.421 -0.1308 -1.8206 -1.2052
 6287TIP3   OH240275   2.449   2.132  12.326  0.1935 -0.9438  0.0961
 6287TIP3    H140276   2.529   2.169  12.289  0.1183 -1.3152 -0.4493
 6287TIP3    H240277   2.473   2.042  12.351 -0.0606 -1.0669 -0.0991
 6288TIP3   OH240278   3.396   2.519  16.977 -0.3716 -0.4642  0.5844
 6288TIP3    H140279   3.369   2.584  16.911  2.2172  0.3323  0.1797
 6288TIP3    H240280   3.432   2.572  17.048 -1.0540 -1.4080  1.6603
 6289TIP3   OH240281   2.667   3.102  12.452  0.3146 -0.4513 -0.5026
 6289TIP3    H140282   2.716   3.022  12.468 -1.6079 -1.4883  0.6329
 6289TIP3    H240283   2.634   3.094  12.363  0.7066 -0.5852 -0.6363
 6290TIP3   OH240284   1.699   5.117   5.609 -0.3472 -0.2398  0.2205
 6290TIP3    H140285   1.626   5.126   5.670 -1.0777 -0.0199 -0.6754
 6290TIP3    H240286   1.685   5.032   5.567 -0.0140 -0.2531  0.1336
 6291TIP3   OH240287   3.284   3.924   0.787  0.2292  0.4686 -0.2546
 6291TIP3    H140288   3.297   3.958   0.876 -0.1766  1.1294 -0.4429
 6291TIP3    H240289   3.209   3.865   0.795 -0.0825  0.8657 -0.2455
 6292TIP3   OH240290   2.685   1.459   3.909 -0.1461 -0.4551 -0.3976
 6292TIP3    H140291   2.672   1.513   3.830  2.1081 -0.4735 -0.8433
 6292TIP3    H240292   2.727   1.518   3.971 -0.5095 -0.8654  0.2428
 6293TIP3   OH240293   5.011   4.554  16.714  0.1401 -0.1413  0.1219
 6293TIP3    H140294   5.023   4.540  16.620 -0.7176  0.5980 -0.1088
 6293TIP3    H240295   5.037   4.470  16.754  3.0730  0.3632 -0.5262
 6294TIP3   OH240296   2.138   4.873   4.244  0.3505 -0.2128  0.1190
 6294TIP3    H140297   2.167   4.962   4.224  2.0523 -0.4619  1.2892
 6294TIP3    H240298   2.042   4.879   4.247  0.3775  1.2998 -1.0124
 6295TIP3   OH240299   4.061   6.262  14.940 -0.6944 -0.5148  0.0109
 6295TIP3    H140300   4.085   6.303  15.023  0.3408 -0.4139 -0.3212
 6295TIP3    H240301   3.982   6.211  14.960 -0.4850 -0.4580  1.0336
 6296TIP3   OH240302   5.900   1.746   5.146 -0.6370  0.2589  0.0069
 6296TIP3    H140303   5.858   1.807   5.206  0.3546  1.3756 -0.3780
 6296TIP3    H240304   5.994   1.761   5.159 -0.3926  0.8316 -2.0785
 6297TIP3   OH240305   6.187   0.576  16.857  0.3855  0.1519 -0.0772
 6297TIP3    H140306   6.239   0.532  16.924 -0.7366  1.5466  1.7960
 6297TIP3    H240307   6.214   0.534  16.775 -0.4172 -3.9123  1.4696
 6298TIP3   OH240308   0.765   6.273   6.361  0.0779  0.4285  0.1768
 6298TIP3    H140309   0.810   6.294   6.443 -0.2216 -1.3969  0.8437
 6298TIP3    H240310   0.676   6.306   6.373  0.0539  0.2231  0.5677
 6299TIP3   OH240311   0.321   2.219   0.301  0.4840  0.0987  0.4865
 6299TIP3    H140312   0.234   2.259   0.303  0.2902 -0.3210  0.4275
 6299TIP3    H240313   0.377   2.282   0.347  0.5806  1.3669 -1.2569
 6300TIP3   OH240314   2.703   2.601   4.218 -0.6864 -0.3195  0.5606
 6300TIP3    H140315   2.717   2.631   4.128 -0.3041  0.6140  0.9232
 6300TIP3    H240316   2.771   2.535   4.232 -0.9438 -0.6988  0.0666
 6301TIP3   OH240317   4.935   6.637   2.658 -0.1501 -0.5810 -0.0254
 6301TIP3    H140318   5.011   6.695   2.660 -0.8727  0.7302 -3.5175
 6301TIP3    H240319   4.972   6.549   2.670  1.3927  0.2704  1.9611
 6302TIP3   OH240320   5.751   2.779  11.035  0.7573 -0.1804 -0.2130
 6302TIP3    H140321   5.735   2.713  11.102 -0.8831  1.5668  1.2427
 6302TIP3    H240322   5.819   2.835  11.072  1.1737 -0.2688 -0.8367
 6303TIP3   OH240323   6.647   5.639   0.143  0.2465 -0.3853  0.0143
 6303TIP3    H140324   6.636   5.643   0.238  0.2372 -1.1783  0.0539
 6303TIP3    H240325   6.705   5.713   0.123 -0.9598  0.7133  0.4332
 6304TIP3   OH240326   5.065   3.668  11.777  0.2993 -0.8818 -0.2915
 6304TIP3    H140327   5.128   3.738  11.796 -0.5851 -0.3121  0.6661
 6304TIP3    H240328   5.085   3.600  11.840 -1.0378 -0.0288  1.1146
 6305TIP3   OH240329   6.311   5.480   4.565 -0.7918  0.1426 -0.2942
 6305TIP3    H140330   6.403   5.475   4.537 -0.1802  3.6149  0.6124
 6305TIP3    H240331   6.261   5.488   4.484 -0.1307 -0.1343 -0.7368
 6306TIP3   OH240332   5.123   3.505   4.705 -0.3955 -0.3992 -0.5018
 6306TIP3    H140333   5.149   3.477   4.617 -0.4754  1.2904 -1.0879
 6306TIP3    H240334   5.035   3.468   4.716  0.7171 -3.1426  0.1014
 6307TIP3   OH240335   1.475   1.399  12.429  0.5539 -0.7568  0.3598
 6307TIP3    H140336   1.493   1.471  12.369 -1.4200 -0.8111 -0.3775
 6307TIP3    H240337   1.504   1.431  12.514 -1.4383  1.4916  0.2983
 6308TIP3   OH240338   4.932   1.929  11.513 -0.1934  0.7141  0.7502
 6308TIP3    H140339   4.873   1.928  11.589 -0.2208  1.1359  0.7344
 6308TIP3    H240340   4.945   2.021  11.493 -0.0592  0.6091  0.3351
 6309TIP3   OH240341   4.304   3.569   4.539  0.3630  0.0681  0.3087
 6309TIP3    H140342   4.319   3.650   4.587 -0.2829  0.7380 -0.5909
 6309TIP3    H240343   4.218   3.539   4.567  0.6226 -0.3474  0.6806
 6310TIP3   OH240344   6.816   1.927   4.223 -0.4687  0.4897  0.0273
 6310TIP3    H140345   6.726   1.957   4.230 -1.1360 -1.3593  0.0482
 6310TIP3    H240346   6.819   1.877   4.142  0.9654  1.7667 -0.7634
 6311TIP3   OH240347   4.181   1.934  11.481 -0.2722  0.2166 -0.0025
 6311TIP3    H140348   4.101   1.953  11.433 -0.8076 -0.9082  0.3888
 6311TIP3    H240349   4.195   2.010  11.538 -0.4152  0.9225 -0.9011
 6312TIP3   OH240350   2.178   4.022   5.593 -0.5674 -0.0161 -0.0447
 6312TIP3    H140351   2.267   4.003   5.565 -0.2621  2.1156 -0.7246
 6312TIP3    H240352   2.123   3.989   5.522 -0.2839 -0.7955  0.0936
 6313TIP3   OH240353   1.039   2.367   3.732  0.7129 -0.4814 -0.7217
 6313TIP3    H140354   1.127   2.380   3.697  1.8636 -0.9086  1.7786
 6313TIP3    H240355   1.052   2.358   3.826 -2.1120  0.2550 -0.1675
 6314TIP3   OH240356   4.652   0.388  16.436  0.1114  0.9506 -0.1962
 6314TIP3    H140357   4.643   0.336  16.356  1.2780  1.5665 -0.7726
 6314TIP3    H240358   4.570   0.436  16.444  0.3946  1.7460 -1.6942
 6315TIP3   OH240359   6.235   0.802   1.756  0.0105  0.4025  0.1734
 6315TIP3    H140360   6.309   0.806   1.696 -0.5850 -1.0206 -0.7023
 6315TIP3    H240361   6.272   0.768   1.837  0.2484 -0.7032 -0.3910
 6316TIP3   OH240362   1.499   1.754  11.043  0.2467  0.5129  0.2527
 6316TIP3    H140363   1.485   1.705  10.962 -2.9214  1.3428  0.1704
 6316TIP3    H240364   1.424   1.732  11.098  0.9941  1.9668  1.9629
 6317TIP3   OH240365   1.439   5.291   0.967  0.0010 -0.0406 -0.3592
 6317TIP3    H140366   1.444   5.349   1.043  1.3268  0.6095 -0.8946
 6317TIP3    H240367   1.518   5.237   0.973 -0.5694 -0.8977 -0.5629
 6318TIP3   OH240368   5.531   3.129  16.311 -0.2474 -0.7947  0.0119
 6318TIP3    H140369   5.488   3.199  16.360  0.4545  0.2032 -0.7584
 6318TIP3    H240370   5.553   3.063  16.377  1.1463  0.7468  1.1527
 6319TIP3   OH240371   6.023   6.814   4.248 -0.0167  0.4062 -0.3207
 6319TIP3    H140372   6.075   6.745   4.289  0.3440  0.0047 -1.4285
 6319TIP3    H240373   5.954   6.833   4.312 -0.6833 -1.6478 -0.3736
 6320TIP3   OH240374   0.773   4.836  14.600  0.6524  0.5693 -0.0391
 6320TIP3    H140375   0.836   4.817  14.669 -0.2066  0.2168  0.6542
 6320TIP3    H240376   0.693   4.791  14.626 -0.3094  2.0859 -0.2209
 6321TIP3   OH240377   0.426   2.943  15.136  0.1738  0.2815 -0.1746
 6321TIP3    H140378   0.468   3.029  15.141 -0.4610  0.7079 -1.4888
 6321TIP3    H240379   0.351   2.957  15.077  0.6735 -1.3945 -1.2887
 6322TIP3   OH240380   2.596   6.716   3.993  0.5378 -0.0293  0.1042
 6322TIP3    H140381   2.691   6.730   3.988  0.9375 -1.1971  2.9365
 6322TIP3    H240382   2.587   6.624   4.015 -1.4120 -0.4666 -2.0989
 6323TIP3   OH240383   3.694   2.947   6.767  0.2053  0.4281  0.3954
 6323TIP3    H140384   3.772   2.893   6.783  0.8090  1.3786  0.7344
 6323TIP3    H240385   3.620   2.888   6.784  0.8388 -0.4847  0.0812
 6324TIP3   OH240386   3.545   3.705   1.045 -0.2321  0.1115 -0.3030
 6324TIP3    H140387   3.561   3.746   0.960  0.7267  0.3106 -0.0398
 6324TIP3    H240388   3.546   3.778   1.107 -0.2365 -0.1131 -0.0364
 6325TIP3   OH240389   6.384   6.077   0.123 -0.7336  0.3513  0.4727
 6325TIP3    H140390   6.371   6.060   0.030 -1.2494 -0.1907  0.6420
 6325TIP3    H240391   6.296   6.090   0.158 -0.6869 -1.0036  1.1790
 6326TIP3   OH240392   5.525   4.368   3.598 -0.1618  0.6354 -0.0713
 6326TIP3    H140393   5.520   4.279   3.562  0.8038  0.0309  1.2030
 6326TIP3    H240394   5.509   4.356   3.692 -0.3162  1.8561  0.0728
 6327TIP3   OH240395   6.050   6.733  16.870 -0.2824 -0.4726 -0.5013
 6327TIP3    H140396   6.111   6.662  16.851 -0.3194 -0.7505  0.3863
 6327TIP3    H240397   6.010   6.754  16.785  1.5049  0.1720 -1.2301
 6328TIP3   OH240398   4.460   4.787  15.560 -0.0634  0.0787  0.2769
 6328TIP3    H140399   4.466   4.795  15.655  0.9626  0.1269  0.2211
 6328TIP3    H240400   4.377   4.827  15.537  0.2965  1.2860  1.0202
 6329TIP3   OH240401   5.781   6.610  12.286 -0.1582 -0.3497 -0.2855
 6329TIP3    H140402   5.716   6.617  12.216 -0.7817  0.1243  0.3217
 6329TIP3    H240403   5.815   6.521  12.279  0.8891  0.1338 -2.1219
 6330TIP3   OH240404   1.403   6.532  13.357 -0.2444  0.2014 -0.0753
 6330TIP3    H140405   1.393   6.614  13.309 -0.0772  0.0935 -0.2930
 6330TIP3    H240406   1.314   6.497  13.364 -0.3369  0.4785  0.1569
 6331TIP3   OH240407   5.607   1.582  11.875 -1.1207 -0.3585  0.3402
 6331TIP3    H140408   5.683   1.632  11.905 -1.4182 -0.3951  1.1950
 6331TIP3    H240409   5.630   1.552  11.787 -0.7984  0.9823 -0.0482
 6332TIP3   OH240410   5.365   1.343   1.231 -0.3190  0.3233  0.8640
 6332TIP3    H140411   5.381   1.419   1.287 -0.7778 -0.2142  1.7590
 6332TIP3    H240412   5.449   1.328   1.187  0.1051  0.6674  1.5314
 6333TIP3   OH240413   6.279   1.148   5.479  0.3607 -0.4758  0.2764
 6333TIP3    H140414   6.281   1.178   5.570  0.8786  0.6411 -0.0924
 6333TIP3    H240415   6.303   1.224   5.428 -3.0938 -0.1155 -1.0926
 6334TIP3   OH240416   6.156   3.735  14.934  0.4013  0.1685  0.3123
 6334TIP3    H140417   6.101   3.774  15.003 -0.5508  0.8676 -0.8040
 6334TIP3    H240418   6.096   3.680  14.884  1.0178 -0.0905 -0.1463
 6335TIP3   OH240419   5.437   3.997  11.297  0.0052 -0.1860  0.0029
 6335TIP3    H140420   5.436   3.980  11.202 -0.7576  0.4493 -0.1116
 6335TIP3    H240421   5.529   3.987  11.321 -0.1386 -2.9132 -0.2935
 6336TIP3   OH240422   5.669   0.382   6.273 -0.3797 -0.0154  0.1156
 6336TIP3    H140423   5.718   0.453   6.232 -1.5592  1.1338  0.6101
 6336TIP3    H240424   5.720   0.303   6.254  0.7698  0.9037 -0.7742
 6337TIP3   OH240425   0.184   0.111  13.737  0.1149 -0.1290  0.0940
 6337TIP3    H140426   0.140   0.181  13.688  0.6700  1.6321  1.9938
 6337TIP3    H240427   0.232   0.061  13.670 -2.8376 -0.7545 -1.7551
 6338TIP3   OH240428   4.649   6.076  12.200 -0.1510  0.0033  0.2857
 6338TIP3    H140429   4.613   5.999  12.156 -1.1057  0.5775  0.0212
 6338TIP3    H240430   4.601   6.080  12.283 -1.4187  1.2840 -0.4506
 6339TIP3   OH240431   0.345   5.693  11.953  0.3390 -0.3165  0.4668
 6339TIP3    H140432   0.297   5.618  11.915  0.4191  0.3045 -0.9157
 6339TIP3    H240433   0.430   5.691  11.911  1.6101 -1.3767  2.8785
 6340TIP3   OH240434   4.372   6.390   5.622 -0.1594 -0.0721 -0.5427
 6340TIP3    H140435   4.289   6.342   5.629 -0.2193 -0.0406 -1.0249
 6340TIP3    H240436   4.380   6.435   5.706 -0.1488 -0.8467 -0.1192
 6341TIP3   OH240437   0.332   3.634   4.736 -0.4612  0.1891  0.1977
 6341TIP3    H140438   0.375   3.582   4.804  1.7851 -0.6234 -1.7020
 6341TIP3    H240439   0.297   3.710   4.782  0.8565 -0.3724  2.2639
 6342TIP3   OH240440   1.119   3.387  15.203 -0.1915  0.2929 -0.1082
 6342TIP3    H140441   1.083   3.476  15.199  1.0221  0.8526  0.8197
 6342TIP3    H240442   1.086   3.352  15.286 -1.4700 -0.5027 -0.9318
 6343TIP3   OH240443   6.625   1.929   6.373 -0.1352 -0.1202 -0.0444
 6343TIP3    H140444   6.711   1.967   6.353 -0.3982  0.8208  0.5456
 6343TIP3    H240445   6.565   2.004   6.371 -0.5479 -0.3519  1.9132
 6344TIP3   OH240446   3.063   4.080  13.077 -0.8611 -0.0694  0.3232
 6344TIP3    H140447   3.061   4.003  13.134  1.2419 -1.8110 -1.7895
 6344TIP3    H240448   2.977   4.080  13.035 -0.1633 -2.6951 -1.3133
 6345TIP3   OH240449   0.871   3.834  12.993  0.0276  0.2094  0.0649
 6345TIP3    H140450   0.921   3.908  13.029 -0.2903  0.4775 -0.0359
 6345TIP3    H240451   0.865   3.853  12.899 -2.0234  1.2627  0.3540
 6346TIP3   OH240452   1.423   4.476  16.615 -0.2444  0.1322 -0.0336
 6346TIP3    H140453   1.354   4.415  16.590 -0.4979  0.2938  0.2550
 6346TIP3    H240454   1.504   4.425  16.613  0.2251  0.7486 -3.8877
 6347TIP3   OH240455   0.382   4.606  13.142  0.2204  0.3162 -0.5536
 6347TIP3    H140456   0.292   4.606  13.108 -0.2065 -1.5046  0.4677
 6347TIP3    H240457   0.433   4.560  13.074 -0.3003 -1.7162  0.3647
 6348TIP3   OH240458   3.301   6.327  14.894  0.2095  0.2512 -0.0429
 6348TIP3    H140459   3.326   6.387  14.824 -1.8912  0.4982 -0.6600
 6348TIP3    H240460   3.270   6.385  14.965 -0.8862 -0.0371 -0.2625
 6349TIP3   OH240461   4.029   1.515  15.336  0.0872  0.5167  0.4034
 6349TIP3    H140462   3.985   1.471  15.263 -0.6871  1.1237  0.4868
 6349TIP3    H240463   4.122   1.499  15.321 -0.0757  0.4035 -0.5654
 6350TIP3   OH240464   6.376   4.275   1.247 -0.2474  0.0152 -0.0634
 6350TIP3    H140465   6.315   4.206   1.274  0.2217 -0.2714  0.2866
 6350TIP3    H240466   6.333   4.317   1.173 -1.0002  0.0012  0.3497
 6351TIP3   OH240467   1.621   5.035   1.397 -0.0872  0.0712  0.2654
 6351TIP3    H140468   1.603   5.052   1.305  0.5514  0.6964  0.2457
 6351TIP3    H240469   1.545   4.986   1.428  0.9676 -2.8702 -1.3298
 6352TIP3   OH240470   4.243   0.301   0.125 -0.1878 -0.0670 -0.4328
 6352TIP3    H140471   4.327   0.262   0.147  0.6780  0.6601 -2.2931
 6352TIP3    H240472   4.235   0.376   0.184  1.6671  1.3159 -1.8316
 6353TIP3   OH240473   5.782   2.051   4.574  0.4889 -0.1837 -0.0902
 6353TIP3    H140474   5.769   2.003   4.492 -0.1880 -1.6603  0.8597
 6353TIP3    H240475   5.694   2.066   4.608  0.6070  2.4422 -0.6968
 6354TIP3   OH240476   2.345   5.622  14.274 -0.2842  0.2115 -0.4097
 6354TIP3    H140477   2.401   5.562  14.224  1.0511  0.8266  0.2926
 6354TIP3    H240478   2.305   5.678  14.207  1.0232  0.6447 -0.8607
 6355TIP3   OH240479   5.435   1.278  14.651 -0.0534  0.8685 -0.2474
 6355TIP3    H140480   5.491   1.342  14.694  0.7544  0.0122  0.0078
 6355TIP3    H240481   5.350   1.287  14.696  0.3609  1.0070  0.5346
 6356TIP3   OH240482   2.776   6.632  11.167  0.0769 -0.5387  0.0655
 6356TIP3    H140483   2.721   6.642  11.089  1.9112  2.0570 -1.0239
 6356TIP3    H240484   2.860   6.669  11.142  0.7296  0.4367  3.2922
 6357TIP3   OH240485   0.571   0.941   5.375  0.2831 -0.7181  0.1787
 6357TIP3    H140486   0.520   0.967   5.452  0.2031 -1.4508  0.3770
 6357TIP3    H240487   0.605   1.023   5.340 -0.5194 -0.2812  0.4058
 6358TIP3   OH240488   3.722   4.334   4.808 -0.4640  0.5828  0.3843
 6358TIP3    H140489   3.637   4.300   4.780  0.4582 -0.5513 -1.2221
 6358TIP3    H240490   3.701   4.398   4.875 -2.4414 -1.4709  1.8756
 6359TIP3   OH240491   5.439   4.618   3.077  0.3533 -0.4914 -0.0215
 6359TIP3    H140492   5.411   4.673   3.003  0.3638 -0.9433 -0.3673
 6359TIP3    H240493   5.500   4.673   3.126 -0.0375 -0.0097 -0.0670
 6360TIP3   OH240494   6.581   1.360   6.343  0.2363  0.3091 -1.0431
 6360TIP3    H140495   6.507   1.300   6.332  0.6799 -0.9884  2.1820
 6360TIP3    H240496   6.658   1.307   6.322  0.4811  0.5591 -0.7787
 6361TIP3   OH240497   5.500   6.714  14.949  0.0583 -0.0986  0.1602
 6361TIP3    H140498   5.522   6.798  14.990  1.6272 -0.1370 -0.5580
 6361TIP3    H240499   5.405   6.720  14.934  0.1528  1.6127 -0.0126
 6362TIP3   OH240500   5.173   6.605   6.068  0.0927 -0.0686 -0.1060
 6362TIP3    H140501   5.264   6.608   6.099  0.1041 -1.5132  0.0762
 6362TIP3    H240502   5.181   6.595   5.973  0.2367 -3.1964  0.1494
 6363TIP3   OH240503   2.111   5.698   2.444  0.1572 -0.2983  0.8693
 6363TIP3    H140504   2.154   5.781   2.420 -0.4505 -0.2211  0.0218
 6363TIP3    H240505   2.154   5.633   2.388 -0.6678 -0.2495  0.1524
 6364TIP3   OH240506   1.364   5.272   0.521  0.0621 -0.7078  0.1696
 6364TIP3    H140507   1.447   5.302   0.556 -0.0258  1.7595 -1.4389
 6364TIP3    H240508   1.322   5.226   0.593  1.4220  0.8973  2.0899
 6365TIP3   OH240509   5.252   0.131  16.994  0.4222 -0.0793 -0.1660
 6365TIP3    H140510   5.252   0.064  16.925 -0.7841 -0.2954  0.0178
 6365TIP3    H240511   5.326   0.108  17.049 -0.6161 -1.9920  0.5296
 6366TIP3   OH240512   6.746   5.110   5.424 -0.1378  0.4532 -0.0975
 6366TIP3    H140513   6.821   5.129   5.480 -1.3726  1.4495  1.2901
 6366TIP3    H240514   6.732   5.016   5.433  1.2638  0.1521 -0.8245
 6367TIP3   OH240515   3.512   5.199   2.794 -0.3600 -0.2086  0.1426
 6367TIP3    H140516   3.536   5.259   2.864 -0.0693  0.8426 -0.8159
 6367TIP3    H240517   3.424   5.170   2.815 -0.5297  0.6151  0.6006
 6368TIP3   OH240518   5.753   3.457   5.260  0.2933  0.2856 -0.4298
 6368TIP3    H140519   5.682   3.457   5.196 -1.1038  1.5151  1.0149
 6368TIP3    H240520   5.814   3.524   5.229  0.2684 -0.0210 -1.1365
 6369TIP3   OH240521   2.920   0.643  14.390 -0.4309  0.3745 -0.2075
 6369TIP3    H140522   2.939   0.549  14.391  0.0337  0.4286 -1.6263
 6369TIP3    H240523   2.935   0.671  14.481 -1.0785 -0.9981  0.3610
 6370TIP3   OH240524   5.161   1.372   1.071  0.4895  0.3654  0.5460
 6370TIP3    H140525   5.155   1.462   1.037 -0.6588  1.0181  2.3220
 6370TIP3    H240526   5.239   1.373   1.126  1.0680 -0.0514 -0.2423
 6371TIP3   OH240527   6.733   6.814  13.745  0.3723  0.0135 -0.1287
 6371TIP3    H140528   6.817   6.859  13.751  0.3583 -0.1374  1.6275
 6371TIP3    H240529   6.676   6.876  13.700  0.8761  0.9799  0.5252
 6372TIP3   OH240530   4.975   2.353  11.240 -0.0800  0.1438  0.1410
 6372TIP3    H140531   4.973   2.392  11.152 -0.7912 -0.3082 -0.0505
 6372TIP3    H240532   4.915   2.407  11.292 -1.5740 -1.0370 -0.2880
 6373TIP3   OH240533   3.896   6.159  13.019  0.7584 -0.0439  0.7383
 6373TIP3    H140534   3.835   6.096  13.060 -2.4082  3.4728  2.0181
 6373TIP3    H240535   3.965   6.171  13.084 -0.1631 -0.1034  1.7575
 6374TIP3   OH240536   2.091   5.022   1.640 -0.0869  0.0168  0.2937
 6374TIP3    H140537   2.034   4.988   1.571 -1.7694  0.6146  1.3299
 6374TIP3    H240538   2.099   4.950   1.702  1.7151 -0.6446 -0.6281
 6375TIP3   OH240539   1.426   5.064  12.064 -0.4495  0.5183 -0.2319
 6375TIP3    H140540   1.372   5.007  12.008 -2.0506  2.3976 -0.7363
 6375TIP3    H240541   1.512   5.065  12.022 -0.9560  0.0301 -1.3214
 6376TIP3   OH240542   3.175   0.552  12.851 -0.4443 -0.3680 -0.0857
 6376TIP3    H140543   3.142   0.526  12.937 -0.7769  0.0596 -0.0747
 6376TIP3    H240544   3.269   0.539  12.856 -0.4936 -0.6133  0.2492
 6377TIP3   OH240545   3.284   6.792   3.748 -0.1322  0.3327  0.1683
 6377TIP3    H140546   3.222   6.754   3.686  0.2845  0.4236 -0.3198
 6377TIP3    H240547   3.331   6.717   3.785  0.5734  0.3412 -0.6683
 6378TIP3   OH240548   2.525   4.212  16.911 -0.2706 -0.1876  0.0215
 6378TIP3    H140549   2.577   4.147  16.863 -0.8459 -1.0593  0.5316
 6378TIP3    H240550   2.510   4.282  16.848  1.7535  0.2487 -0.0546
 6379TIP3   OH240551   5.087   4.996   1.767  0.0489 -0.4964 -0.0031
 6379TIP3    H140552   5.048   5.082   1.781 -1.4294 -0.7992 -1.9407
 6379TIP3    H240553   5.090   4.985   1.672 -1.0535 -3.0933  0.1615
 6380TIP3   OH240554   1.752   1.994  13.930 -0.1235 -0.5441 -0.1086
 6380TIP3    H140555   1.669   2.035  13.955  0.8927  0.9742  0.9442
 6380TIP3    H240556   1.730   1.902  13.917 -2.0471 -0.1070 -0.2337
 6381TIP3   OH240557   2.692   4.673   6.353 -0.1526 -0.1016  0.3646
 6381TIP3    H140558   2.614   4.638   6.396  0.1220 -1.3868 -0.1324
 6381TIP3    H240559   2.695   4.765   6.380 -1.2635 -0.2889  1.2099
 6382TIP3   OH240560   3.946   3.133  15.673 -0.0948  0.1159 -0.0079
 6382TIP3    H140561   4.032   3.127  15.716 -0.6914  0.7617  1.3284
 6382TIP3    H240562   3.883   3.129  15.745 -1.2322 -0.9869 -1.0203
 6383TIP3   OH240563   3.320   0.876  12.160 -0.5534  0.0490  0.6990
 6383TIP3    H140564   3.294   0.784  12.156  2.8229 -1.2067  3.1337
 6383TIP3    H240565   3.344   0.898  12.070 -1.7665 -1.2686  0.0109
 6384TIP3   OH240566   4.304   4.797  16.200 -0.2824 -0.3472  0.3273
 6384TIP3    H140567   4.209   4.791  16.186 -0.3127 -0.4183  0.5634
 6384TIP3    H240568   4.336   4.708  16.182 -0.0111  0.0828 -1.5805
 6385TIP3   OH240569   6.603   3.653  16.607 -0.0111  0.3749 -0.3561
 6385TIP3    H140570   6.644   3.739  16.597 -2.0189  1.7628  2.1186
 6385TIP3    H240571   6.587   3.645  16.702 -3.3937 -0.9684 -0.9029
 6386TIP3   OH240572   2.192   3.119   3.569 -0.3430 -0.1215 -0.5192
 6386TIP3    H140573   2.151   3.170   3.499 -1.2003 -0.4304 -0.2525
 6386TIP3    H240574   2.121   3.066   3.605  0.1486 -0.1798  0.3973
 6387TIP3   OH240575   4.280   5.194   3.863  0.2846 -0.0674 -0.5061
 6387TIP3    H140576   4.347   5.183   3.929  1.4944 -0.4041 -1.7532
 6387TIP3    H240577   4.313   5.264   3.806 -0.3813 -0.2754 -1.1697
 6388TIP3   OH240578   5.422   2.564   0.987 -0.3789  0.1671 -0.4737
 6388TIP3    H140579   5.423   2.508   1.064 -0.0651  0.0123 -0.5842
 6388TIP3    H240580   5.336   2.550   0.948 -0.1166 -0.6594 -0.7925
 6389TIP3   OH240581   4.638   6.306   2.135 -0.0873 -0.1155  0.3418
 6389TIP3    H140582   4.667   6.307   2.226 -0.6607 -0.9222  0.5465
 6389TIP3    H240583   4.707   6.353   2.087 -0.1039  0.8941  1.2726
 6390TIP3   OH240584   5.241   5.834   2.590 -0.3818  0.3670  0.2336
 6390TIP3    H140585   5.308   5.819   2.522  0.0342  0.3298  0.6436
 6390TIP3    H240586   5.240   5.752   2.640  2.2380  1.7162  2.7981
 6391TIP3   OH240587   5.636   3.939  13.073  0.5108 -0.4460 -0.4026
 6391TIP3    H140588   5.691   3.866  13.102 -1.9747 -1.2716  2.8582
 6391TIP3    H240589   5.569   3.897  13.018  1.4848  0.1277 -2.0865
 6392TIP3   OH240590   3.716   1.174   4.439 -0.2342 -0.0874 -0.2569
 6392TIP3    H140591   3.744   1.129   4.359 -1.0758  1.0883 -1.2593
 6392TIP3    H240592   3.662   1.109   4.485  0.1824 -0.7502 -0.6917
 6393TIP3   OH240593   5.086   5.912   5.686  0.3487 -0.3720  0.0133
 6393TIP3    H140594   5.166   5.965   5.682 -0.2305  0.4930 -0.4494
 6393TIP3    H240595   5.088   5.873   5.774  0.4345  1.0049  0.6523
 6394TIP3   OH240596   5.432   1.737  14.130  0.1894 -0.1462  0.2669
 6394TIP3    H140597   5.352   1.787  14.144  0.9663  0.6051  2.4745
 6394TIP3    H240598   5.471   1.729  14.217  2.9481  0.2945 -0.8164
 6395TIP3   OH240599   0.093   2.093  15.207 -0.4113 -0.8075 -0.3689
 6395TIP3    H140600   0.162   2.158  15.218 -0.0361 -1.1383 -0.7867
 6395TIP3    H240601   0.091   2.047  15.291 -0.6614 -0.2819 -0.0787
 6396TIP3   OH240602   5.194   6.746  13.894 -0.3613 -0.1549  0.2904
 6396TIP3    H140603   5.099   6.757  13.894 -0.3116  0.7823  2.4058
 6396TIP3    H240604   5.206   6.653  13.916 -0.7336 -0.7939 -1.9355
 6397TIP3   OH240605   4.530   2.537   1.290  0.0804 -0.1061  0.0007
 6397TIP3    H140606   4.577   2.517   1.371 -0.6990  0.1319  0.5219
 6397TIP3    H240607   4.589   2.507   1.220  0.9670  0.1171  0.6345
 6398TIP3   OH240608   0.942   2.742  14.257 -0.1872  0.2534 -0.6087
 6398TIP3    H140609   0.899   2.661  14.230  0.1185 -0.4235  0.8197
 6398TIP3    H240610   1.027   2.740  14.212  0.9426 -1.5914  1.3959
 6399TIP3   OH240611   5.524   6.132   0.081 -0.6722  0.6052 -0.2560
 6399TIP3    H140612   5.605   6.181   0.069 -0.3911  0.2137 -0.0001
 6399TIP3    H240613   5.509   6.134   0.176 -1.8799  2.1202 -0.4426
 6400TIP3   OH240614   3.885   3.880   1.960  0.5802  0.1551 -0.1054
 6400TIP3    H140615   3.795   3.897   1.988  1.3275  0.9447  1.9836
 6400TIP3    H240616   3.921   3.967   1.940  1.3397  0.0156  0.5978
 6401TIP3   OH240617   0.636   2.523  11.570 -0.0767 -0.9045  0.6152
 6401TIP3    H140618   0.576   2.558  11.635  1.2026  0.5580  1.0889
 6401TIP3    H240619   0.722   2.523  11.613  0.7955  0.0327 -0.9777
 6402TIP3   OH240620   3.616   1.849   0.853 -0.1759  0.0055 -0.3898
 6402TIP3    H140621   3.575   1.795   0.921 -3.3672  0.4741 -1.7644
 6402TIP3    H240622   3.616   1.938   0.889 -0.1883 -0.0332 -0.2950
 6403TIP3   OH240623   3.087   2.676  11.614 -0.0518 -0.0760  0.2798
 6403TIP3    H140624   3.118   2.590  11.584 -1.8728 -0.4242 -0.7375
 6403TIP3    H240625   3.073   2.665  11.708 -0.9402 -1.1318  0.0399
 6404TIP3   OH240626   0.480   4.144  12.842 -0.6490 -0.1629 -0.1765
 6404TIP3    H140627   0.548   4.146  12.910 -0.7005 -0.5401 -0.1114
 6404TIP3    H240628   0.400   4.120  12.888 -0.5733 -0.9998 -0.4564
 6405TIP3   OH240629   4.612   4.937  11.107  0.4674 -0.4021  0.3123
 6405TIP3    H140630   4.664   4.893  11.039  0.4639 -0.1949  0.1763
 6405TIP3    H240631   4.677   4.984  11.160  0.2676  1.5965 -1.0977
 6406TIP3   OH240632   4.757   1.510   3.208  0.1640 -0.5032  0.5649
 6406TIP3    H140633   4.667   1.511   3.176 -0.5744 -2.1054  2.4167
 6406TIP3    H240634   4.811   1.519   3.129 -1.5895 -0.1085 -0.6346
 6407TIP3   OH240635   3.069   5.700  16.734  0.0036 -0.1225 -0.2549
 6407TIP3    H140636   3.145   5.742  16.775 -0.4835  0.3037  0.2235
 6407TIP3    H240637   3.030   5.648  16.804  0.5894 -1.3734 -0.8384
 6408TIP3   OH240638   3.496   1.304  12.978  0.4867 -0.3393 -0.0133
 6408TIP3    H140639   3.420   1.299  13.035  0.3884  1.2978  0.0367
 6408TIP3    H240640   3.516   1.397  12.972  2.8330 -0.7480  0.4206
 6409TIP3   OH240641   2.292   0.977   1.907 -0.7101 -0.4714 -0.8356
 6409TIP3    H140642   2.253   1.023   1.833 -2.9610  1.8995  1.6034
 6409TIP3    H240643   2.228   0.986   1.978  1.4719 -2.2216  1.5830
 6410TIP3   OH240644   2.283   3.951   0.121  0.2065 -0.0114 -0.2106
 6410TIP3    H140645   2.375   3.924   0.123  0.3677  0.5947  1.4676
 6410TIP3    H240646   2.234   3.872   0.143  0.2938 -0.3482 -1.1570
 6411TIP3   OH240647   3.012   1.136   1.894 -0.0386  0.3101  0.0404
 6411TIP3    H140648   2.971   1.127   1.980 -0.0056 -1.4708 -0.1107
 6411TIP3    H240649   2.986   1.223   1.864 -0.9683  0.5079  1.3673
 6412TIP3   OH240650   0.863   2.082  16.317  0.8570  0.6407  0.0165
 6412TIP3    H140651   0.877   2.104  16.409  0.8953 -0.3836  0.2716
 6412TIP3    H240652   0.822   1.995  16.319  2.3158 -0.1247 -0.9430
 6413TIP3   OH240653   6.584   0.072   4.760 -0.5097 -0.3164 -0.1419
 6413TIP3    H140654   6.497   0.037   4.780 -0.8334  1.2964  1.4607
 6413TIP3    H240655   6.629   0.075   4.844  0.6414  0.1177 -0.7433
 6414TIP3   OH240656   6.618   0.342   5.245  0.0749 -0.1739 -0.1044
 6414TIP3    H140657   6.541   0.289   5.222 -0.5940  0.5593  0.3647
 6414TIP3    H240658   6.680   0.327   5.174  0.1425 -2.0445  0.3167
 6415TIP3   OH240659   4.763   5.244  14.767 -0.1901  0.0883  0.3850
 6415TIP3    H140660   4.668   5.247  14.778 -0.1533  0.2923  0.6710
 6415TIP3    H240661   4.783   5.312  14.703 -0.3746 -0.8785 -0.7302
 6416TIP3   OH240662   4.977   4.525  14.813  0.7592 -0.1643 -0.2161
 6416TIP3    H140663   4.918   4.580  14.762  1.8331  1.2852  0.0474
 6416TIP3    H240664   4.975   4.562  14.901 -0.8800 -2.4773  0.8464
 6417TIP3   OH240665   4.683   4.945   3.239 -0.3211 -0.5601  0.4101
 6417TIP3    H140666   4.679   4.879   3.170 -1.3595  2.3638 -2.5380
 6417TIP3    H240667   4.592   4.957   3.266  0.0425 -1.4525  2.1725
 6418TIP3   OH240668   4.545   5.359  16.446 -0.2725  0.3636 -0.6321
 6418TIP3    H140669   4.502   5.327  16.525  0.3433 -0.1609 -0.5032
 6418TIP3    H240670   4.619   5.410  16.477  1.2922 -1.6429 -0.8273
 6419TIP3   OH240671   6.161   5.951   1.794  0.5355 -0.0737  0.3856
 6419TIP3    H140672   6.256   5.962   1.796  0.6593  0.2867 -2.7766
 6419TIP3    H240673   6.147   5.857   1.811  1.3037  0.0834  2.0993
 6420TIP3   OH240674   0.602   0.273   1.191 -0.6055 -0.5146 -0.4252
 6420TIP3    H140675   0.664   0.206   1.161  0.4407  0.3385 -0.2383
 6420TIP3    H240676   0.588   0.253   1.283 -0.4984 -0.6337 -0.4345
 6421TIP3   OH240677   0.573   5.718   1.907  0.2352  0.3003 -0.4307
 6421TIP3    H140678   0.559   5.656   1.835 -3.0141 -0.9147  0.9902
 6421TIP3    H240679   0.494   5.772   1.907  1.5035  2.2619  0.4619
 6422TIP3   OH240680   6.701   3.932   2.250 -0.1749  0.0670  0.1976
 6422TIP3    H140681   6.699   4.023   2.280 -0.0202 -0.3131  1.4227
 6422TIP3    H240682   6.771   3.891   2.301 -1.9177 -1.3442  1.6056
 6423TIP3   OH240683   5.313   0.063  15.564  0.4795 -0.5515  0.0990
 6423TIP3    H140684   5.328   0.146  15.518 -0.4184 -0.7962 -0.6710
 6423TIP3    H240685   5.380   0.061  15.632  1.8673 -0.1585 -1.1943
 6424TIP3   OH240686   5.819   2.564  15.141  0.1375 -0.2260  0.4735
 6424TIP3    H140687   5.791   2.566  15.050  1.0272  0.7490  0.1955
 6424TIP3    H240688   5.739   2.577  15.192 -0.0993  1.3322 -0.2505
 6425TIP3   OH240689   4.766   3.670  11.946 -0.5525 -0.0128  0.3086
 6425TIP3    H140690   4.731   3.737  11.888  1.7033  0.7799 -0.2600
 6425TIP3    H240691   4.831   3.716  11.999  0.5997 -1.6029  0.3543
 6426TIP3   OH240692   5.513   5.194  15.816 -0.3997 -0.0469 -0.4501
 6426TIP3    H140693   5.530   5.256  15.887 -2.5675  0.3892 -0.2448
 6426TIP3    H240694   5.578   5.215  15.749 -0.9589  2.3651 -0.3211
 6427TIP3   OH240695   5.541   2.812   5.927 -0.4571 -0.3355  0.4553
 6427TIP3    H140696   5.593   2.864   5.988 -1.1082  0.2771  0.4982
 6427TIP3    H240697   5.487   2.876   5.881 -1.0035 -0.9384  0.2427
 6428TIP3   OH240698   6.452   6.385   2.724 -0.1217 -0.3709 -0.1287
 6428TIP3    H140699   6.399   6.449   2.677  0.5556 -0.0813 -0.5172
 6428TIP3    H240700   6.406   6.302   2.712 -1.1335  0.0693  0.5790
 6429TIP3   OH240701   4.667   0.334  13.371 -0.0340 -0.6539  0.6963
 6429TIP3    H140702   4.685   0.424  13.399  0.8053 -0.7916  0.6079
 6429TIP3    H240703   4.572   0.324  13.384 -0.6339  1.0592 -1.6165
 6430TIP3   OH240704   3.090   4.139   3.232 -0.6543 -0.0879  0.1118
 6430TIP3    H140705   3.178   4.135   3.194 -0.1363  1.4305  1.0502
 6430TIP3    H240706   3.069   4.048   3.254 -0.1621 -0.7474 -1.8945
 6431TIP3   OH240707   3.807   1.870   4.302  0.1523 -0.4796 -0.4602
 6431TIP3    H140708   3.795   1.802   4.368  1.8433 -0.7842 -0.4228
 6431TIP3    H240709   3.803   1.953   4.350 -0.1333 -0.6236 -0.2341
 6432TIP3   OH240710   6.069   4.281   3.886 -0.1144  0.2989  0.5876
 6432TIP3    H140711   6.163   4.298   3.875 -0.3043  0.9200 -0.1907
 6432TIP3    H240712   6.046   4.323   3.968 -0.1731  2.1993 -0.3559
 6433TIP3   OH240713   2.020   5.438  10.129 -0.4417 -0.1668 -0.3970
 6433TIP3    H140714   2.076   5.497  10.180 -1.1541 -0.2818  0.5320
 6433TIP3    H240715   2.082   5.388  10.076  0.4725 -1.1464  1.4929
 6434TIP3   OH240716   4.680   6.394  12.026  1.1062 -0.2445 -0.0889
 6434TIP3    H140717   4.707   6.465  11.968  1.8593 -0.4504 -0.0012
 6434TIP3    H240718   4.714   6.315  11.984 -2.3770 -1.0064 -1.8990
 6435TIP3   OH240719   5.064   2.993  13.267  0.1598  0.0826 -0.2137
 6435TIP3    H140720   5.064   3.089  13.268  0.0361  0.1128 -1.6819
 6435TIP3    H240721   5.091   2.969  13.356  1.7844  1.4772 -0.2659
 6436TIP3   OH240722   1.477   2.197   4.335  0.0502 -0.0973 -0.5466
 6436TIP3    H140723   1.463   2.102   4.337 -0.8907  0.0373 -0.2729
 6436TIP3    H240724   1.421   2.229   4.265  0.6772  0.2179 -0.9126
 6437TIP3   OH240725   2.743   5.114  14.705  0.1712  0.1548  0.3303
 6437TIP3    H140726   2.826   5.090  14.746  0.5828  0.8608 -0.0898
 6437TIP3    H240727   2.760   5.197  14.662 -0.3402 -0.3951 -0.9989
 6438TIP3   OH240728   5.215   5.770   4.046  0.0801  0.1678 -0.2903
 6438TIP3    H140729   5.271   5.835   4.088 -2.1492  1.2414  1.1936
 6438TIP3    H240730   5.171   5.818   3.976  0.1091 -0.3636 -0.6836
 6439TIP3   OH240731   6.753   2.345  11.641 -0.1885 -0.4241 -0.5663
 6439TIP3    H140732   6.818   2.280  11.614  0.6256  0.4964 -0.8951
 6439TIP3    H240733   6.805   2.420  11.670 -1.1046  0.6208 -1.5429
 6440TIP3   OH240734   0.027   4.150  14.045  0.1809  0.5335  0.3223
 6440TIP3    H140735   0.082   4.205  13.990 -0.3810 -0.2820 -1.1065
 6440TIP3    H240736   0.067   4.063  14.039  1.0611  0.7090  2.5472
 6441TIP3   OH240737   0.766   0.471   2.770  1.2699  0.5447 -0.0361
 6441TIP3    H140738   0.814   0.405   2.819  0.0890 -0.4512 -0.1794
 6441TIP3    H240739   0.753   0.433   2.683 -1.7200 -0.2496  0.6481
 6442TIP3   OH240740   6.009   4.048  12.500  0.4078 -0.6237  0.4472
 6442TIP3    H140741   6.026   3.966  12.547 -0.2125  0.1218  2.0288
 6442TIP3    H240742   6.091   4.068  12.456  0.2102 -2.7349 -1.0240
 6443TIP3   OH240743   1.535   0.096   2.029  0.5119 -0.4207 -0.1963
 6443TIP3    H140744   1.525   0.031   2.098  1.1359  0.9256  1.2121
 6443TIP3    H240745   1.446   0.126   2.011  0.5452  1.6839  2.5466
 6444TIP3   OH240746   4.680   3.197   2.333  0.4035  0.0404  0.0591
 6444TIP3    H140747   4.657   3.284   2.366  0.7255 -0.2889  1.1876
 6444TIP3    H240748   4.606   3.141   2.358  0.7100 -0.2391  0.3479
 6445TIP3   OH240749   2.393   2.428   1.192 -0.2389 -0.5869  0.0175
 6445TIP3    H140750   2.409   2.499   1.130 -0.3179  0.4713  1.1693
 6445TIP3    H240751   2.449   2.449   1.267 -0.4801 -1.5916  0.4844
 6446TIP3   OH240752   1.328   1.246   2.487  0.1296  0.1319  0.3412
 6446TIP3    H140753   1.404   1.252   2.429 -1.0492 -0.4293 -1.3638
 6446TIP3    H240754   1.301   1.154   2.480  0.2810 -0.0811  2.2648
 6447TIP3   OH240755   4.643   0.891  13.170 -0.5197  0.1854  0.5919
 6447TIP3    H140756   4.623   0.975  13.129 -0.8025 -0.3343 -0.3764
 6447TIP3    H240757   4.559   0.862  13.207 -0.7099 -0.2279 -0.1436
 6448TIP3   OH240758   5.725   6.776   1.825  0.3974  0.3944  0.2294
 6448TIP3    H140759   5.777   6.696   1.823  0.7414  0.6228 -0.2611
 6448TIP3    H240760   5.665   6.768   1.751 -0.5497 -0.0423  1.0234
 6449TIP3   OH240761   3.674   1.823  11.162  0.1383  0.2855 -0.1634
 6449TIP3    H140762   3.746   1.787  11.214 -1.3150  0.2739  1.9661
 6449TIP3    H240763   3.607   1.847  11.227 -1.0426  2.0104 -1.9093
 6450TIP3   OH240764   6.520   3.934  13.221  0.2056  0.2333  0.1757
 6450TIP3    H140765   6.611   3.904  13.225  0.1384 -0.3510 -1.5982
 6450TIP3    H240766   6.526   4.029  13.219  0.8083  0.1938 -0.3180
 6451TIP3   OH240767   0.255   0.727   2.944 -0.3180 -0.9180  0.2096
 6451TIP3    H140768   0.275   0.745   3.036  0.9360  2.0674 -0.5257
 6451TIP3    H240769   0.160   0.719   2.942 -0.6543  1.5547  1.4879
 6452TIP3   OH240770   4.402   0.877   3.104 -0.0025  0.0741  0.3392
 6452TIP3    H140771   4.417   0.901   3.196  0.6360 -1.4725  0.6769
 6452TIP3    H240772   4.362   0.790   3.109 -0.6338  0.2813 -0.8465
 6453TIP3   OH240773   3.561   3.305   5.604 -0.3143 -0.1981 -0.6053
 6453TIP3    H140774   3.594   3.394   5.617  2.0120 -0.9101 -1.1557
 6453TIP3    H240775   3.553   3.296   5.509  1.4830 -1.1953 -0.7027
 6454TIP3   OH240776   2.515   3.781   0.259 -0.2055 -0.3683 -0.0925
 6454TIP3    H140777   2.499   3.723   0.185 -1.6102 -1.3657  0.9331
 6454TIP3    H240778   2.433   3.779   0.309  0.6056  0.4862  1.3415
 6455TIP3   OH240779   0.010   4.822  16.126 -0.3511  0.6893  0.0475
 6455TIP3    H140780   0.043   4.824  16.215 -0.9348  1.7340  0.2550
 6455TIP3    H240781  -0.005   4.914  16.103  1.1510  0.5658 -1.6476
 6456TIP3   OH240782   2.417   5.471  14.043 -0.6057 -0.3116 -0.3341
 6456TIP3    H140783   2.469   5.442  13.968 -0.3517  3.3621 -1.7719
 6456TIP3    H240784   2.326   5.459  14.016 -0.5084 -0.2447 -0.6877
 6457TIP3   OH240785   4.166   2.891   1.010  0.1547  0.0504  0.4896
 6457TIP3    H140786   4.240   2.921   1.063  0.8874  0.0431 -0.5013
 6457TIP3    H240787   4.171   2.796   1.012 -0.4838  0.0312  1.3169
 6458TIP3   OH240788   4.129   6.547  11.070  0.2848 -0.4788 -0.2742
 6458TIP3    H140789   4.105   6.465  11.113 -2.6327  0.2702 -0.2532
 6458TIP3    H240790   4.163   6.521  10.985 -0.0283 -1.7460 -0.0328
 6459TIP3   OH240791   2.121   2.012   1.525 -0.3207  0.8010  0.3083
 6459TIP3    H140792   2.094   2.001   1.617  1.4258  0.9740  0.8805
 6459TIP3    H240793   2.041   2.040   1.480 -0.9932  1.7721  1.9934
 6460TIP3   OH240794   1.553   4.603  16.374 -0.1114  0.1819 -0.5889
 6460TIP3    H140795   1.536   4.618  16.467  0.1694 -0.5291 -0.4140
 6460TIP3    H240796   1.625   4.663  16.353 -0.7824  1.0024 -0.5832
 6461TIP3   OH240797   4.769   0.424   3.995  0.1538 -0.1537 -0.1435
 6461TIP3    H140798   4.715   0.432   4.074 -1.0047 -0.3361 -0.8916
 6461TIP3    H240799   4.858   0.408   4.028 -0.1234  0.7989  1.1314
 6462TIP3   OH240800   5.716   5.244   4.374 -0.4103  0.0656  0.6522
 6462TIP3    H140801   5.796   5.251   4.426 -0.3145  0.9231  0.3907
 6462TIP3    H240802   5.649   5.288   4.426 -0.3890  0.6290  0.2142
 6463TIP3   OH240803   4.559   5.798  11.367  0.3958 -0.1472 -0.2067
 6463TIP3    H140804   4.483   5.785  11.311 -2.0882  0.5148  2.7531
 6463TIP3    H240805   4.566   5.893  11.377  2.2997 -0.1393 -1.2123
 6464TIP3   OH240806   3.363   3.942  12.357  0.1192 -0.3203 -0.5287
 6464TIP3    H140807   3.308   3.863  12.348 -0.9012  0.2870  0.1221
 6464TIP3    H240808   3.300   4.012  12.376  1.1493  0.3609  0.4581
 6465TIP3   OH240809   5.247   6.579   0.709  0.0381 -0.5044 -0.2461
 6465TIP3    H140810   5.313   6.641   0.740 -1.2898  1.2763 -0.8062
 6465TIP3    H240811   5.276   6.554   0.621  0.5585 -0.6393 -0.0353
 6466TIP3   OH240812   1.216   6.007   1.359  0.4617 -0.4880  0.2862
 6466TIP3    H140813   1.260   5.970   1.435  1.6259  0.2519 -0.0053
 6466TIP3    H240814   1.285   6.053   1.311 -0.5646  0.4306 -0.3617
 6467TIP3   OH240815   1.678   3.820  11.666 -0.4646 -0.2466  0.2344
 6467TIP3    H140816   1.622   3.897  11.661  0.3876  0.3307 -1.0390
 6467TIP3    H240817   1.668   3.778  11.581  0.8914 -0.2166  0.0418
 6468TIP3   OH240818   0.418   2.962  12.855  0.1570  0.3915 -0.1421
 6468TIP3    H140819   0.483   2.898  12.826 -0.3651  0.8614 -2.5078
 6468TIP3    H240820   0.470   3.036  12.887  0.7924  0.4043 -1.1786
 6469TIP3   OH240821   6.328   4.983  16.875  0.1531  0.4311  0.4397
 6469TIP3    H140822   6.325   4.991  16.780 -1.0307  0.3185  0.4561
 6469TIP3    H240823   6.240   5.005  16.905  0.4039  0.1118  1.4848
 6470TIP3   OH240824   6.124   0.072   5.626  0.3164 -0.2052 -0.2490
 6470TIP3    H140825   6.181   0.143   5.658  1.9373 -1.9225  0.8453
 6470TIP3    H240826   6.062   0.057   5.697 -1.0450  1.0718 -1.0954
 6471TIP3   OH240827   1.639   2.552  15.928  0.1152  0.3211 -0.4244
 6471TIP3    H140828   1.596   2.516  16.005 -1.0579  2.0246 -0.2287
 6471TIP3    H240829   1.677   2.635  15.959  1.4585  0.0228 -1.1955
 6472TIP3   OH240830   6.458   5.972  15.711 -0.0386 -0.1611 -0.1530
 6472TIP3    H140831   6.435   5.880  15.701 -0.0426 -0.2128  0.3139
 6472TIP3    H240832   6.441   5.991  15.804 -2.9859  1.1119 -0.8231
 6473TIP3   OH240833   6.700   2.695   2.695 -0.0402 -0.6459 -0.3960
 6473TIP3    H140834   6.783   2.696   2.648  0.1218  2.1048 -0.2296
 6473TIP3    H240835   6.669   2.786   2.690 -2.0515 -1.1748  1.2546
 6474TIP3   OH240836   0.861   1.141  12.617 -0.4528  0.1552 -0.3097
 6474TIP3    H140837   0.886   1.232  12.599 -3.1768  1.2397  0.7462
 6474TIP3    H240838   0.944   1.095  12.628  1.0299  2.5353 -0.7212
 6475TIP3   OH240839   2.490   2.527   5.158 -0.2700 -0.4965 -0.1541
 6475TIP3    H140840   2.582   2.500   5.164 -0.6843 -2.3512 -1.3799
 6475TIP3    H240841   2.488   2.589   5.085  0.1887  0.5762  0.7126
 6476TIP3   OH240842   2.485   4.709   3.363  0.0244  0.2043  0.1450
 6476TIP3    H140843   2.434   4.788   3.349  1.5824  1.0300 -1.1345
 6476TIP3    H240844   2.504   4.709   3.457 -0.4885  1.0158  0.2563
 6477TIP3   OH240845   0.373   3.614  12.115 -0.1594 -0.0558 -0.1123
 6477TIP3    H140846   0.443   3.608  12.179  0.7282 -1.6186 -1.1522
 6477TIP3    H240847   0.299   3.652  12.163  1.0535  0.6409  1.2818
 6478TIP3   OH240848   3.784   1.825  13.976 -0.4044  0.7502  0.4672
 6478TIP3    H140849   3.801   1.737  14.010 -3.6893  0.4807  1.7860
 6478TIP3    H240850   3.840   1.832  13.899  0.3280 -2.3034  0.5878
 6479TIP3   OH240851   4.510   1.741   4.658 -0.1618  0.6061  0.3228
 6479TIP3    H140852   4.566   1.663   4.660 -1.4725 -0.3633  0.2877
 6479TIP3    H240853   4.483   1.748   4.566 -0.6883  0.6264  0.4777
 6480TIP3   OH240854   1.194   3.708  13.812 -0.1764 -0.8336 -1.1463
 6480TIP3    H140855   1.175   3.759  13.733 -1.5944 -0.1876 -0.4388
 6480TIP3    H240856   1.109   3.671  13.837  0.0329 -0.2168  0.6034
 6481TIP3   OH240857   2.313   3.427   2.684 -0.1281 -0.1027 -0.9932
 6481TIP3    H140858   2.259   3.364   2.636 -0.7412  0.0738 -0.5340
 6481TIP3    H240859   2.263   3.508   2.682 -1.2938 -0.6426  1.9263
 6482TIP3   OH240860   1.617   0.449  10.669 -0.3321 -0.5586 -0.2042
 6482TIP3    H140861   1.560   0.480  10.598 -1.4590 -1.0127  0.4666
 6482TIP3    H240862   1.584   0.493  10.747  0.5941 -0.4219  0.1180
 6483TIP3   OH240863   3.325   1.480  12.324  1.3516  0.2512  0.0518
 6483TIP3    H140864   3.242   1.523  12.343  1.4718  1.3141 -1.5936
 6483TIP3    H240865   3.374   1.485  12.406  0.9559  2.3887  0.2172
 6484TIP3   OH240866   3.261   3.693  15.237 -0.3069 -0.4998  0.7863
 6484TIP3    H140867   3.329   3.756  15.217 -0.2941 -0.6559  0.3144
 6484TIP3    H240868   3.201   3.697  15.162 -0.7722 -0.4261  1.1519
 6485TIP3   OH240869   1.221   4.991   3.129  0.1117 -0.1225 -0.6104
 6485TIP3    H140870   1.315   4.976   3.127  0.1262 -0.0198 -0.6949
 6485TIP3    H240871   1.205   5.037   3.211  0.0084 -0.9926 -0.1298
 6486TIP3   OH240872   3.601   5.753  16.386  0.0277 -0.1532  0.1030
 6486TIP3    H140873   3.518   5.799  16.396 -0.4709 -1.0254  0.1125
 6486TIP3    H240874   3.623   5.724  16.475 -0.9747 -2.1067 -0.2224
 6487TIP3   OH240875   0.240   1.389  11.136 -0.1983  0.2458 -0.3642
 6487TIP3    H140876   0.271   1.330  11.068  0.1730 -0.5927  0.5071
 6487TIP3    H240877   0.296   1.467  11.127  0.7970 -0.4282 -0.1213
 6488TIP3   OH240878   2.414   6.237  15.725  0.0796 -0.0168 -0.5076
 6488TIP3    H140879   2.368   6.304  15.675 -0.2839  1.2267  1.4053
 6488TIP3    H240880   2.498   6.228  15.680 -0.4847  0.5320 -1.7302
 6489TIP3   OH240881   4.312   4.569  16.795  0.0819 -0.1259  0.8438
 6489TIP3    H140882   4.402   4.545  16.819  0.8260  1.2460 -0.4143
 6489TIP3    H240883   4.262   4.487  16.804  1.1089 -0.5723  3.0358
 6490TIP3   OH240884   1.067   2.080  12.714 -0.1932 -0.2281  0.3422
 6490TIP3    H140885   1.045   2.172  12.704  0.1118 -0.3862 -2.6170
 6490TIP3    H240886   1.162   2.077  12.706 -0.2738 -0.8844 -0.4569
 6491TIP3   OH240887   6.794   4.298   1.655 -0.0381  0.2758 -0.3604
 6491TIP3    H140888   6.822   4.208   1.639  0.3504 -0.0222  1.7138
 6491TIP3    H240889   6.699   4.296   1.642 -0.1784 -0.6980  0.6390
 6492TIP3   OH240890   5.137   2.535   3.598  0.2763 -0.3431  0.0387
 6492TIP3    H140891   5.094   2.511   3.680 -0.3668 -1.1541 -0.5217
 6492TIP3    H240892   5.103   2.622   3.578  0.1914 -0.2748  0.4640
 6493TIP3   OH240893   3.286   3.094  10.468  0.4655 -0.1377  0.2222
 6493TIP3    H140894   3.204   3.099  10.419  0.0237 -1.3389  0.7982
 6493TIP3    H240895   3.334   3.172  10.442 -1.0559  0.8518  0.2365
 6494TIP3   OH240896   0.526   2.058   3.511  0.0716  0.7062 -0.1397
 6494TIP3    H140897   0.563   2.133   3.558  1.4642 -1.2188  2.0924
 6494TIP3    H240898   0.577   2.053   3.430 -0.2999  2.3376 -0.5071
 6495TIP3   OH240899   2.146   4.521  11.467  0.1827 -0.7832  0.1296
 6495TIP3    H140900   2.230   4.480  11.488 -0.2139 -1.6898 -0.0316
 6495TIP3    H240901   2.117   4.560  11.549  0.8339 -0.3065  0.1456
 6496TIP3   OH240902   4.450   5.064   5.172  0.1983  0.0982  0.5411
 6496TIP3    H140903   4.473   5.126   5.241  3.7907 -1.8166  1.2831
 6496TIP3    H240904   4.376   5.014   5.208  1.4667 -0.3211  2.7291
 6497TIP3   OH240905   0.903   0.800   3.722 -0.1332 -0.0652  0.2730
 6497TIP3    H140906   0.854   0.800   3.804 -2.4453  0.3780 -1.0358
 6497TIP3    H240907   0.909   0.707   3.698 -0.0656 -0.1452  0.5992
 6498TIP3   OH240908   0.252   4.138  16.710  0.6219  0.5561 -0.1352
 6498TIP3    H140909   0.237   4.232  16.721  0.2368  0.8039 -2.3209
 6498TIP3    H240910   0.274   4.128  16.617 -0.9939 -1.6814 -0.3635
 6499TIP3   OH240911   4.411   1.809  13.504 -0.0603  0.8982 -0.1246
 6499TIP3    H140912   4.367   1.732  13.467  0.1297  0.1642  1.1395
 6499TIP3    H240913   4.455   1.849  13.429  0.4942 -0.6741 -0.6675
 6500TIP3   OH240914   5.849   6.551   4.135  0.3887 -0.3695  0.1977
 6500TIP3    H140915   5.778   6.616   4.135 -0.5677 -1.2756 -2.3425
 6500TIP3    H240916   5.811   6.475   4.178  0.4348 -0.2632  0.4266
 6501TIP3   OH240917   3.274   1.081   1.362  0.5659  0.6869  0.5917
 6501TIP3    H140918   3.234   1.126   1.288 -1.4266 -1.4794  0.2512
 6501TIP3    H240919   3.224   1.112   1.438 -0.4342 -0.4539  0.4245
 6502TIP3   OH240920   2.927   1.462  14.889 -0.1647  0.2264  0.0207
 6502TIP3    H140921   2.918   1.373  14.922  1.4518 -0.4835 -1.3203
 6502TIP3    H240922   2.868   1.467  14.814  0.8766 -0.2540 -0.8581
 6503TIP3   OH240923   6.803   4.840  13.161 -0.2937 -0.3047 -0.5357
 6503TIP3    H140924   6.727   4.828  13.104 -0.6294 -0.8499  0.0180
 6503TIP3    H240925   6.861   4.767  13.139  0.7839  0.9170 -2.0240
 6504TIP3   OH240926   4.018   3.450   6.187 -0.2174 -0.1468 -0.0200
 6504TIP3    H140927   4.032   3.417   6.099  0.3866  0.5861 -0.2081
 6504TIP3    H240928   4.097   3.425   6.235  0.4807  1.4557 -0.3038
 6505TIP3   OH240929   5.533   6.813   5.750 -0.2530 -0.2515 -0.1067
 6505TIP3    H140930   5.530   6.901   5.788 -0.2102  0.2065 -1.1483
 6505TIP3    H240931   5.613   6.775   5.787  0.2961  0.5303 -0.4649
 6506TIP3   OH240932   0.971   2.902  15.918  0.2841  0.0938  0.2773
 6506TIP3    H140933   0.878   2.925  15.914  0.3648  0.4841  0.6156
 6506TIP3    H240934   1.000   2.933  16.004  0.6150 -0.4588  0.3720
 6507TIP3   OH240935   3.017   5.958  11.727  0.2140 -0.1564  0.2356
 6507TIP3    H140936   3.071   5.881  11.714 -0.4983 -0.6878  0.3489
 6507TIP3    H240937   3.017   5.972  11.821  1.5922  0.9152  0.1010
 6508TIP3   OH240938   5.909   0.632  14.791 -0.3060  0.1835 -0.0199
 6508TIP3    H140939   5.984   0.575  14.806 -2.9741 -3.5436  0.2959
 6508TIP3    H240940   5.908   0.647  14.696 -0.3041 -1.4983 -0.3054
 6509TIP3   OH240941   5.986   5.813   3.637  0.1656  0.5054 -0.1820
 6509TIP3    H140942   6.056   5.871   3.607  0.8983  0.2542  0.9638
 6509TIP3    H240943   5.908   5.868   3.638  0.1667  0.6164 -2.1462
 6510TIP3   OH240944   2.651   3.805  15.893 -0.2720  0.2863  0.2586
 6510TIP3    H140945   2.613   3.892  15.877 -0.5745  0.3232  1.1267
 6510TIP3    H240946   2.738   3.823  15.929 -0.3689  0.2325  0.5210
 6511TIP3   OH240947   0.692   0.425   6.059  0.6173 -0.4519  0.1774
 6511TIP3    H140948   0.762   0.395   6.118 -0.4780  1.0841  2.3850
 6511TIP3    H240949   0.612   0.388   6.096 -0.1670  1.0046 -0.0179
 6512TIP3   OH240950   5.736   1.994  16.024  0.2419 -0.0245  0.1239
 6512TIP3    H140951   5.729   1.911  16.073 -1.2927 -0.9619 -1.5734
 6512TIP3    H240952   5.757   1.967  15.935 -0.7328  1.4023 -0.5588
 6513TIP3   OH240953   4.511   6.059   2.222 -0.3198 -0.6024 -0.3175
 6513TIP3    H140954   4.536   6.148   2.247  1.0868 -1.2643  0.7920
 6513TIP3    H240955   4.422   6.068   2.188 -0.2564  1.2032 -0.1300
 6514TIP3   OH240956   1.294   5.633   1.413 -0.2162  0.8979 -0.6905
 6514TIP3    H140957   1.338   5.707   1.372  0.1866  1.9750  1.5273
 6514TIP3    H240958   1.363   5.587   1.460 -1.0950  1.7090  1.5397
 6515TIP3   OH240959   3.789   0.092   4.536 -0.2799  0.0005  0.2593
 6515TIP3    H140960   3.751   0.090   4.448 -0.3427 -0.2384  0.2916
 6515TIP3    H240961   3.877   0.058   4.526 -0.2046  0.1949  0.2499
 6516TIP3   OH240962   3.479   4.421   1.229 -0.3355  0.2122  0.4322
 6516TIP3    H140963   3.443   4.422   1.141 -0.1089 -0.4324  0.3251
 6516TIP3    H240964   3.524   4.337   1.235  1.3298  1.0634  0.4813
 6517TIP3   OH240965   2.151   0.410   0.502 -0.4508  0.3647 -0.0746
 6517TIP3    H140966   2.155   0.504   0.490  1.4059  0.1405 -1.7854
 6517TIP3    H240967   2.134   0.375   0.415  0.6292 -0.9408  0.1992
 6518TIP3   OH240968   4.508   1.161  13.954  0.4977  0.1028 -0.1363
 6518TIP3    H140969   4.483   1.113  14.033 -1.3721 -1.3664 -1.5368
 6518TIP3    H240970   4.428   1.206  13.927  0.5239 -0.9895 -2.2158
 6519TIP3   OH240971   4.504   6.241  13.141 -0.4526 -0.0129  0.1313
 6519TIP3    H140972   4.543   6.230  13.054  0.6458 -0.4541  0.6558
 6519TIP3    H240973   4.417   6.203  13.133 -0.4376  0.1277 -0.8264
 6520TIP3   OH240974   1.544   5.543   3.575  0.1800  0.2335 -0.3905
 6520TIP3    H140975   1.590   5.530   3.658 -0.5284 -0.2598 -0.0684
 6520TIP3    H240976   1.473   5.604   3.596  1.9248  2.7954 -1.3384
 6521TIP3   OH240977   0.597   5.163  13.552  0.3355  0.5145 -0.4048
 6521TIP3    H140978   0.512   5.192  13.587  0.5791  1.9090 -0.8958
 6521TIP3    H240979   0.584   5.160  13.458  1.3882  2.9205 -0.7104
 6522TIP3   OH240980   3.006   4.269   1.531  0.2888  0.3832  0.2988
 6522TIP3    H140981   2.994   4.302   1.442  1.1649  0.6074  0.2508
 6522TIP3    H240982   2.927   4.218   1.548 -0.3475  1.1577 -0.2295
 6523TIP3   OH240983   5.752   6.629  12.712 -0.2847  0.6805  0.3456
 6523TIP3    H140984   5.770   6.543  12.749 -1.5106  0.8397  1.3998
 6523TIP3    H240985   5.829   6.650  12.660  0.2918 -0.7807  0.5761
 6524TIP3   OH240986   2.837   2.879  14.679 -0.0844  0.0493 -0.0686
 6524TIP3    H140987   2.812   2.838  14.762 -1.6804 -0.0967 -0.5897
 6524TIP3    H240988   2.811   2.815  14.612 -1.0919  1.1906 -0.8002
 6525TIP3   OH240989   1.389   2.512   4.735 -0.1518  0.0625  0.1157
 6525TIP3    H140990   1.434   2.451   4.677  1.0298 -0.5220  1.5833
 6525TIP3    H240991   1.330   2.457   4.787 -1.0930  0.5585 -0.3959
 6526TIP3   OH240992   1.437   4.164  10.534  0.0948  0.2110  0.3826
 6526TIP3    H140993   1.436   4.244  10.481  1.7642 -0.3225 -0.5116
 6526TIP3    H240994   1.362   4.113  10.501 -1.2941  1.5693  1.3027
 6527TIP3   OH240995   6.813   5.340   1.196  0.2747  0.4908  0.1613
 6527TIP3    H140996   6.858   5.268   1.152 -1.3712  0.2558 -1.2545
 6527TIP3    H240997   6.747   5.369   1.132 -2.0302  0.3527  2.3312
 6528TIP3   OH240998   1.556   6.135   3.191  0.1654 -0.0691  0.3733
 6528TIP3    H140999   1.474   6.086   3.183 -0.5493  1.1365  0.0845
 6528TIP3    H241000   1.532   6.214   3.240  1.2241  0.1514  0.5664
 6529TIP3   OH241001   0.641   3.631  10.954 -0.5579  0.5778  0.1637
 6529TIP3    H141002   0.619   3.724  10.952  0.5712  0.8508 -0.4903
 6529TIP3    H241003   0.713   3.622  10.892  1.6874 -0.1133  2.6959
 6530TIP3   OH241004   5.416   4.741  10.898 -0.1390  0.9305  0.1191
 6530TIP3    H141005   5.449   4.655  10.870  1.2871  0.7918  1.9961
 6530TIP3    H241006   5.402   4.789  10.816 -0.5616 -0.9206 -0.9601
 6531TIP3   OH241007   4.174   0.609   0.108  0.2553  0.8962 -0.2670
 6531TIP3    H141008   4.097   0.605   0.164 -0.6847 -0.8414 -1.5877
 6531TIP3    H241009   4.151   0.675   0.042 -0.2802  0.1400 -0.8572
 6532TIP3   OH241010   0.125   3.414   0.983 -0.3046  0.0217  0.0328
 6532TIP3    H141011   0.126   3.489   0.924 -0.6296  0.5759  0.7301
 6532TIP3    H241012   0.032   3.403   1.006 -0.4730 -1.4637 -1.1550
 6533TIP3   OH241013   2.912   4.757  14.179  0.7003 -0.3289  0.1644
 6533TIP3    H141014   2.984   4.775  14.240 -0.0133 -0.0171  0.9511
 6533TIP3    H241015   2.879   4.671  14.206 -0.1219  0.1518  0.7684
 6534TIP3   OH241016   1.204   6.146  14.631  0.4228  0.1222  0.0162
 6534TIP3    H141017   1.145   6.077  14.663 -0.6316  1.1304  0.3180
 6534TIP3    H241018   1.281   6.099  14.601 -0.4095 -1.2287 -0.1084
 6535TIP3   OH241019   5.241   5.325   5.106 -0.2179 -0.1402 -0.2970
 6535TIP3    H141020   5.177   5.266   5.066 -0.8002  0.7177 -0.6499
 6535TIP3    H241021   5.269   5.279   5.185 -1.3223 -0.5035 -0.0975
 6536TIP3   OH241022   6.128   4.320  13.727 -0.1976  0.0038  0.4700
 6536TIP3    H141023   6.041   4.324  13.689 -0.4902  1.2808  1.2259
 6536TIP3    H241024   6.167   4.240  13.690 -1.7642 -0.7285  0.3254
 6537TIP3   OH241025   6.548   2.544  16.886 -0.2701  0.0006  0.2257
 6537TIP3    H141026   6.546   2.556  16.981 -0.5971  1.7005  0.0344
 6537TIP3    H241027   6.641   2.536  16.866  0.0539  2.6426  0.4024
 6538TIP3   OH241028   4.649   5.941  11.895 -0.2257 -0.1917  0.1892
 6538TIP3    H141029   4.647   5.851  11.862 -1.2671  0.2509 -1.0192
 6538TIP3    H241030   4.558   5.970  11.894  0.2786  1.6016 -1.5625
 6539TIP3   OH241031   1.365   3.339   6.157 -0.2936 -0.0456 -0.2857
 6539TIP3    H141032   1.371   3.405   6.225  1.5017 -0.3789 -0.0928
 6539TIP3    H241033   1.405   3.261   6.195  2.7221  0.3172 -2.3386
 6540TIP3   OH241034   0.811   5.692   4.002 -0.5650  0.2238  0.0735
 6540TIP3    H141035   0.803   5.607   4.047 -1.6871  0.3917  0.2326
 6540TIP3    H241036   0.818   5.756   4.073  2.7555  0.1215 -0.0340
 6541TIP3   OH241037   2.425   2.994   1.840 -0.3402 -0.9167  0.7267
 6541TIP3    H141038   2.376   3.070   1.808  0.6049 -0.4037  0.4516
 6541TIP3    H241039   2.360   2.939   1.883 -1.3975 -0.9671 -0.9025
 6542TIP3   OH241040   5.793   5.389  13.413 -0.0163  0.1496  0.0003
 6542TIP3    H141041   5.752   5.315  13.367 -1.0592  0.3045  0.6554
 6542TIP3    H241042   5.743   5.465  13.384  1.3750  0.7002 -1.0654
 6543TIP3   OH241043   6.143   0.762   4.291  0.3344  0.0031 -0.2363
 6543TIP3    H141044   6.048   0.775   4.291  0.4331  0.8751 -1.6029
 6543TIP3    H241045   6.179   0.844   4.257  1.6661  0.1220  1.3562
 6544TIP3   OH241046   2.970   5.469  14.331 -0.1332  0.1198  0.0839
 6544TIP3    H141047   2.886   5.462  14.286 -0.4881  1.0827  0.5802
 6544TIP3    H241048   3.011   5.547  14.294  1.9575 -1.9623 -2.4196
 6545TIP3   OH241049   6.636   4.320   3.630  0.1019 -0.4938  0.1319
 6545TIP3    H141050   6.665   4.230   3.646  1.2643 -0.1362  0.1112
 6545TIP3    H241051   6.688   4.349   3.555  0.0921  0.3520  0.4420
 6546TIP3   OH241052   1.681   5.532   0.557  0.5192  0.4139 -0.2034
 6546TIP3    H141053   1.694   5.446   0.515  0.3315  0.6910 -0.8496
 6546TIP3    H241054   1.658   5.512   0.647  3.2606 -0.1777  0.4586
 6547TIP3   OH241055   0.532   5.614   6.114  0.4506 -1.1544 -0.3357
 6547TIP3    H141056   0.455   5.557   6.119 -1.0898  0.8954  0.8918
 6547TIP3    H241057   0.560   5.625   6.204  1.5197 -0.9471 -0.6724
 6548TIP3   OH241058   3.711   4.521  10.922 -0.6985 -0.0913  0.2143
 6548TIP3    H141059   3.741   4.466  10.994  2.8498 -0.6189 -1.4106
 6548TIP3    H241060   3.662   4.463  10.865 -1.9552 -0.0975  1.2590
 6549TIP3   OH241061   0.999   4.079  14.930 -0.7606  0.4091 -0.2259
 6549TIP3    H141062   1.022   4.028  14.852 -2.9352 -1.0100 -0.0088
 6549TIP3    H241063   0.966   4.162  14.896 -1.2881 -0.0301 -0.8016
 6550TIP3   OH241064   4.230   4.416  15.585  0.0655 -0.8278  0.3150
 6550TIP3    H141065   4.143   4.442  15.555  0.7562 -1.1734 -2.2650
 6550TIP3    H241066   4.239   4.457  15.671 -0.7904  3.4138 -1.3693
 6551TIP3   OH241067   0.284   5.813   1.305 -0.1599  0.3809 -0.0697
 6551TIP3    H141068   0.373   5.787   1.325 -0.7806 -1.1492  0.8735
 6551TIP3    H241069   0.254   5.749   1.240 -0.5922  0.8199 -0.3080
 6552TIP3   OH241070   5.499   3.868   4.112  0.2018  0.1575  0.3534
 6552TIP3    H141071   5.452   3.928   4.171 -1.1661  0.2747 -0.8001
 6552TIP3    H241072   5.505   3.916   4.030  3.1914  0.4921  0.6663
 6553TIP3   OH241073   4.525   5.902  16.342 -0.1045 -0.0270 -0.4272
 6553TIP3    H141074   4.552   5.994  16.348  2.5076 -0.6537 -1.1054
 6553TIP3    H241075   4.503   5.889  16.250  0.5558 -0.2997 -0.5546
 6554TIP3   OH241076   1.316   2.963  16.510 -0.0750  0.3786 -0.6258
 6554TIP3    H141077   1.319   3.052  16.547  0.6807  0.5763 -1.1233
 6554TIP3    H241078   1.246   2.919  16.558  1.1406  0.4790  1.3483
 6555TIP3   OH241079   4.770   5.330   5.139  0.2547 -1.2465 -0.2155
 6555TIP3    H141080   4.784   5.259   5.202 -1.5609 -1.0021  0.5175
 6555TIP3    H241081   4.696   5.300   5.086 -0.6472  0.1582  0.2093
 6556TIP3   OH241082   0.931   0.017   6.278  0.0744 -0.6942 -0.7213
 6556TIP3    H141083   0.935  -0.045   6.351  1.2995 -0.2569 -0.4035
 6556TIP3    H241084   0.844   0.003   6.240 -1.7813  0.9869  2.4738
 6557TIP3   OH241085   1.911   4.678   4.338 -0.3818  0.0111  0.4309
 6557TIP3    H141086   1.999   4.676   4.375 -0.6916  0.2886  1.1879
 6557TIP3    H241087   1.901   4.593   4.295  1.0701  0.7634 -1.6053
 6558TIP3   OH241088   5.249   4.905  13.271 -0.3249  0.1562 -0.1273
 6558TIP3    H141089   5.300   4.865  13.342  0.5549  1.3027 -0.0900
 6558TIP3    H241090   5.169   4.935  13.313  0.2287  0.9118  0.4267
 6559TIP3   OH241091   1.037   6.436  11.589 -0.4240 -0.0388 -0.5023
 6559TIP3    H141092   1.102   6.495  11.550  0.8831 -1.2867 -0.2968
 6559TIP3    H241093   1.051   6.352  11.545 -2.3540 -0.1991 -0.9027
 6560TIP3   OH241094   1.020   2.416  10.396  0.6872 -0.7760  0.0376
 6560TIP3    H141095   0.992   2.503  10.370  0.5918 -1.4340 -2.1990
 6560TIP3    H241096   1.097   2.431  10.452 -0.3699  0.7636  1.1712
 6561TIP3   OH241097   4.502   6.464  12.588  0.7004  0.0317  0.1895
 6561TIP3    H141098   4.421   6.424  12.618  1.7769 -2.5691 -0.1807
 6561TIP3    H241099   4.476   6.517  12.512 -0.8034  0.2821  0.8530
 6562TIP3   OH241100   2.418   5.507   1.861  0.0113 -0.0251  0.1718
 6562TIP3    H141101   2.376   5.426   1.832  0.8393 -0.1769 -0.6440
 6562TIP3    H241102   2.393   5.572   1.795 -2.1873  0.9021  1.7845
 6563TIP3   OH241103   6.610   5.041   2.509 -0.1466 -0.6904 -0.2163
 6563TIP3    H141104   6.656   5.079   2.434  0.7069  0.4633  0.8459
 6563TIP3    H241105   6.671   5.051   2.582 -1.5234 -0.4135  0.9479
 6564TIP3   OH241106   0.548   1.839  10.867 -0.4939  0.0077 -0.0756
 6564TIP3    H141107   0.562   1.771  10.801 -4.0108 -1.5228  0.5329
 6564TIP3    H241108   0.530   1.918  10.817 -0.1278 -0.4117 -0.8834
 6565TIP3   OH241109   4.204   0.687  15.571  0.0262  0.0955  0.1835
 6565TIP3    H141110   4.157   0.725  15.497  1.3410 -0.5656 -1.0310
 6565TIP3    H241111   4.220   0.761  15.630 -1.2882  0.5770 -0.0371
 6566TIP3   OH241112   3.784   2.640   6.684  0.3335  0.3013 -0.1430
 6566TIP3    H141113   3.855   2.675   6.738  1.4217  1.0429 -1.9566
 6566TIP3    H241114   3.823   2.566   6.638 -0.4611 -0.0876 -0.1997
 6567TIP3   OH241115   3.207   5.618  12.728  0.9812  0.5481  0.1838
 6567TIP3    H141116   3.119   5.654  12.725  0.2130 -1.1098  1.3195
 6567TIP3    H241117   3.264   5.694  12.743 -0.5665  1.3075  2.7970
 6568TIP3   OH241118   5.005   4.248  13.122 -0.0365 -0.1767  0.0161
 6568TIP3    H141119   5.036   4.310  13.188 -0.1961  0.4235 -0.4710
 6568TIP3    H241120   4.929   4.206  13.163  0.6492 -0.7674  0.7291
 6569TIP3   OH241121   4.502   1.604   5.571  0.1846 -1.1633 -0.1488
 6569TIP3    H141122   4.459   1.602   5.485  1.2608 -0.6842 -0.7176
 6569TIP3    H241123   4.562   1.679   5.565  0.3870 -1.2319  0.9634
 6570TIP3   OH241124   0.692   3.659  13.744 -0.3074 -0.4003 -0.1083
 6570TIP3    H141125   0.655   3.698  13.823  0.3450 -1.9238  1.0143
 6570TIP3    H241126   0.637   3.691  13.673 -2.3139 -0.7086  1.2161
 6571TIP3   OH241127   2.579   2.169   0.159  0.0348  0.3871 -0.1925
 6571TIP3    H141128   2.508   2.105   0.175 -0.5028  0.5588 -1.7589
 6571TIP3    H241129   2.540   2.253   0.181  0.5577  0.2780  1.2945
 6572TIP3   OH241130   4.245   5.557   1.009  1.1381  0.3557 -0.0517
 6572TIP3    H141131   4.172   5.596   0.960  0.5516 -1.1693 -0.4483
 6572TIP3    H241132   4.235   5.592   1.097 -1.4556 -1.4771  0.4945
 6573TIP3   OH241133   4.702   3.372   4.374 -0.4132 -0.0933  0.7974
 6573TIP3    H141134   4.620   3.419   4.360 -0.2488  0.2823  1.0817
 6573TIP3    H241135   4.755   3.432   4.427  0.9732  0.7131 -1.3784
 6574TIP3   OH241136   1.302   2.453  11.067  0.0158  0.1728  0.4028
 6574TIP3    H141137   1.391   2.445  11.102 -0.2650  0.1982  1.1391
 6574TIP3    H241138   1.257   2.375  11.099 -0.3998  0.4734  0.5589
 6575TIP3   OH241139   6.739   5.438   0.393  0.2503 -0.3824 -0.1194
 6575TIP3    H141140   6.652   5.434   0.432 -0.1103 -0.5063 -0.9215
 6575TIP3    H241141   6.729   5.395   0.308  1.0878 -0.3755 -0.2281
 6576TIP3   OH241142   1.021   4.761  14.761  0.4443 -0.3732  0.4561
 6576TIP3    H141143   0.994   4.750  14.852  0.4217  1.0422  0.6409
 6576TIP3    H241144   1.110   4.797  14.767  2.1911 -4.1308 -0.1308
 6577TIP3   OH241145   1.055   4.732   0.271 -0.2189 -0.3409  0.1225
 6577TIP3    H141146   1.140   4.704   0.237  0.3958 -0.7684  1.9096
 6577TIP3    H241147   1.021   4.655   0.318  0.6907  1.1896  3.5922
 6578TIP3   OH241148   0.980   6.070   0.337 -0.8248 -0.0966 -0.3011
 6578TIP3    H141149   0.959   6.130   0.409 -1.2031 -0.6608  0.0745
 6578TIP3    H241150   1.022   5.995   0.380 -1.3392 -0.5815 -0.6164
 6579TIP3   OH241151   4.490   2.661  16.221 -0.4270  0.6761  0.1675
 6579TIP3    H141152   4.581   2.639  16.201  0.0452  1.7162  1.0762
 6579TIP3    H241153   4.479   2.750  16.186 -0.3356  1.5164  2.1667
 6580TIP3   OH241154   2.934   3.389  15.033 -0.4807 -0.3490 -0.1126
 6580TIP3    H141155   3.006   3.428  14.982 -0.2626 -1.4387 -0.6560
 6580TIP3    H241156   2.971   3.309  15.069  0.1568  1.4746  3.8156
 6581TIP3   OH241157   1.376   6.637   0.357  0.3641  0.1288 -0.3947
 6581TIP3    H141158   1.404   6.675   0.274 -1.0935  2.1960 -0.0147
 6581TIP3    H241159   1.457   6.605   0.397  1.1432 -0.5478 -2.3941
 6582TIP3   OH241160   4.124   1.378  11.256  0.6353  0.2442 -0.3337
 6582TIP3    H141161   4.206   1.425  11.267 -0.7424  2.9201 -0.6453
 6582TIP3    H241162   4.092   1.363  11.345  0.1178  1.8213 -0.2262
 6583TIP3   OH241163   1.457   1.705   2.541 -0.0613 -0.0692  0.3705
 6583TIP3    H141164   1.401   1.653   2.484 -0.6559  0.5719  0.3514
 6583TIP3    H241165   1.546   1.682   2.516 -0.2526  1.6270 -2.2253
 6584TIP3   OH241166   0.780   6.023   4.691 -0.2196 -0.4168 -0.2527
 6584TIP3    H141167   0.802   5.949   4.748  0.4767 -0.5376 -0.6728
 6584TIP3    H241168   0.696   6.054   4.725  0.0438 -0.6611  0.6680
 6585TIP3   OH241169   5.810   4.418  11.533  0.2199  0.8213 -0.0639
 6585TIP3    H141170   5.857   4.381  11.458 -0.0887  0.8425 -0.2688
 6585TIP3    H241171   5.875   4.472  11.578  0.0921  1.7581 -0.9768
 6586TIP3   OH241172   4.466   0.602   3.198  0.6888 -0.2294  0.0005
 6586TIP3    H141173   4.482   0.552   3.118 -0.0663 -0.9632  0.2887
 6586TIP3    H241174   4.389   0.560   3.237  0.6119  0.5727  0.7407
 6587TIP3   OH241175   1.956   1.737   5.252  0.0554  0.0753 -0.2380
 6587TIP3    H141176   1.994   1.737   5.340  0.5811  0.3090 -0.4570
 6587TIP3    H241177   1.918   1.650   5.242 -1.6298  0.6087  0.8978
 6588TIP3   OH241178   3.716   4.279  16.507 -0.2638  0.3938  0.6104
 6588TIP3    H141179   3.682   4.368  16.519 -1.3202  0.1806 -0.6406
 6588TIP3    H241180   3.646   4.222  16.540 -0.6503 -0.0157 -0.8324
 6589TIP3   OH241181   0.369   1.322   1.634 -0.2346  0.1072  0.4490
 6589TIP3    H141182   0.358   1.389   1.702 -0.8297  0.9728 -0.4662
 6589TIP3    H241183   0.463   1.324   1.614 -0.1933  0.4338  0.6642
 6590TIP3   OH241184   4.128   3.200   2.026 -0.0762 -0.4273  0.7147
 6590TIP3    H141185   4.088   3.250   1.954  2.0592 -0.1769 -0.3971
 6590TIP3    H241186   4.158   3.267   2.088 -1.2499 -0.6045  1.4917
 6591TIP3   OH241187   1.333   3.720   5.173  0.5488  0.2557 -0.6871
 6591TIP3    H141188   1.355   3.805   5.134  0.9853 -0.6942 -2.6187
 6591TIP3    H241189   1.241   3.707   5.149  0.0768  0.7295  0.7393
 6592TIP3   OH241190   5.023   2.113  15.356 -0.7381  0.2031  0.3089
 6592TIP3    H141191   5.016   2.076  15.268  0.1896  0.0944  0.2722
 6592TIP3    H241192   4.943   2.084  15.401  0.4241 -2.8301  0.6420
 6593TIP3   OH241193   6.397   4.467  16.261 -0.5504  0.6088  0.6124
 6593TIP3    H141194   6.434   4.499  16.343  0.4564 -0.2069  0.4956
 6593TIP3    H241195   6.397   4.543  16.204 -0.3009  0.9400  1.0448
 6594TIP3   OH241196   0.533   0.943  11.166 -0.1907 -0.3506  0.3637
 6594TIP3    H141197   0.522   0.979  11.078 -1.1456 -2.2163 -0.3529
 6594TIP3    H241198   0.519   1.017  11.225  2.7255  1.4844 -1.0218
 6595TIP3   OH241199   0.750   6.435  15.559 -0.2750  0.0247  0.3453
 6595TIP3    H141200   0.674   6.493  15.561  0.4811  1.0450  0.1067
 6595TIP3    H241201   0.725   6.362  15.616 -2.3288 -0.8327 -1.5034
 6596TIP3   OH241202   2.487   4.057   0.435 -0.0216 -0.0554 -0.1066
 6596TIP3    H141203   2.445   3.970   0.431 -0.0677 -0.1083  1.2706
 6596TIP3    H241204   2.533   4.058   0.519  0.1383  1.1922 -0.1914
 6597TIP3   OH241205   4.548   0.853   5.154 -0.0845 -0.0220  0.4236
 6597TIP3    H141206   4.570   0.782   5.215  0.1614 -1.5712 -1.3682
 6597TIP3    H241207   4.520   0.808   5.074  1.1624  1.8916 -1.1850
 6598TIP3   OH241208   3.554   3.034   5.157 -0.1682  0.4132 -0.4976
 6598TIP3    H141209   3.479   3.037   5.097  0.5557  0.9246 -1.4247
 6598TIP3    H241210   3.561   2.943   5.183 -1.9669  0.5771  0.7597
 6599TIP3   OH241211   0.261   2.194   1.692  0.0358  0.2441 -0.2013
 6599TIP3    H141212   0.167   2.203   1.674 -1.1424  1.0872  4.7753
 6599TIP3    H241213   0.302   2.265   1.642 -2.2018  0.8966 -1.2279
 6600TIP3   OH241214   2.922   1.288   3.805  0.9199 -0.1787 -0.0225
 6600TIP3    H141215   2.984   1.225   3.842  0.7778 -0.7281 -0.6949
 6600TIP3    H241216   2.883   1.332   3.881 -1.0752 -2.8701  0.6499
 6601TIP3   OH241217   0.069   1.347  13.261 -0.2821 -0.1127  0.0104
 6601TIP3    H141218  -0.016   1.308  13.281  0.6779 -2.2719  0.1562
 6601TIP3    H241219   0.102   1.377  13.345  0.4000 -2.1408  0.5299
 6602TIP3   OH241220   0.306   6.476   4.871  0.2542 -0.2584 -0.4564
 6602TIP3    H141221   0.346   6.543   4.816 -0.3488  0.7665  0.3294
 6602TIP3    H241222   0.379   6.425   4.905  0.8007  0.7932 -0.0471
 6603TIP3   OH241223   5.218   2.752   1.297  0.3061 -0.6031  0.3112
 6603TIP3    H141224   5.311   2.727   1.301 -0.1813 -2.4695  2.5832
 6603TIP3    H241225   5.202   2.797   1.380 -0.6355  0.4963 -0.4512
 6604TIP3   OH241226   2.323   3.868   5.086  0.1448 -0.5768  0.3270
 6604TIP3    H141227   2.277   3.822   5.016 -0.5648  1.1537 -0.4156
 6604TIP3    H241228   2.260   3.870   5.158 -0.3770  0.3905 -0.1291
 6605TIP3   OH241229   6.148   5.141  16.189 -0.3145  1.1826 -0.1001
 6605TIP3    H141230   6.162   5.078  16.118  0.5252  3.0058 -1.6358
 6605TIP3    H241231   6.063   5.116  16.226  0.8486 -2.0380  0.7188
 6606TIP3   OH241232   0.296   0.848  11.437  0.1112  0.4384  0.3632
 6606TIP3    H141233   0.340   0.931  11.419 -0.9744  1.2784  1.3971
 6606TIP3    H241234   0.310   0.832  11.530  0.0328 -0.3821  0.2466
 6607TIP3   OH241235   0.857   6.394   2.201  0.1081 -0.3094  0.2349
 6607TIP3    H141236   0.797   6.327   2.169  0.1016  0.1519 -0.7624
 6607TIP3    H241237   0.806   6.446   2.263  0.2941 -1.5844  1.5081
 6608TIP3   OH241238   2.430   4.587   0.956  0.0340 -0.5408  0.8833
 6608TIP3    H141239   2.430   4.549   1.044 -0.8940 -2.2050  0.2121
 6608TIP3    H241240   2.341   4.620   0.943  0.5004  0.8426  0.9933
 6609TIP3   OH241241   4.271   4.324   0.411 -0.4979  0.6653 -0.3771
 6609TIP3    H141242   4.363   4.331   0.438 -0.7974  3.2878  0.2418
 6609TIP3    H241243   4.232   4.266   0.477  0.7202 -0.7155 -0.8065
 6610TIP3   OH241244   4.842   0.959   4.299 -0.1764  0.3202 -0.5802
 6610TIP3    H141245   4.772   1.023   4.313  0.7651  1.2542  0.0503
 6610TIP3    H241246   4.797   0.876   4.285 -1.4056  0.8271  0.2117
 6611TIP3   OH241247   2.762   6.711  13.758  0.0791 -0.3628  0.0150
 6611TIP3    H141248   2.694   6.776  13.779  0.7006  0.4069 -0.3220
 6611TIP3    H241249   2.842   6.748  13.795  0.9883  0.4309 -2.5308
 6612TIP3   OH241250   5.050   2.788   1.036  0.2584 -0.3344 -0.0856
 6612TIP3    H141251   5.118   2.764   1.099  1.1236  0.7292 -0.5690
 6612TIP3    H241252   5.010   2.704   1.011 -1.8151 -0.6762  3.6123
 6613TIP3   OH241253   1.221   0.968   2.068  0.0774  0.1275 -0.0642
 6613TIP3    H141254   1.291   1.033   2.068 -1.1839  1.5760  1.0100
 6613TIP3    H241255   1.239   0.914   2.145  0.6897 -0.3098 -0.5067
 6614TIP3   OH241256   2.745   1.161   2.992 -0.2616 -0.4254  0.2488
 6614TIP3    H141257   2.779   1.236   2.944  0.7400 -0.5803  0.7028
 6614TIP3    H241258   2.686   1.118   2.930 -0.6298  0.5584 -0.1175
 6615TIP3   OH241259   1.021   6.218  14.453 -0.1646 -0.3659  0.2133
 6615TIP3    H141260   1.098   6.205  14.508  0.3392 -1.2516 -0.6624
 6615TIP3    H241261   0.960   6.150  14.481 -0.3006 -0.1960  0.3341
 6616TIP3   OH241262   1.822   6.472   2.947  0.1260  0.1890  0.3349
 6616TIP3    H141263   1.851   6.407   2.883 -0.9547 -0.6061  0.6235
 6616TIP3    H241264   1.890   6.539   2.946  0.8875 -0.5752 -0.5216
 6617TIP3   OH241265   5.415   6.741  16.084 -0.1003 -0.1840  0.0807
 6617TIP3    H141266   5.456   6.666  16.042 -2.3843 -0.1054 -2.5809
 6617TIP3    H241267   5.332   6.708  16.119 -1.1170  1.0294 -1.0822
 6618TIP3   OH241268   1.081   6.442   0.996 -0.1742 -0.5654 -0.1461
 6618TIP3    H141269   1.142   6.374   1.026  0.2897  0.1601  0.5888
 6618TIP3    H241270   0.996   6.399   0.998  0.0716 -1.0521  0.5952
 6619TIP3   OH241271   4.734   2.923  15.315  0.2665  0.0437 -0.8096
 6619TIP3    H141272   4.645   2.916  15.349  0.9429 -0.5821  0.9682
 6619TIP3    H241273   4.772   2.836  15.330  0.9928  0.1159 -2.1309
 6620TIP3   OH241274   1.960   3.255   0.016  0.3484 -0.5151 -0.4815
 6620TIP3    H141275   1.909   3.178  -0.008  1.7079 -0.6493 -3.3416
 6620TIP3    H241276   2.041   3.221   0.053  1.1508 -0.5845 -2.1720
 6621TIP3   OH241277   5.603   1.982   0.632  0.2834 -0.3031  0.4848
 6621TIP3    H141278   5.660   1.960   0.706 -0.4259 -1.1517  0.8018
 6621TIP3    H241279   5.653   1.955   0.554 -0.8779 -4.1736  0.8653
 6622TIP3   OH241280   4.124   5.240   5.535 -0.1115 -0.8678 -0.0170
 6622TIP3    H141281   4.152   5.311   5.477  1.4395 -2.6558 -1.5813
 6622TIP3    H241282   4.128   5.279   5.623  1.9792  0.6309 -0.6923
 6623TIP3   OH241283   6.030   0.363  15.542 -0.4746 -0.1170 -0.4969
 6623TIP3    H141284   6.119   0.400  15.544 -0.8204  0.7364  2.1032
 6623TIP3    H241285   6.027   0.303  15.616 -2.1125 -0.0950 -0.5094
 6624TIP3   OH241286   0.767   3.769   2.331 -0.3618 -0.3070  0.0198
 6624TIP3    H141287   0.733   3.760   2.419 -1.7926 -0.4232 -0.5261
 6624TIP3    H241288   0.842   3.710   2.328 -0.4437 -0.4787  1.0710
 6625TIP3   OH241289   2.744   4.384   2.853  0.3926  0.1423  0.0701
 6625TIP3    H141290   2.743   4.329   2.932 -1.3740 -0.4145 -0.3054
 6625TIP3    H241291   2.743   4.474   2.887 -1.0631 -0.0911  0.7065
 6626TIP3   OH241292   1.748   3.695  12.465 -0.8781 -0.3869  0.4921
 6626TIP3    H141293   1.723   3.755  12.395  0.2822 -0.5848 -0.1229
 6626TIP3    H241294   1.715   3.610  12.437 -1.4711 -0.2630  0.7877
 6627TIP3   OH241295   4.412   3.915   5.339  0.3551  0.8312 -0.9037
 6627TIP3    H141296   4.367   3.831   5.349  1.3508  0.4409  0.5726
 6627TIP3    H241297   4.358   3.964   5.277 -1.2481 -0.2047 -0.3805
 6628TIP3   OH241298   5.962   0.412  15.268  0.1813  0.3459 -0.0476
 6628TIP3    H141299   5.980   0.394  15.360  1.8115  3.6143  0.3959
 6628TIP3    H241300   5.867   0.429  15.264  0.2017  0.7871  1.1585
 6629TIP3   OH241301   6.399   3.380   0.653 -0.1492  0.1559 -0.1030
 6629TIP3    H141302   6.373   3.450   0.713  1.1574 -1.8754  3.0590
 6629TIP3    H241303   6.341   3.391   0.577 -2.7013  2.2339  1.9553
 6630TIP3   OH241304   3.733   5.565   5.864  0.6629 -0.0289 -0.0346
 6630TIP3    H141305   3.772   5.628   5.804 -0.6850  1.6774  0.7803
 6630TIP3    H241306   3.706   5.492   5.809  2.1908  0.1102 -1.0210
 6631TIP3   OH241307   0.035   1.322  16.493  0.1915 -0.5012 -0.1289
 6631TIP3    H141308   0.110   1.312  16.433 -0.2671 -0.0311 -0.7893
 6631TIP3    H241309   0.050   1.255  16.560  1.4747 -0.0800  0.0362
 6632TIP3   OH241310   0.591   0.794  11.645 -0.2196  0.2722  0.3482
 6632TIP3    H141311   0.684   0.814  11.653  0.0509 -0.5096 -0.6750
 6632TIP3    H241312   0.589   0.701  11.621 -1.2278  0.5364 -0.6375
 6633TIP3   OH241313   4.171   3.457  12.516 -0.1411 -0.2001 -0.1059
 6633TIP3    H141314   4.150   3.399  12.590 -1.1557  0.8158  0.4278
 6633TIP3    H241315   4.202   3.538  12.557 -1.2616  0.5887 -0.7585
 6634TIP3   OH241316   0.824   6.523   2.709  0.2806  0.0288  0.6689
 6634TIP3    H141317   0.797   6.592   2.649 -0.5620 -0.0508  0.9577
 6634TIP3    H241318   0.771   6.535   2.787 -0.3323 -1.3056  0.4916
 6635TIP3   OH241319   3.450   5.925  10.659  0.0728 -0.1122 -0.2248
 6635TIP3    H141320   3.443   6.020  10.656  0.5683 -0.0803 -0.3782
 6635TIP3    H241321   3.359   5.895  10.662 -0.0816  0.3714  0.0728
 6636TIP3   OH241322   3.938   4.575  11.515 -0.0041  0.0831 -0.2685
 6636TIP3    H141323   3.984   4.656  11.493 -0.5414  0.2541 -0.7979
 6636TIP3    H241324   3.921   4.534  11.431  0.3062 -0.6111  0.0012
 6637TIP3   OH241325   5.887   5.108   4.754  0.1351  0.0610 -0.5393
 6637TIP3    H141326   5.867   5.020   4.784  2.3714 -0.1213  0.6729
 6637TIP3    H241327   5.906   5.157   4.833 -0.5686  1.5194 -1.2349
 6638TIP3   OH241328   4.017   4.195   5.954  0.5153 -0.0287 -0.4860
 6638TIP3    H141329   3.937   4.230   5.993  0.2241 -1.4350  0.2784
 6638TIP3    H241330   4.088   4.233   6.006  0.3152  0.7361 -0.7649
 6639TIP3   OH241331   0.878   3.944   0.058 -0.3166  0.5678 -0.5595
 6639TIP3    H141332   0.966   3.954   0.022 -0.6058  0.0400 -1.4508
 6639TIP3    H241333   0.869   3.849   0.071  0.1576  0.8044  1.9167
 6640TIP3   OH241334   2.535   0.330   4.774  0.1673  0.1873  0.5607
 6640TIP3    H141335   2.617   0.375   4.757  1.3600 -1.4120  1.7315
 6640TIP3    H241336   2.560   0.253   4.826 -2.2223  0.4038  2.2120
 6641TIP3   OH241337   5.166   1.797   3.405 -0.6903 -0.1432  0.1680
 6641TIP3    H141338   5.212   1.713   3.402 -0.1062  0.1407  0.8793
 6641TIP3    H241339   5.116   1.800   3.324 -0.2848 -0.9354 -0.1213
 6642TIP3   OH241340   2.797   4.088  15.214 -0.0209 -0.1617 -0.2978
 6642TIP3    H141341   2.825   3.997  15.204  1.0854  0.0042  1.0628
 6642TIP3    H241342   2.750   4.108  15.133 -0.9921 -2.1837 -0.2828
 6643TIP3   OH241343   0.417   4.704   5.158 -0.8702 -0.0431 -0.5945
 6643TIP3    H141344   0.369   4.669   5.233  1.7196  0.6541  1.5182
 6643TIP3    H241345   0.448   4.790   5.187  2.3913 -0.8115 -1.3872
 6644TIP3   OH241346   1.144   1.331  16.637  0.0688 -0.0958 -0.1964
 6644TIP3    H141347   1.209   1.365  16.575  1.6279 -0.9427  0.9087
 6644TIP3    H241348   1.196   1.292  16.707 -1.6561 -0.9115  0.6833
 6645TIP3   OH241349   2.795   5.910   2.110  0.2357 -0.2136 -0.4904
 6645TIP3    H141350   2.727   5.843   2.121 -1.3615  1.1528 -1.6311
 6645TIP3    H241351   2.832   5.892   2.023 -1.0602  1.0480 -1.3588
 6646TIP3   OH241352   6.614   3.089  14.337 -0.2779 -0.2468 -0.7395
 6646TIP3    H141353   6.699   3.090  14.292 -0.9048  1.0409 -1.9465
 6646TIP3    H241354   6.613   3.170  14.387 -0.3334 -0.8225  0.2128
 6647TIP3   OH241355   6.537   4.850   4.157 -0.1573 -0.0682  0.0130
 6647TIP3    H141356   6.540   4.773   4.100  0.5291  0.5997 -0.8862
 6647TIP3    H241357   6.443   4.866   4.171 -0.3196 -0.5836 -0.4639
 6648TIP3   OH241358   3.132   2.158   0.979  0.1965 -0.2106  0.3790
 6648TIP3    H141359   3.087   2.241   0.964  0.4981  0.0420  0.8605
 6648TIP3    H241360   3.163   2.131   0.892 -1.6854 -0.8676 -0.1342
 6649TIP3   OH241361   0.455   1.889   1.402  0.4299 -0.0932  0.1014
 6649TIP3    H141362   0.509   1.863   1.477  0.4601 -0.7683 -0.1377
 6649TIP3    H241363   0.476   1.823   1.335  0.2286  0.3634 -0.4173
 6650TIP3   OH241364   5.055   2.392  13.540 -0.6373  0.8223 -0.7370
 6650TIP3    H141365   5.075   2.409  13.632 -0.2342  1.5714 -0.9544
 6650TIP3    H241366   4.980   2.332  13.543 -0.5238  0.7033  0.0764
 6651TIP3   OH241367   0.734   0.758   2.577  0.4857 -0.1936  0.1128
 6651TIP3    H141368   0.661   0.766   2.517  1.7069 -2.7017 -1.8925
 6651TIP3    H241369   0.695   0.726   2.659 -0.6350 -2.4155 -1.2012
 6652TIP3   OH241370   6.246   5.066  13.134 -0.3699  0.5086  0.0673
 6652TIP3    H141371   6.248   4.985  13.083 -2.8297 -1.9630  3.4630
 6652TIP3    H241372   6.312   5.053  13.202  0.9320  2.5161 -0.7401
 6653TIP3   OH241373   0.491   3.385   2.993  0.0900  0.2224 -0.3226
 6653TIP3    H141374   0.469   3.292   2.988  0.8345  0.0774 -1.2510
 6653TIP3    H241375   0.430   3.427   2.932 -0.6173  0.4313  0.5096
 6654TIP3   OH241376   5.477   4.590   5.331  0.0410  0.2190 -0.2955
 6654TIP3    H141377   5.420   4.588   5.408  0.5603  0.9765  0.1206
 6654TIP3    H241378   5.543   4.523   5.349 -0.0207  0.1751 -0.2292
 6655TIP3   OH241379   2.606   3.935   4.056 -0.3744  0.4359 -0.1436
 6655TIP3    H141380   2.590   3.917   4.148 -0.4076 -2.5887 -0.6109
 6655TIP3    H241381   2.518   3.948   4.019 -0.8473 -2.6557 -0.3862
 6656TIP3   OH241382   2.182   0.653   0.201  0.4489  0.2763 -0.2008
 6656TIP3    H141383   2.263   0.703   0.214  0.5393  0.0514  0.1119
 6656TIP3    H241384   2.211   0.562   0.198 -0.0158 -0.0142  2.1963
 6657TIP3   OH241385   6.554   3.716  15.981  0.2022  0.2217 -0.4339
 6657TIP3    H141386   6.649   3.716  15.974  0.3256 -0.5738  0.8815
 6657TIP3    H241387   6.524   3.659  15.910  0.7841 -0.3512 -0.2324
 6658TIP3   OH241388   2.131   0.984   2.150 -0.2861 -0.0108  0.1328
 6658TIP3    H141389   2.155   0.966   2.240  1.3334  2.5921  0.3203
 6658TIP3    H241390   2.038   1.007   2.154 -0.4515 -0.7749  0.9643
 6659TIP3   OH241391   0.955   2.344   2.347 -0.6166  0.6242 -0.7663
 6659TIP3    H141392   0.882   2.329   2.286 -0.3810 -0.1636 -0.8641
 6659TIP3    H241393   0.916   2.331   2.434 -0.3636 -0.9746 -0.8491
 6660TIP3   OH241394   0.394   6.536   4.278  0.3837  0.0154  0.1207
 6660TIP3    H141395   0.465   6.582   4.233  1.0147 -1.2854 -0.2827
 6660TIP3    H241396   0.317   6.591   4.266  0.9300  0.5531 -1.0299
 6661TIP3   OH241397   4.778   1.092  11.164  0.1154 -0.0663  0.4985
 6661TIP3    H141398   4.790   1.161  11.229  1.3256  0.3695 -0.1706
 6661TIP3    H241399   4.697   1.117  11.118  1.7271  2.2390 -1.2905
 6662TIP3   OH241400   1.281   0.138  13.288  0.1557 -0.2122 -0.3447
 6662TIP3    H141401   1.319   0.052  13.272  1.8646  0.4107  0.1816
 6662TIP3    H241402   1.338   0.199  13.241 -0.0841  0.7778  0.5906
 6663TIP3   OH241403   2.749   3.173  10.663 -0.0016 -0.6136  0.4756
 6663TIP3    H141404   2.672   3.223  10.637  0.9233  0.3734 -0.4666
 6663TIP3    H241405   2.778   3.214  10.744  0.6885  0.3459 -0.2350
 6664TIP3   OH241406   2.421   3.566  12.553 -0.8140 -0.0468 -0.0411
 6664TIP3    H141407   2.406   3.658  12.534  3.9929  1.3790  1.6031
 6664TIP3    H241408   2.414   3.560  12.649 -0.1864 -1.2144 -0.0484
 6665TIP3   OH241409   0.895   2.719   4.011 -0.4656 -0.1538  0.2523
 6665TIP3    H141410   0.814   2.764   3.986 -0.8636 -0.6415  0.6405
 6665TIP3    H241411   0.905   2.650   3.945  0.0180  0.3433 -0.2055
 6666TIP3   OH241412   3.511   5.934   0.551 -0.4007  0.3812 -0.3528
 6666TIP3    H141413   3.591   5.975   0.515  0.0852  0.1743  0.4742
 6666TIP3    H241414   3.440   5.980   0.507  0.1647 -0.2368 -2.0111
 6667TIP3   OH241415   0.589   2.224   1.114  0.3083  0.2243 -0.8566
 6667TIP3    H141416   0.670   2.220   1.165  1.5520  0.0082 -2.7525
 6667TIP3    H241417   0.614   2.270   1.034 -1.3662 -0.1774 -1.6490
 6668TIP3   OH241418   2.276   5.179  14.747  0.4010  0.6662 -0.1777
 6668TIP3    H141419   2.323   5.134  14.677 -2.5516  0.2145 -2.0304
 6668TIP3    H241420   2.307   5.138  14.828  0.8852 -1.7647 -1.5291
 6669TIP3   OH241421   5.172   3.837  12.906 -0.8287 -0.6434  0.2806
 6669TIP3    H141422   5.264   3.832  12.932  0.1080 -0.2278 -2.5907
 6669TIP3    H241423   5.140   3.747  12.914  0.4480 -1.2004 -0.6650
 6670TIP3   OH241424   2.082   3.211  13.038 -0.0323  0.7337 -0.2131
 6670TIP3    H141425   2.062   3.119  13.020  0.7632 -0.1447  2.8380
 6670TIP3    H241426   2.005   3.244  13.085  0.4057  1.0902  0.2714
 6671TIP3   OH241427   2.927   2.715  12.651  0.0359 -0.1512 -0.3413
 6671TIP3    H141428   2.996   2.649  12.656  0.2536  0.0581 -0.6014
 6671TIP3    H241429   2.894   2.721  12.741 -0.7491 -1.4202 -0.5347
 6672TIP3   OH241430   1.321   2.887   3.371 -0.1734  0.2154 -0.1794
 6672TIP3    H141431   1.340   2.907   3.462 -0.5128  2.1420 -0.4916
 6672TIP3    H241432   1.360   2.959   3.322  1.0177 -1.3758 -1.6803
 6673TIP3   OH241433   0.077   0.593   3.417 -0.2088 -0.5628  0.0737
 6673TIP3    H141434  -0.018   0.593   3.412 -0.1431  0.3670 -2.1861
 6673TIP3    H241435   0.102   0.685   3.419  0.6599 -0.7892  1.3497
 6674TIP3   OH241436   6.502   4.586   5.560  0.3924 -0.7330 -0.0026
 6674TIP3    H141437   6.474   4.666   5.516  1.2726  0.0038  0.7342
 6674TIP3    H241438   6.502   4.519   5.492  0.1750  0.0122 -0.7493
 6675TIP3   OH241439   1.301   0.080   3.593  0.3827 -0.1335  0.1291
 6675TIP3    H141440   1.292   0.104   3.685 -1.2959  0.1033 -0.0653
 6675TIP3    H241441   1.236   0.012   3.579 -0.5533  0.9646 -1.2316
 6676TIP3   OH241442   3.998   4.745  11.822  0.1393 -0.0171 -0.2043
 6676TIP3    H141443   4.039   4.659  11.824 -0.6082 -0.4601 -1.8345
 6676TIP3    H241444   3.975   4.758  11.730 -1.4807  1.0914  0.3171
 6677TIP3   OH241445   0.334   3.164   1.725 -0.3931  0.1704  0.1754
 6677TIP3    H141446   0.283   3.233   1.767 -0.3872  0.2608  0.0310
 6677TIP3    H241447   0.275   3.126   1.660  0.3631  1.6254 -1.4524
 6678TIP3   OH241448   3.792   4.767   2.910  0.4011  0.3584 -0.4554
 6678TIP3    H141449   3.808   4.775   2.816 -1.4509 -3.1594 -1.2146
 6678TIP3    H241450   3.750   4.850   2.934  1.1887  1.4714 -2.5821
 6679TIP3   OH241451   1.755   5.783  14.060  0.1294  0.1551 -0.3025
 6679TIP3    H141452   1.763   5.841  14.136  0.4032 -1.2825  0.7973
 6679TIP3    H241453   1.666   5.748  14.066  0.0199  0.3143 -0.8719
 6680TIP3   OH241454   2.752   2.941  13.674  0.5816  0.3552  0.0441
 6680TIP3    H141455   2.743   3.037  13.671 -1.4545  0.2567  1.1387
 6680TIP3    H241456   2.796   2.924  13.757 -1.2978  0.2847  1.0795
 6681TIP3   OH241457   4.230   1.385  10.637 -0.4031 -0.6939 -0.5061
 6681TIP3    H141458   4.176   1.452  10.596  1.1927 -0.5160 -2.4744
 6681TIP3    H241459   4.192   1.302  10.608 -0.6839 -0.6119 -0.3807
 6682TIP3   OH241460   1.556   5.898   0.454 -0.7297  0.2638  0.2019
 6682TIP3    H141461   1.483   5.938   0.501 -0.4254  1.0045  0.0674
 6682TIP3    H241462   1.568   5.954   0.376 -0.6873 -0.4497 -0.3120
 6683TIP3   OH241463   6.364   1.925   2.192  0.3957 -0.0557  0.4727
 6683TIP3    H141464   6.314   1.995   2.235 -0.0736  0.3003 -0.6203
 6683TIP3    H241465   6.455   1.944   2.215  0.2016  0.4004  0.9115
 6684TIP3   OH241466   1.896   2.033   3.086  0.1699  0.0667  0.6735
 6684TIP3    H141467   1.825   2.028   3.151 -2.7260  1.1358 -2.1277
 6684TIP3    H241468   1.936   2.118   3.102 -0.0978  0.0581  1.4338
 6685TIP3   OH241469   3.292   2.552  11.318 -0.2300  0.0579  0.5160
 6685TIP3    H141470   3.324   2.542  11.408  0.2273  0.0074  0.3508
 6685TIP3    H241471   3.368   2.535  11.263 -0.3048  0.8897  0.1366
 6686TIP3   OH241472   2.972   4.504   1.997 -0.4956  0.0611  0.2990
 6686TIP3    H141473   2.945   4.412   1.993 -4.3418  1.0287 -0.3638
 6686TIP3    H241474   3.036   4.513   1.927 -0.8469 -1.8940 -0.3670
 6687TIP3   OH241475   0.858   2.885   5.668 -0.1563 -0.0004 -0.6032
 6687TIP3    H141476   0.941   2.840   5.683  1.2183  2.3074 -0.8156
 6687TIP3    H241477   0.883   2.974   5.645 -2.7278  1.9912  3.3273
 6688TIP3   OH241478   5.270   2.352  11.238 -0.1978  0.6929  1.2329
 6688TIP3    H141479   5.285   2.446  11.233  0.0186  0.5952 -0.6182
 6688TIP3    H241480   5.175   2.342  11.228 -0.0792  0.6542  0.1016
 6689TIP3   OH241481   1.165   5.855  11.239  0.0478  0.7351  0.3700
 6689TIP3    H141482   1.198   5.827  11.325  0.2620 -1.0442 -0.2493
 6689TIP3    H241483   1.100   5.789  11.216  1.5760 -0.1400 -1.8020
 6690TIP3   OH241484   6.619   3.704  14.521  0.7263  0.2029  0.1087
 6690TIP3    H141485   6.612   3.771  14.589  2.2147 -0.1660  0.6600
 6690TIP3    H241486   6.695   3.651  14.547  0.0025 -1.2862 -0.6701
 6691TIP3   OH241487   2.555   2.558  16.359  0.0913 -0.1435 -0.0415
 6691TIP3    H141488   2.503   2.580  16.436 -2.1181 -0.8775 -1.2201
 6691TIP3    H241489   2.558   2.462  16.358  0.6949 -0.1262 -0.4745
 6692TIP3   OH241490   2.832   3.956  14.200 -0.3538 -0.5744 -0.4673
 6692TIP3    H141491   2.826   3.915  14.287 -0.8885 -0.3778 -0.4075
 6692TIP3    H241492   2.790   4.041  14.211  1.3244  0.2833 -0.4295
 6693TIP3   OH241493   2.640   6.110   5.336  0.5958 -0.4130  0.9690
 6693TIP3    H141494   2.634   6.176   5.405  2.4983  0.5149  0.3068
 6693TIP3    H241495   2.676   6.157   5.261  2.2190 -2.2331  0.5424
 6694TIP3   OH241496   5.198   5.319  11.795 -0.6201 -0.0710  0.1475
 6694TIP3    H141497   5.197   5.242  11.738  0.8594  0.1091 -0.1592
 6694TIP3    H241498   5.273   5.305  11.853 -1.5718  0.1794  1.4625
 6695TIP3   OH241499   5.778   1.270  13.122 -0.3563  0.2292 -0.2507
 6695TIP3    H141500   5.791   1.205  13.192  1.0875  0.3866 -0.3485
 6695TIP3    H241501   5.748   1.349  13.168 -2.8288 -0.6581 -0.2036
 6696TIP3   OH241502   4.063   2.661   4.304  0.1420 -0.2445 -0.0344
 6696TIP3    H141503   4.047   2.698   4.217 -0.0236  0.8498  0.4436
 6696TIP3    H241504   4.069   2.566   4.290  0.9597 -0.0196 -1.3560
 6697TIP3   OH241505   5.077   1.393   5.263  0.2960  0.0898 -0.9196
 6697TIP3    H141506   5.162   1.387   5.306  0.7215 -1.8489 -1.9083
 6697TIP3    H241507   5.071   1.484   5.235  1.8515  0.3690 -0.4680
 6698TIP3   OH241508   6.715   6.063   0.638 -0.1696 -0.2000  0.2165
 6698TIP3    H141509   6.656   5.988   0.640  1.3258 -1.5692 -2.0297
 6698TIP3    H241510   6.793   6.032   0.684  0.2830  0.1058 -0.3308
 6699TIP3   OH241511   1.957   1.778  11.387 -0.6153  0.2379  0.6029
 6699TIP3    H141512   2.031   1.814  11.337 -2.0227  3.0150  0.3512
 6699TIP3    H241513   1.942   1.692  11.347  0.7064  0.7778 -1.2250
 6700TIP3   OH241514   2.779   2.768   0.349 -0.4515  0.3054 -0.4315
 6700TIP3    H141515   2.810   2.779   0.259 -0.5074  2.2114 -0.2556
 6700TIP3    H241516   2.750   2.677   0.353  1.7624 -0.5340 -1.6371
 6701TIP3   OH241517   2.521   5.443  16.962 -0.7411  0.0392  0.8692
 6701TIP3    H141518   2.523   5.359  17.007  1.0986 -0.0299  0.7209
 6701TIP3    H241519   2.429   5.457  16.942 -0.9369 -2.9029 -0.8717
 6702TIP3   OH241520   0.750   3.039  15.523  0.2008 -0.2291 -0.2862
 6702TIP3    H141521   0.752   3.131  15.549 -0.8045  0.4294 -2.3598
 6702TIP3    H241522   0.661   3.025  15.491 -0.4540 -2.6294  2.1889
 6703TIP3   OH241523   2.587   3.103   3.701 -0.1471  0.0978 -0.0096
 6703TIP3    H141524   2.635   3.186   3.694 -0.4114  0.2199 -0.4277
 6703TIP3    H241525   2.511   3.124   3.755  0.2242 -0.0786  0.5932
 6704TIP3   OH241526   4.864   2.751  12.041  0.2675 -0.1828 -0.0828
 6704TIP3    H141527   4.851   2.837  12.001 -0.8355 -0.3908 -0.2067
 6704TIP3    H241528   4.794   2.744  12.106 -0.0043 -1.1991 -0.4570
 6705TIP3   OH241529   0.202   0.469   2.252 -0.4246 -0.2136  0.5735
 6705TIP3    H141530   0.243   0.510   2.176  0.2291  0.8154  1.4363
 6705TIP3    H241531   0.130   0.528   2.274  1.6570  1.6732  2.9672
 6706TIP3   OH241532   5.171   0.273  11.693  0.4480 -0.0415 -0.2516
 6706TIP3    H141533   5.117   0.347  11.666  1.9959  1.5093  0.7032
 6706TIP3    H241534   5.141   0.252  11.782  1.3526  0.8147  0.2752
 6707TIP3   OH241535   3.972   3.529  10.786 -1.0328  0.7579  0.0969
 6707TIP3    H141536   4.066   3.521  10.774 -0.8616  1.4012  0.9388
 6707TIP3    H241537   3.943   3.586  10.716 -0.6038  1.5254  0.5327
 6708TIP3   OH241538   4.954   1.402  13.636 -0.2085 -0.1705  0.2437
 6708TIP3    H141539   4.921   1.346  13.566 -1.2296  1.1988 -0.4103
 6708TIP3    H241540   4.901   1.377  13.712  0.5359 -1.2831  0.4217
 6709TIP3   OH241541   1.701   0.399  15.545  0.2162  0.2471  0.2071
 6709TIP3    H141542   1.766   0.445  15.599  1.1514  0.9196 -1.4111
 6709TIP3    H241543   1.617   0.438  15.570  0.7941  1.5893  0.1493
 6710TIP3   OH241544   6.178   3.539   2.893  0.4159 -0.5643  0.0680
 6710TIP3    H141545   6.168   3.621   2.844 -0.7609 -0.5687  0.2700
 6710TIP3    H241546   6.217   3.567   2.976 -1.7985  0.1459  0.9656
 6711TIP3   OH241547   6.199   1.771   4.593 -0.0947 -0.5265 -0.7767
 6711TIP3    H141548   6.154   1.690   4.614 -0.7861  0.0192 -0.1047
 6711TIP3    H241549   6.131   1.839   4.600  0.6544  0.2128 -0.4803
 6712TIP3   OH241550   5.718   5.698   4.965 -0.0804  0.4914  0.1454
 6712TIP3    H141551   5.797   5.654   4.931  1.3801  3.0313 -0.0059
 6712TIP3    H241552   5.720   5.680   5.059 -0.8517 -1.6522 -0.1941
 6713TIP3   OH241553   6.772   2.115   0.235  0.1186 -0.9609 -0.2722
 6713TIP3    H141554   6.827   2.106   0.313  0.2395  1.4819  0.0110
 6713TIP3    H241555   6.787   2.035   0.186  1.5487 -1.7165  1.2832
 6714TIP3   OH241556   4.322   0.516  14.892  0.4695 -0.1817  0.3377
 6714TIP3    H141557   4.228   0.532  14.885  0.6906  0.8971 -0.4033
 6714TIP3    H241558   4.356   0.527  14.803  0.9601 -3.1372  0.0741
 6715TIP3   OH241559   2.643   6.434   4.017 -0.0780  0.1521 -0.5706
 6715TIP3    H141560   2.662   6.358   4.071 -0.5571 -0.1779 -0.8604
 6715TIP3    H241561   2.561   6.413   3.973  0.5242  0.2179 -1.7690
 6716TIP3   OH241562   5.041   3.386  11.154 -0.5188 -0.8053 -0.5225
 6716TIP3    H141563   5.041   3.300  11.196 -1.3299 -0.1503  0.8795
 6716TIP3    H241564   5.024   3.448  11.225  0.4854  0.5663 -1.4347
 6717TIP3   OH241565   5.228   5.031  11.726  0.2274  0.0639  0.0627
 6717TIP3    H141566   5.264   4.966  11.786 -2.6658 -1.5679  0.1689
 6717TIP3    H241567   5.289   5.032  11.652  1.2904 -1.4347  0.8706
 6718TIP3   OH241568   3.652   3.530  11.327 -0.1340  0.2116 -0.1254
 6718TIP3    H141569   3.567   3.515  11.367 -1.3414  0.8122 -2.3291
 6718TIP3    H241570   3.643   3.498  11.237  2.5612 -1.4377  0.0521
 6719TIP3   OH241571   3.000   1.748   2.827  0.2056 -0.2821  0.6566
 6719TIP3    H141572   2.961   1.805   2.893  1.4531  0.2874  0.9338
 6719TIP3    H241573   3.057   1.806   2.776  1.9492 -1.3597  1.2920
 6720TIP3   OH241574   0.927   1.685   6.174 -0.0213 -0.0329  0.0066
 6720TIP3    H141575   0.961   1.601   6.206  1.3501  0.2450 -0.6483
 6720TIP3    H241576   0.887   1.726   6.251 -0.3848 -1.1173  0.4173
 6721TIP3   OH241577   3.785   2.789   2.852 -0.8351  0.3762  0.6814
 6721TIP3    H141578   3.693   2.781   2.828 -1.0000  2.0634  0.6624
 6721TIP3    H241579   3.832   2.747   2.780 -1.6003 -2.4426  1.7004
 6722TIP3   OH241580   2.169   0.947  14.420  0.4655  0.5464 -0.0649
 6722TIP3    H141581   2.101   0.883  14.443  0.7141  0.0423 -0.7233
 6722TIP3    H241582   2.146   1.025  14.471  0.9268 -0.4785  1.8215
 6723TIP3   OH241583   4.815   4.444  12.589  0.5673 -0.2056 -0.3732
 6723TIP3    H141584   4.869   4.472  12.515  1.5788  1.7111  0.9900
 6723TIP3    H241585   4.867   4.467  12.666 -1.5000  0.1699  0.9838
 6724TIP3   OH241586   6.322   6.143   3.428  0.0184  0.8225 -0.1231
 6724TIP3    H141587   6.367   6.087   3.490  2.3464  2.2631 -0.4100
 6724TIP3    H241588   6.380   6.149   3.353 -0.7958  2.4552 -0.6903
 6725TIP3   OH241589   5.200   6.792  14.509 -0.0260 -0.6481  0.3248
 6725TIP3    H141590   5.216   6.865  14.450 -1.6791 -0.7636 -0.3334
 6725TIP3    H241591   5.126   6.821  14.563 -1.5345 -2.2324 -0.7543
 6726TIP3   OH241592   0.478   3.060   2.607  0.4833 -0.1502  0.1067
 6726TIP3    H141593   0.508   3.151   2.614 -1.9531  0.7221  0.0477
 6726TIP3    H241594   0.559   3.009   2.608  1.8945  1.9157  1.3361
 6727TIP3   OH241595   2.203   5.943   2.683  0.0064 -0.7112  0.6609
 6727TIP3    H141596   2.129   5.907   2.734  0.2757  2.0617  3.2698
 6727TIP3    H241597   2.162   5.984   2.607 -0.6318 -2.9358 -0.2882
 6728TIP3   OH241598   0.633   2.241  16.450 -0.0804  0.2233  0.6847
 6728TIP3    H141599   0.620   2.286  16.533  0.9082 -1.8450  2.0262
 6728TIP3    H241600   0.666   2.155  16.474  1.1700 -0.1138 -1.8885
 6729TIP3   OH241601   3.730   5.095   4.982 -0.5336  0.2080  0.1238
 6729TIP3    H141602   3.762   5.151   5.053 -0.4318 -0.5724  0.7071
 6729TIP3    H241603   3.757   5.007   5.007  0.1952  0.0068 -1.2716
 6730TIP3   OH241604   6.438   3.685   6.578  0.1605  0.3264  0.2753
 6730TIP3    H141605   6.349   3.651   6.563  1.0653 -2.1312 -0.0016
 6730TIP3    H241606   6.495   3.620   6.537  2.1929  0.6357  2.4257
 6731TIP3   OH241607   0.811   5.361  11.798 -0.0799 -0.4395  0.3359
 6731TIP3    H141608   0.840   5.397  11.882  1.0029  1.8934 -0.9369
 6731TIP3    H241609   0.719   5.340  11.811  0.2245 -0.7352  2.2700
 6732TIP3   OH241610   5.563   3.832  12.733  0.4075  0.2992  0.4240
 6732TIP3    H141611   5.625   3.900  12.708  0.7670  0.0080  0.5103
 6732TIP3    H241612   5.617   3.752  12.740  0.4881  0.5027  2.9664
 6733TIP3   OH241613   5.928   1.139  12.042  0.0403  0.3161 -0.6847
 6733TIP3    H141614   5.920   1.229  12.076  0.6535  0.2729 -0.4088
 6733TIP3    H241615   5.966   1.090  12.115 -1.4515 -0.4543 -0.3903
 6734TIP3   OH241616   2.312   3.968  13.058 -0.0861 -0.1003  0.6884
 6734TIP3    H141617   2.359   4.003  12.982 -1.9310 -1.7948 -1.3788
 6734TIP3    H241618   2.380   3.951  13.123  1.6457  0.9520 -0.7482
 6735TIP3   OH241619   1.400   2.754   5.065 -0.2189  0.8398  0.5079
 6735TIP3    H141620   1.311   2.773   5.094 -1.2210  2.7812 -3.1620
 6735TIP3    H241621   1.456   2.812   5.116 -1.2172  0.7556  1.7353
 6736TIP3   OH241622   2.267   6.191  11.112  0.2092  0.4255 -1.1197
 6736TIP3    H141623   2.267   6.197  11.016 -0.6203 -0.6384 -1.2120
 6736TIP3    H241624   2.248   6.099  11.130 -2.0549  1.0313  0.0436
 6737TIP3   OH241625   2.505   2.051   3.672 -0.0759 -0.2929  0.0008
 6737TIP3    H141626   2.437   2.089   3.616 -1.0068 -1.0711  0.5725
 6737TIP3    H241627   2.586   2.065   3.624 -0.7285 -0.0017 -1.0474
 6738TIP3   OH241628   1.251   1.935  13.942  0.0693 -0.0232  0.7054
 6738TIP3    H141629   1.218   1.905  14.027  2.4738  1.5725  2.3312
 6738TIP3    H241630   1.198   2.012  13.922 -1.5683 -1.2966 -0.1164
 6739TIP3   OH241631   3.977   2.162   5.966 -0.3426  0.1485  0.6406
 6739TIP3    H141632   4.000   2.254   5.952 -1.1745  0.5838  1.9613
 6739TIP3    H241633   3.913   2.142   5.898  1.2840 -0.0606 -0.8894
 6740TIP3   OH241634   0.132   3.115  13.624  0.0248  0.0602  0.0592
 6740TIP3    H141635   0.073   3.049  13.588  1.3722 -0.9699 -0.3137
 6740TIP3    H241636   0.091   3.141  13.707 -0.4603 -1.3260  0.2735
 6741TIP3   OH241637   5.173   3.918   2.865  0.2241  0.2467  0.4960
 6741TIP3    H141638   5.122   3.974   2.923 -1.9633  0.6547 -1.6738
 6741TIP3    H241639   5.158   3.829   2.898  0.1538  0.5804  1.3737
 6742TIP3   OH241640   0.147   4.451   1.923 -0.8482  0.0817  0.3036
 6742TIP3    H141641   0.094   4.497   1.859  1.8551  2.8710 -0.1597
 6742TIP3    H241642   0.158   4.513   1.995 -0.2936 -1.3622  1.5267
 6743TIP3   OH241643   3.778   1.572  14.383 -0.3491 -0.3626 -0.0264
 6743TIP3    H141644   3.733   1.601  14.463  0.2095  0.9610 -0.1759
 6743TIP3    H241645   3.712   1.578  14.314 -0.6412 -0.8604  0.2044
 6744TIP3   OH241646   3.011   3.788  15.813  0.0613  0.2582 -0.1924
 6744TIP3    H141647   3.017   3.700  15.849  2.7186 -0.0030 -1.0772
 6744TIP3    H241648   3.068   3.841  15.869 -0.2334  1.0712 -0.6407
 6745TIP3   OH241649   4.982   2.124   3.205 -0.1151 -0.4758 -0.1894
 6745TIP3    H141650   4.937   2.209   3.209 -0.6726 -0.8197  1.4288
 6745TIP3    H241651   5.055   2.132   3.267 -0.0272 -1.1061 -0.2029
 6746TIP3   OH241652   4.133   6.702   5.675  0.4630  0.3559  0.7318
 6746TIP3    H141653   4.197   6.772   5.665 -1.7671  2.6811  1.4801
 6746TIP3    H241654   4.096   6.692   5.587  1.5667 -0.7307  0.3781
 6747TIP3   OH241655   2.774   6.739   1.291 -0.2024  0.3924 -0.0104
 6747TIP3    H141656   2.766   6.762   1.384 -2.1010  0.0454 -0.0475
 6747TIP3    H241657   2.770   6.823   1.246  1.8887  0.6674  0.2390
 6748TIP3   OH241658   2.901   4.358  15.629  0.2922 -0.3879 -0.1064
 6748TIP3    H141659   2.940   4.296  15.691 -0.5912 -1.2265 -0.3697
 6748TIP3    H241660   2.881   4.306  15.552  0.7914  0.5210 -0.8781
 6749TIP3   OH241661   0.938   0.042  13.847 -0.2296 -0.1265 -0.2308
 6749TIP3    H141662   0.852   0.003  13.860 -0.2056 -0.0676  0.1101
 6749TIP3    H241663   0.999  -0.020  13.885 -0.1480 -0.0158 -0.1796
 6750TIP3   OH241664   0.299   6.138   5.804  0.1641 -0.0886 -0.0192
 6750TIP3    H141665   0.310   6.114   5.712 -0.4425 -2.4872  0.4659
 6750TIP3    H241666   0.204   6.150   5.815  0.3011  0.9473  0.1484
 6751TIP3   OH241667   3.003   6.172   2.797 -0.0741  0.4878 -0.1910
 6751TIP3    H141668   2.961   6.115   2.860 -0.8640  1.0562 -0.1872
 6751TIP3    H241669   3.093   6.140   2.791 -0.5054 -0.7570 -0.2151
 6752TIP3   OH241670   6.136   3.611   6.270  0.5171 -0.2477  0.2231
 6752TIP3    H141671   6.071   3.664   6.317 -0.0987  1.2337 -2.1296
 6752TIP3    H241672   6.093   3.526   6.258 -0.8648  0.5670 -0.9019
 6753TIP3   OH241673   4.714   4.941   1.894  0.1526 -0.1127 -0.4024
 6753TIP3    H141674   4.797   4.899   1.917 -1.0747 -1.0128  2.9559
 6753TIP3    H241675   4.725   5.033   1.918 -0.7146 -0.8216  3.2385
 6754TIP3   OH241676   6.180   6.160   2.112  0.4259 -0.8357  0.2310
 6754TIP3    H141677   6.115   6.128   2.049  1.1152 -3.0890  0.5739
 6754TIP3    H241678   6.263   6.121   2.082  0.9769 -0.9333  1.8101
 6755TIP3   OH241679   3.279   0.461   0.801 -0.1729  0.3802  0.3324
 6755TIP3    H141680   3.256   0.397   0.868  1.2860  0.9871  1.4832
 6755TIP3    H241681   3.261   0.546   0.842 -1.9327  0.7590 -1.1092
 6756TIP3   OH241682   5.614   0.926  16.953 -0.3915 -0.1522  0.0515
 6756TIP3    H141683   5.645   1.015  16.937 -0.1446 -0.3547 -0.6199
 6756TIP3    H241684   5.521   0.929  16.931 -0.6944  0.2493  1.2752
 6757TIP3   OH241685   6.047   0.441   0.165  0.1347 -0.2487 -0.4052
 6757TIP3    H141686   6.109   0.376   0.134  0.3961  0.2247 -0.8919
 6757TIP3    H241687   6.058   0.442   0.260  0.5172 -0.5176 -0.4470
 6758TIP3   OH241688   5.674   1.932  13.929  0.0936 -0.2476 -0.0370
 6758TIP3    H141689   5.637   1.938  14.017 -1.6182  1.2227 -0.7957
 6758TIP3    H241690   5.699   1.840  13.921 -0.9768 -0.7239  1.5037
 6759TIP3   OH241691   2.081   5.446   1.081  0.0709  0.6892 -0.0239
 6759TIP3    H141692   2.034   5.454   1.164 -0.7504 -0.1262 -0.4035
 6759TIP3    H241693   2.130   5.528   1.074 -0.5759  1.1638  0.8124
 6760TIP3   OH241694   1.146   5.244  10.534  0.3077 -0.2082  0.3208
 6760TIP3    H141695   1.067   5.197  10.558  0.3145 -0.0428  0.6661
 6760TIP3    H241696   1.215   5.177  10.536 -0.1262 -0.8084 -1.9082
 6761TIP3   OH241697   6.393   5.394   4.020  0.1392 -0.2210  0.1735
 6761TIP3    H141698   6.471   5.359   3.977  0.4856  1.1607 -0.3619
 6761TIP3    H241699   6.332   5.320   4.022  1.2097 -1.1401  0.0148
 6762TIP3   OH241700   3.089   3.704   4.380  0.4011  0.4771  0.7927
 6762TIP3    H141701   3.095   3.609   4.373  0.1738  0.5025  0.1600
 6762TIP3    H241702   3.015   3.719   4.439  0.0114  0.2601  0.3710
 6763TIP3   OH241703   3.115   1.563  12.075 -0.5013 -0.3048  0.3688
 6763TIP3    H141704   3.061   1.557  12.154  1.0741 -0.2785  1.4987
 6763TIP3    H241705   3.104   1.653  12.045  0.0985  0.1654  1.4917
 6764TIP3   OH241706   6.680   3.555   0.931  0.0422  0.2817  0.4360
 6764TIP3    H141707   6.641   3.518   0.852 -2.2839  1.3161  1.0267
 6764TIP3    H241708   6.614   3.541   0.999  0.1126  3.1805  1.2266
 6765TIP3   OH241709   0.369   1.617  11.126  0.0933  0.0256  0.2062
 6765TIP3    H141710   0.433   1.588  11.061 -0.2800 -0.9454  0.2582
 6765TIP3    H241711   0.413   1.688  11.172  0.4246  0.6406 -1.0018
 6766TIP3   OH241712   1.410   4.858  15.391  0.2337  0.0158 -0.4176
 6766TIP3    H141713   1.418   4.764  15.408 -0.4987 -0.3627 -1.9731
 6766TIP3    H241714   1.433   4.900  15.474  3.2599 -1.4208 -0.4129
 6767TIP3   OH241715   5.366   5.229  16.139 -0.7186 -0.1397  0.0983
 6767TIP3    H141716   5.301   5.220  16.069 -1.8265  2.2874  0.7104
 6767TIP3    H241717   5.435   5.285  16.101 -0.0159 -0.9628  0.1342
 6768TIP3   OH241718   5.334   3.159   0.093 -0.5402  0.1578 -0.0843
 6768TIP3    H141719   5.410   3.187   0.144 -0.7037  0.0816  0.1993
 6768TIP3    H241720   5.363   3.080   0.047 -0.4133  0.1926 -0.0638
 6769TIP3   OH241721   1.440   4.908  12.684  0.1440 -0.2181  0.1553
 6769TIP3    H141722   1.385   4.908  12.606  2.6728 -0.0132 -1.7601
 6769TIP3    H241723   1.398   4.845  12.742 -0.8053 -1.9272 -2.2015
 6770TIP3   OH241724   1.657   4.747   0.257  0.2020 -0.1967 -0.1740
 6770TIP3    H141725   1.565   4.726   0.269 -0.5939  2.4582 -1.0912
 6770TIP3    H241726   1.664   4.777   0.167  1.5565  1.4221  0.4166
 6771TIP3   OH241727   1.630   3.441  13.399 -0.2383  0.1082  0.2646
 6771TIP3    H141728   1.602   3.380  13.467  1.5270  0.3031  1.2502
 6771TIP3    H241729   1.558   3.503  13.390 -0.2368  0.5245  2.5452
 6772TIP3   OH241730   3.807   6.533   5.248  0.2558 -0.5796 -0.3859
 6772TIP3    H141731   3.735   6.574   5.199 -0.0757 -0.1242  0.4587
 6772TIP3    H241732   3.879   6.529   5.186  0.2869  1.2807 -0.5211
 6773TIP3   OH241733   4.298   6.752   5.283  0.3153 -0.4723 -0.3683
 6773TIP3    H141734   4.299   6.721   5.373  0.0402 -0.8388 -0.4902
 6773TIP3    H241735   4.218   6.803   5.275  0.8094  0.3418 -0.1457
 6774TIP3   OH241736   2.636   2.923  11.053 -0.2666 -0.1318 -0.0782
 6774TIP3    H141737   2.578   2.921  11.130  0.6094 -0.1643  0.5915
 6774TIP3    H241738   2.691   2.845  11.063 -0.6625 -0.5717 -1.1614
 6775TIP3   OH241739   1.890   4.616  14.221  0.1977  0.3235  0.4427
 6775TIP3    H141740   1.967   4.570  14.255  1.4981  2.6530  0.8337
 6775TIP3    H241741   1.896   4.605  14.126  1.9286  1.6980  0.3317
 6776TIP3   OH241742   0.610   1.575  13.941  0.4910  0.1321 -0.1403
 6776TIP3    H141743   0.647   1.663  13.946  1.8804 -0.3506 -1.2662
 6776TIP3    H241744   0.657   1.533  13.869  0.6199 -1.8744  1.0359
 6777TIP3   OH241745   4.023   1.964   3.203 -0.2340 -0.5009  0.0822
 6777TIP3    H141746   4.023   2.013   3.285  0.9720  0.1754 -0.2831
 6777TIP3    H241747   3.933   1.967   3.172 -0.1207  2.1091 -0.2441
 6778TIP3   OH241748   3.530   1.129  12.586 -0.3876 -0.3019  0.4384
 6778TIP3    H141749   3.439   1.159  12.577  0.2071  1.2278 -0.9964
 6778TIP3    H241750   3.549   1.140  12.679 -1.5692 -0.3158  0.6986
 6779TIP3   OH241751   1.961   1.600   1.908 -0.0002 -0.2506  0.2679
 6779TIP3    H141752   1.988   1.650   1.831 -0.5754 -1.7224 -0.9449
 6779TIP3    H241753   1.924   1.520   1.872 -0.1953 -1.0243  2.1045
 6780TIP3   OH241754   0.889   4.802   0.504  0.0744 -0.5220 -0.9125
 6780TIP3    H141755   0.892   4.805   0.409  0.7905  0.3571 -0.8744
 6780TIP3    H241756   0.962   4.744   0.529 -0.0826 -0.7132 -0.8962
 6781TIP3   OH241757   5.824   4.893  10.911 -0.3223 -0.0915 -0.2676
 6781TIP3    H141758   5.785   4.818  10.954 -0.4618  0.2823  0.2667
 6781TIP3    H241759   5.790   4.890  10.822 -0.9113 -0.2416 -0.0409
 6782TIP3   OH241760   3.529   3.734  12.810  0.0863 -0.1573 -0.2813
 6782TIP3    H141761   3.547   3.817  12.853 -0.3912  0.6690 -1.5996
 6782TIP3    H241762   3.557   3.748  12.719 -0.7584 -1.1620 -0.7178
 6783TIP3   OH241763   2.476   4.687  11.749  0.6443 -0.4073 -0.5303
 6783TIP3    H141764   2.533   4.618  11.783 -1.2704 -1.7446  0.1818
 6783TIP3    H241765   2.442   4.651  11.667 -1.2842 -0.9354  0.4172
 6784TIP3   OH241766   5.357   3.826   0.665  0.4720 -0.5127 -0.0251
 6784TIP3    H141767   5.430   3.844   0.725 -1.3259  0.8907  1.8739
 6784TIP3    H241768   5.339   3.910   0.624  0.7248 -1.1486 -1.4897
 6785TIP3   OH241769   3.810   0.230   5.051  0.0394  0.4115  0.1927
 6785TIP3    H141770   3.759   0.170   4.996  0.8445 -0.6657  0.6051
 6785TIP3    H241771   3.784   0.209   5.140  1.1610 -0.1124  0.4033
 6786TIP3   OH241772   1.213   6.719  12.004 -0.4205  0.1236  0.0343
 6786TIP3    H141773   1.140   6.686  12.056  0.5937 -1.2173  0.6700
 6786TIP3    H241774   1.288   6.666  12.031  0.4765  0.4286 -1.6784
 6787TIP3   OH241775   0.920   1.183  13.400  0.2546 -0.0389 -0.3935
 6787TIP3    H141776   0.861   1.142  13.463  0.3762 -1.6603 -1.2785
 6787TIP3    H241777   0.975   1.241  13.453 -1.2497  0.5141  0.6231
 6788TIP3   OH241778   2.913   4.920  15.484 -0.2698 -0.1904  0.5372
 6788TIP3    H141779   2.857   4.872  15.424 -0.9532 -1.9499  2.4655
 6788TIP3    H241780   2.889   4.887  15.571  1.5740  1.2792  1.6794
 6789TIP3   OH241781   3.102   4.363  15.915  0.1925 -0.1175 -0.0661
 6789TIP3    H141782   3.045   4.404  15.980 -1.4281  1.9143 -2.5705
 6789TIP3    H241783   3.190   4.396  15.937  0.0808 -1.2045  2.2899
 6790TIP3   OH241784   5.296   0.111   0.650 -0.1272 -0.0930 -0.1930
 6790TIP3    H141785   5.323   0.122   0.741 -1.1712 -0.7779  0.2250
 6790TIP3    H241786   5.217   0.164   0.642 -0.4333 -0.5860 -0.4952
 6791TIP3   OH241787   1.967   3.830   0.117 -0.5575 -0.2905  0.1028
 6791TIP3    H141788   1.899   3.778   0.073 -1.0182 -0.0234  0.4796
 6791TIP3    H241789   2.047   3.780   0.105 -1.1076 -1.4678  1.0620
 6792TIP3   OH241790   5.893   2.297  11.478  0.0340 -0.0945  0.2574
 6792TIP3    H141791   5.980   2.257  11.480  0.7996  1.5160  1.7553
 6792TIP3    H241792   5.857   2.282  11.565 -0.4202  0.8324  0.2423
 6793TIP3   OH241793   3.002   4.926   5.491 -0.2143  0.2073  0.3125
 6793TIP3    H141794   2.909   4.938   5.473 -0.0870  0.4612 -0.2101
 6793TIP3    H241795   3.046   4.971   5.419  0.3175  0.6510  0.9068
 6794TIP3   OH241796   4.331   3.538  14.199 -1.1688  0.3444  0.4119
 6794TIP3    H141797   4.277   3.524  14.121  0.3833 -0.5292 -0.5394
 6794TIP3    H241798   4.329   3.633  14.212  0.0277  0.7395 -1.8121
 6795TIP3   OH241799   2.496   6.249  14.958 -0.4227 -0.6831 -0.1953
 6795TIP3    H141800   2.539   6.202  15.029 -0.6431  0.3399  0.6424
 6795TIP3    H241801   2.530   6.209  14.878  1.2030 -0.6653  0.4542
 6796TIP3   OH241802   3.331   3.873   0.532 -0.5010  0.2915  0.6282
 6796TIP3    H141803   3.277   3.797   0.509 -1.2407  1.0696 -0.2958
 6796TIP3    H241804   3.295   3.903   0.615 -1.4690  0.7516  0.0602
 6797TIP3   OH241805   3.929   0.426  11.219  0.0464 -0.0452  0.5455
 6797TIP3    H141806   3.859   0.366  11.246 -2.7300  2.2520 -0.8645
 6797TIP3    H241807   3.928   0.495  11.286  2.1604 -0.7634  1.3723
 6798TIP3   OH241808   1.192   0.684  16.076  0.8747  0.2713  0.0083
 6798TIP3    H141809   1.101   0.680  16.049  1.4754 -1.2088 -2.0363
 6798TIP3    H241810   1.196   0.633  16.157  0.1796 -1.2952 -0.9044
 6799TIP3   OH241811   6.664   3.191  16.404 -0.4207 -0.1743 -0.2579
 6799TIP3    H141812   6.640   3.267  16.457 -0.6039 -0.1124 -0.4273
 6799TIP3    H241813   6.754   3.171  16.429 -0.0614  0.6495 -0.8496
 6800TIP3   OH241814   2.543   4.027   1.100  0.8130 -0.9544 -0.2871
 6800TIP3    H141815   2.613   4.093   1.095  0.6638 -0.4449  2.7991
 6800TIP3    H241816   2.572   3.965   1.166 -0.7193 -1.9564 -0.4944
 6801TIP3   OH241817   2.611   2.087  16.936 -0.4935  0.8116 -0.0928
 6801TIP3    H141818   2.704   2.071  16.956 -0.4386  1.4492  0.1658
 6801TIP3    H241819   2.576   2.125  17.016 -1.0339  0.3863 -0.1230
 6802TIP3   OH241820   4.374   0.727   1.538  0.4879  0.2292 -0.3076
 6802TIP3    H141821   4.409   0.692   1.456  2.7701  1.2274  0.1575
 6802TIP3    H241822   4.409   0.668   1.605  1.4962  1.3390  0.1822
 6803TIP3   OH241823   6.148   5.374   3.788  0.5835  0.3807 -0.8136
 6803TIP3    H141824   6.187   5.441   3.846  1.3542 -0.4283 -0.3685
 6803TIP3    H241825   6.085   5.328   3.843 -0.4212  1.1376 -1.3009
 6804TIP3   OH241826   3.254   3.633  13.505  0.3904 -0.2464  1.0770
 6804TIP3    H141827   3.187   3.701  13.494  0.7059 -0.0389  0.3126
 6804TIP3    H241828   3.211   3.564  13.554 -0.8349 -0.7254 -0.5861
 6805TIP3   OH241829   2.218   1.318  11.258 -0.3775 -0.2168 -0.2000
 6805TIP3    H141830   2.194   1.301  11.167  1.2673 -1.3743 -0.4733
 6805TIP3    H241831   2.277   1.246  11.281 -1.4752 -0.4557  2.1004
 6806TIP3   OH241832   0.057   3.514  16.310  0.3184 -0.8357  0.0274
 6806TIP3    H141833  -0.038   3.522  16.300  0.1820 -0.3472  1.4858
 6806TIP3    H241834   0.089   3.604  16.312  0.7913 -0.9951 -0.2307
 6807TIP3   OH241835   3.273   5.196  16.019 -0.1425 -0.1661  0.6780
 6807TIP3    H141836   3.215   5.252  16.071  0.5195  0.5877  0.6280
 6807TIP3    H241837   3.220   5.167  15.945 -0.0984  1.6028 -0.0984
 6808TIP3   OH241838   5.136   2.897   2.860 -0.5240 -0.2376 -0.0305
 6808TIP3    H141839   5.085   2.933   2.787 -1.0928  0.6855  0.7868
 6808TIP3    H241840   5.196   2.835   2.820 -3.7735 -3.1410 -0.8412
 6809TIP3   OH241841   0.910   0.691  16.803 -0.3814  0.5289 -0.9179
 6809TIP3    H141842   0.824   0.678  16.843  0.0204  0.9174  0.1142
 6809TIP3    H241843   0.933   0.781  16.826  0.2188  0.4860 -1.3439
 6810TIP3   OH241844   0.860   6.740   1.745 -0.1042 -0.4366 -0.4194
 6810TIP3    H141845   0.780   6.788   1.768 -0.1841 -0.2869 -1.0057
 6810TIP3    H241846   0.831   6.649   1.736 -0.2106 -0.3810 -0.6401
 6811TIP3   OH241847   4.115   5.643  12.146 -0.6025 -0.3237 -0.3350
 6811TIP3    H141848   4.183   5.590  12.104 -0.5972 -1.7084  1.3196
 6811TIP3    H241849   4.036   5.588  12.140 -1.0663  0.3266 -0.2920
 6812TIP3   OH241850   5.179   5.883  14.675  0.9991 -0.1922  0.4215
 6812TIP3    H141851   5.141   5.910  14.592 -1.6072 -1.3854  1.1000
 6812TIP3    H241852   5.145   5.946  14.739  0.0253 -1.3033  1.0548
 6813TIP3   OH241853   0.103   0.303  16.848  0.0215  0.6787 -0.7939
 6813TIP3    H141854   0.179   0.357  16.824  1.0299 -0.8169 -1.1279
 6813TIP3    H241855   0.107   0.296  16.943  1.9153 -1.5360 -0.9544
 6814TIP3   OH241856   2.771   6.397  11.320  0.2963  0.6803 -0.5593
 6814TIP3    H141857   2.767   6.483  11.280 -0.8596  0.2005 -1.5181
 6814TIP3    H241858   2.708   6.344  11.271 -1.6186  0.1844  2.2184
 6815TIP3   OH241859   5.845   1.145  16.927 -0.4742 -0.5982  0.0336
 6815TIP3    H141860   5.877   1.140  17.017 -0.0945 -1.1729 -0.1195
 6815TIP3    H241861   5.753   1.169  16.934 -0.2520  0.1227  0.5372
 6816TIP3   OH241862   2.814   6.682   5.778  0.4500 -0.5697 -0.7362
 6816TIP3    H141863   2.858   6.731   5.847  0.7367 -0.2226 -1.1586
 6816TIP3    H241864   2.763   6.748   5.731  0.7810 -0.6845 -1.2633
 6817TIP3   OH241865   3.594   5.034  11.416  0.2144 -0.0516  0.3593
 6817TIP3    H141866   3.560   5.092  11.348 -2.0379 -0.7986  0.7387
 6817TIP3    H241867   3.622   5.092  11.486 -0.1989  0.6299 -0.0314
 6818TIP3   OH241868   6.631   5.476   0.967 -0.0063 -0.2483 -1.0416
 6818TIP3    H141869   6.654   5.394   0.923 -0.0074 -0.9829  0.2748
 6818TIP3    H241870   6.565   5.451   1.031  0.8556  0.5637  0.2017
 6819TIP3   OH241871   5.204   0.840  16.183  0.7577 -0.1411 -0.3884
 6819TIP3    H141872   5.223   0.747  16.197  1.8529  0.2449  0.9264
 6819TIP3    H241873   5.283   0.874  16.140  0.4207  0.2189 -0.7338
 6820TIP3   OH241874   2.343   1.528  15.673 -0.6987  0.7253 -0.5216
 6820TIP3    H141875   2.254   1.494  15.675 -0.2502 -0.5455 -0.9733
 6820TIP3    H241876   2.334   1.619  15.645 -2.0654  1.4639  2.0626
 6821TIP3   OH241877   6.443   1.011  15.346 -0.0880  0.2416  0.0002
 6821TIP3    H141878   6.452   1.000  15.252  3.1134 -1.4177  0.3678
 6821TIP3    H241879   6.394   0.934  15.374  0.0683  0.0693 -0.1939
 6822TIP3   OH241880   4.791   3.032   5.483  0.0063 -0.0808  0.2038
 6822TIP3    H141881   4.803   3.079   5.401  1.1745 -0.2562  0.2540
 6822TIP3    H241882   4.852   3.074   5.544 -1.1184  0.3041  1.1099
 6823TIP3   OH241883   4.951   6.401   0.936  0.2930 -0.1231  0.2829
 6823TIP3    H141884   4.941   6.381   0.843 -1.7392 -0.9776  0.6301
 6823TIP3    H241885   4.873   6.450   0.959  1.3189  1.1161  1.3233
 6824TIP3   OH241886   2.616   3.136  14.779  0.4607 -0.6533  0.1880
 6824TIP3    H141887   2.586   3.048  14.757 -0.5056 -0.3954  0.4383
 6824TIP3    H241888   2.602   3.186  14.698 -1.8867 -0.0154  0.9017
 6825TIP3   OH241889   3.485   5.641   1.310  0.0363 -0.1179 -0.1138
 6825TIP3    H141890   3.414   5.577   1.312  0.3298 -0.6207  4.4689
 6825TIP3    H241891   3.448   5.719   1.350  1.4879  0.3230  0.4406
 6826TIP3   OH241892   2.644   6.224   3.041 -0.0711  0.9542  0.2142
 6826TIP3    H141893   2.721   6.214   3.096  0.4131  2.7428 -0.0746
 6826TIP3    H241894   2.601   6.138   3.043  2.3587 -0.3552 -0.3275
 6827TIP3   OH241895   2.312   5.162  11.950  0.0849 -0.3934  0.0538
 6827TIP3    H141896   2.236   5.174  11.894 -0.3037  0.2774  0.7107
 6827TIP3    H241897   2.373   5.231  11.923 -0.1121 -0.0541  0.4530
 6828TIP3   OH241898   4.647   4.756  16.846 -0.4291  0.1889 -0.2111
 6828TIP3    H141899   4.624   4.844  16.817  0.6237  0.2792 -0.8066
 6828TIP3    H241900   4.734   4.766  16.886 -0.5446 -0.4830  0.2188
 6829TIP3   OH241901   0.527   4.790   6.473 -0.5559 -0.3127 -0.5114
 6829TIP3    H141902   0.528   4.873   6.425 -0.9282 -0.0439 -0.0621
 6829TIP3    H241903   0.608   4.790   6.524 -1.3782  0.5730  0.8234
 6830TIP3   OH241904   4.861   3.561   5.185 -0.0922  0.1947  0.3697
 6830TIP3    H141905   4.860   3.543   5.091 -0.0672  1.1705  0.1664
 6830TIP3    H241906   4.770   3.556   5.212 -0.0586 -0.4800  0.3834
 6831TIP3   OH241907   3.950   1.862  13.719 -0.4340 -0.1753  0.0923
 6831TIP3    H141908   4.033   1.842  13.675 -0.4199  0.4027 -0.1512
 6831TIP3    H241909   3.904   1.919  13.658 -0.6341  0.2263  0.6182
 6832TIP3   OH241910   4.270   2.454  12.839 -0.3037  0.3994  0.1173
 6832TIP3    H141911   4.296   2.505  12.762 -0.5353 -0.2116 -0.3765
 6832TIP3    H241912   4.332   2.480  12.907 -1.0616  2.1529  0.2157
 6833TIP3   OH241913   5.388   2.965  14.085  0.2160 -0.4482 -0.0948
 6833TIP3    H141914   5.378   2.917  14.167 -1.9080 -2.6584 -1.5232
 6833TIP3    H241915   5.358   2.904  14.017  0.9842  1.6189 -2.4457
 6834TIP3   OH241916   2.216   6.164   1.388  0.4566  0.2961 -0.4739
 6834TIP3    H141917   2.256   6.195   1.307 -0.0836 -0.2036 -0.9481
 6834TIP3    H241918   2.153   6.098   1.360  0.0384  0.3324  0.3324
 6835TIP3   OH241919   2.481   6.793  10.620 -0.5518  0.0810  0.5262
 6835TIP3    H141920   2.565   6.830  10.650 -1.0851  1.8650 -0.0186
 6835TIP3    H241921   2.450   6.856  10.555 -2.7410 -0.0868  1.3299
 6836TIP3   OH241922   4.830   3.723   2.975  0.2837 -0.2344  0.4734
 6836TIP3    H141923   4.842   3.793   2.911 -0.7502  0.0442  0.5630
 6836TIP3    H241924   4.770   3.761   3.040 -0.5461 -1.2964  0.3533
 6837TIP3   OH241925   6.602   6.554   2.913 -0.2430  0.1158 -0.3822
 6837TIP3    H141926   6.548   6.501   2.855 -0.9916  0.6309 -0.1751
 6837TIP3    H241927   6.647   6.491   2.969 -0.1933 -0.3441 -0.9329
 6838TIP3   OH241928   0.302   6.502   6.098  0.4600 -0.1252  0.1517
 6838TIP3    H141929   0.291   6.411   6.123  0.4633 -0.0059  0.5862
 6838TIP3    H241930   0.394   6.522   6.116  0.9488 -0.5482 -1.6281
 6839TIP3   OH241931   2.819   3.646   2.419 -0.6114  0.5402  0.2775
 6839TIP3    H141932   2.744   3.597   2.453 -0.8576  1.3334  0.9189
 6839TIP3    H241933   2.895   3.594   2.445 -0.9659 -1.2101 -1.9223
 6840TIP3   OH241934   6.122   5.431  14.285  0.1620 -0.0981  0.4613
 6840TIP3    H141935   6.166   5.505  14.327 -3.1543  2.9174 -0.7545
 6840TIP3    H241936   6.101   5.371  14.357  1.3039  1.0699  1.8352
 6841TIP3   OH241937   2.888   1.770   1.848  0.2329  0.3155  0.3845
 6841TIP3    H141938   2.813   1.723   1.813  0.7184 -0.9955  1.0015
 6841TIP3    H241939   2.855   1.856   1.872 -1.2630 -0.4951  1.3677
 6842TIP3   OH241940   1.774   4.014  14.862 -0.5508 -0.1539  0.0321
 6842TIP3    H141941   1.792   3.930  14.819  0.7397 -0.4211  1.0333
 6842TIP3    H241942   1.799   4.080  14.797  2.4217 -0.5344  0.6597
 6843TIP3   OH241943   0.125   5.407   2.285  0.0167  0.1761 -0.0148
 6843TIP3    H141944   0.199   5.356   2.319  1.1481  1.6925 -0.0866
 6843TIP3    H241945   0.104   5.468   2.356 -1.7561 -0.7957  0.3313
 6844TIP3   OH241946   6.794   6.652   4.422  0.3677 -0.1182 -0.4989
 6844TIP3    H141947   6.834   6.683   4.340 -0.6284  2.2583 -0.1548
 6844TIP3    H241948   6.717   6.707   4.433  0.2579 -0.6612  1.8474
 6845TIP3   OH241949   3.228   3.635  13.061 -0.4363  0.4597 -0.0306
 6845TIP3    H141950   3.133   3.644  13.051 -0.2045  1.4300 -2.0034
 6845TIP3    H241951   3.258   3.609  12.973  1.3407  2.5016 -0.1024
 6846TIP3   OH241952   1.897   4.520  13.003  1.0155 -0.1069 -0.2798
 6846TIP3    H141953   1.922   4.533  12.911  1.0165 -2.2322 -0.6463
 6846TIP3    H241954   1.853   4.435  13.003 -1.0319  0.8892  1.3434
 6847TIP3   OH241955   2.508   0.703   1.858  0.3495  0.1844 -0.3790
 6847TIP3    H141956   2.473   0.637   1.798  2.4279 -0.8005 -0.6019
 6847TIP3    H241957   2.545   0.652   1.931 -3.1460  1.3416  2.5367
 6848TIP3   OH241958   5.718   3.143  16.105  0.0342  0.3573  0.1460
 6848TIP3    H141959   5.791   3.168  16.161  0.4587 -1.0815  0.2740
 6848TIP3    H241960   5.646   3.124  16.167  0.2231 -0.3223  0.1710
 6849TIP3   OH241961   2.542   4.645  13.339 -0.1703  0.3407 -0.3110
 6849TIP3    H141962   2.453   4.610  13.337  0.3983 -1.1665 -1.8825
 6849TIP3    H241963   2.536   4.726  13.288 -0.6499  0.2918 -0.3381
 6850TIP3   OH241964   5.783   1.215   5.056  0.2016  0.3794  0.3895
 6850TIP3    H141965   5.876   1.238   5.057  0.2706  0.3198  2.9318
 6850TIP3    H241966   5.779   1.130   5.012  1.2102  0.8294 -0.6053
 6851TIP3   OH241967   1.486   2.159   1.316 -0.4161  0.2212 -0.1511
 6851TIP3    H141968   1.568   2.130   1.276 -0.0814  2.2210 -1.0168
 6851TIP3    H241969   1.418   2.130   1.255 -0.4738 -1.9407  0.8455
 6852TIP3   OH241970   3.391   2.241  13.327 -0.1534 -0.3612 -0.2456
 6852TIP3    H141971   3.349   2.324  13.305 -2.0103 -1.0891  0.3125
 6852TIP3    H241972   3.437   2.258  13.409 -1.6046 -0.1740  0.5605
 6853TIP3   OH241973   4.785   3.992  13.697  0.2293 -0.6768  1.0042
 6853TIP3    H141974   4.822   4.080  13.704 -0.5956 -0.3259  1.0543
 6853TIP3    H241975   4.733   3.995  13.617  0.2182 -1.1367  0.9935
 6854TIP3   OH241976   3.020   1.251   5.036  0.9489 -0.3135 -0.0143
 6854TIP3    H141977   3.013   1.165   4.995 -0.0192 -0.2784  0.0687
 6854TIP3    H241978   3.113   1.274   5.026  1.0644 -1.0279 -0.7078
 6855TIP3   OH241979   5.024   0.422  11.929  0.4839  0.1101 -0.2611
 6855TIP3    H141980   5.112   0.455  11.911 -0.9302  3.1347 -2.5522
 6855TIP3    H241981   4.993   0.474  12.004 -0.1899  0.8561 -1.0409
 6856TIP3   OH241982   6.004   5.003   4.325  0.0647 -0.2024  0.7436
 6856TIP3    H141983   5.950   5.044   4.258 -2.0443 -2.3068  1.0169
 6856TIP3    H241984   6.022   5.072   4.389 -0.8518  0.9572 -0.2269
 6857TIP3   OH241985   0.865   1.543  12.560  0.3823 -0.2292 -0.0521
 6857TIP3    H141986   0.896   1.468  12.610  1.8799  1.1982  1.3088
 6857TIP3    H241987   0.854   1.613  12.625  0.3025  1.0949 -1.4173
 6858TIP3   OH241988   5.040   2.225  10.630  0.1680  0.0719  0.2821
 6858TIP3    H141989   5.028   2.133  10.654 -0.9919  0.2388  0.3867
 6858TIP3    H241990   4.979   2.273  10.685  1.8427  1.0984  1.3455
 6859TIP3   OH241991   0.643   4.589   4.648  0.1401 -0.1256  0.5899
 6859TIP3    H141992   0.587   4.632   4.582  0.3203 -0.1926  0.3944
 6859TIP3    H241993   0.646   4.498   4.621  2.6514  0.3422 -1.0580
 6860TIP3   OH241994   1.707   5.912   3.473 -0.3396 -0.0672 -0.0253
 6860TIP3    H141995   1.711   5.886   3.565 -1.8525 -0.5068 -0.0628
 6860TIP3    H241996   1.787   5.964   3.460  1.4834 -2.5080  0.7164
 6861TIP3   OH241997   1.825   1.848   6.044 -0.0661 -0.2196 -0.3812
 6861TIP3    H141998   1.730   1.862   6.040  0.2076  1.8594 -0.5795
 6861TIP3    H241999   1.834   1.754   6.062 -2.1452 -0.5108 -0.5646
 6862TIP3   OH242000   5.077   0.370  16.207 -0.2486 -0.3778 -0.3005
 6862TIP3    H142001   5.103   0.342  16.295 -0.1259 -0.1430 -0.2613
 6862TIP3    H242002   5.109   0.301  16.149 -0.9775 -0.9076 -0.0897
 6863TIP3   OH242003   3.881   3.358   2.667  0.0601  0.5094 -0.5973
 6863TIP3    H142004   3.798   3.380   2.623 -1.0320 -0.1874  1.0069
 6863TIP3    H242005   3.868   3.269   2.699  1.1446  0.6809  0.3770
 6864TIP3   OH242006   1.332   3.691  14.807  0.4007  0.0285  0.3127
 6864TIP3    H142007   1.246   3.652  14.821  1.0975 -1.7533 -0.0726
 6864TIP3    H242008   1.345   3.748  14.883 -0.3240 -1.1565  1.3651
 6865TIP3   OH242009   2.792   1.003   1.001 -0.1340  0.4611  0.2976
 6865TIP3    H142010   2.705   0.965   1.013 -0.5397  1.3650  0.3366
 6865TIP3    H242011   2.834   0.994   1.086 -0.3720  0.4410  0.4141
 6866TIP3   OH242012   0.882   3.009   1.522  0.4567 -0.0779 -0.0249
 6866TIP3    H142013   0.832   2.958   1.458 -0.4350  0.2685  0.3760
 6866TIP3    H242014   0.886   3.097   1.484  0.5445 -0.0428  0.0665
 6867TIP3   OH242015   6.616   3.797  15.424 -0.1853 -0.6062 -0.2846
 6867TIP3    H142016   6.593   3.837  15.508  0.7252  2.1441 -1.2335
 6867TIP3    H242017   6.532   3.771  15.387 -1.3329  3.1618 -0.7911
 6868TIP3   OH242018   6.783   2.557  16.067 -0.0320 -0.0853  0.3874
 6868TIP3    H142019   6.802   2.464  16.055 -1.8739 -0.2495 -2.1420
 6868TIP3    H242020   6.718   2.560  16.137 -0.6817 -0.8171 -0.1728
 6869TIP3   OH242021   3.685   5.030  15.582 -0.2053  0.2737  0.7689
 6869TIP3    H142022   3.689   5.004  15.490 -0.2944 -1.1659  1.1558
 6869TIP3    H242023   3.633   5.110  15.582 -0.2093  0.2853 -0.4242
 6870TIP3   OH242024   2.060   0.704  11.295  0.2845 -0.0454  0.3549
 6870TIP3    H142025   2.065   0.771  11.226 -0.0610 -0.5525 -0.1686
 6870TIP3    H242026   1.969   0.674  11.293 -0.5366  1.8913  2.9157
 6871TIP3   OH242027   1.720   1.145   5.551  0.1800 -0.2375 -0.0501
 6871TIP3    H142028   1.673   1.202   5.490  1.1889  0.6695 -0.0134
 6871TIP3    H242029   1.656   1.124   5.619 -0.2004  0.9050 -0.0325
 6872TIP3   OH242030   2.958   5.120  16.030 -0.0711 -0.1025  0.0823
 6872TIP3    H142031   2.988   5.115  15.939 -0.8079  0.9849 -0.2459
 6872TIP3    H242032   3.016   5.183  16.072 -1.4810  1.6436 -0.4339
 6873TIP3   OH242033   3.902   3.273  16.902  0.0891  0.0493 -0.4950
 6873TIP3    H142034   3.885   3.360  16.937 -1.0862  0.0693 -1.0741
 6873TIP3    H242035   3.849   3.215  16.957  0.7490 -0.3074 -0.2084
 6874TIP3   OH242036   3.133   4.858  14.770 -0.5465 -0.0774 -0.4021
 6874TIP3    H142037   3.126   4.779  14.717  0.3434  0.2432 -1.0393
 6874TIP3    H242038   3.196   4.835  14.838 -1.8701 -0.5655  0.6963
 6875TIP3   OH242039   1.022   2.582   6.034 -0.1245  0.1952  0.5279
 6875TIP3    H142040   1.068   2.646   6.088  1.0704  0.4933 -0.7799
 6875TIP3    H242041   1.063   2.498   6.055  2.0036  0.6153 -1.5092
 6876TIP3   OH242042   5.301   0.568  16.823 -0.1333  0.0930  0.2520
 6876TIP3    H142043   5.297   0.546  16.729  1.5092 -2.9802  0.7727
 6876TIP3    H242044   5.386   0.609  16.834 -0.3090  0.4118  0.4272
 6877TIP3   OH242045   5.239   1.607  12.299 -0.5379  0.0522 -0.2115
 6877TIP3    H142046   5.203   1.678  12.352 -1.5541 -0.6306  0.0401
 6877TIP3    H242047   5.309   1.648  12.248  0.7436  0.6733  1.9051
 6878TIP3   OH242048   6.592   5.236   4.856 -0.0882  0.1970  0.2256
 6878TIP3    H142049   6.580   5.309   4.917 -0.4611 -0.4979  0.9977
 6878TIP3    H242050   6.510   5.188   4.860  0.0087 -0.0486 -0.5794
 6879TIP3   OH242051   6.613   5.146  15.615  0.1971  0.1311  0.4810
 6879TIP3    H142052   6.624   5.078  15.548 -0.1379 -0.0019  0.5560
 6879TIP3    H242053   6.652   5.107  15.694  0.3200  0.1660  0.4376
 6880TIP3   OH242054   6.661   3.851   0.997 -0.1681  0.0536 -0.1535
 6880TIP3    H142055   6.675   3.759   0.973 -0.4116  0.2424 -1.0492
 6880TIP3    H242056   6.571   3.869   0.969  0.2658  0.8866 -1.0482
 6881TIP3   OH242057   5.133   0.202  12.892  0.7429 -0.0854  0.4819
 6881TIP3    H142058   5.112   0.270  12.828  0.0752  1.2585  2.0637
 6881TIP3    H242059   5.148   0.249  12.974  0.9783 -1.7884  1.4750
 6882TIP3   OH242060   1.350   2.277   0.383  0.5619 -0.2400  0.5823
 6882TIP3    H142061   1.267   2.307   0.346  0.4477  1.2726  1.9638
 6882TIP3    H242062   1.349   2.306   0.474  3.1590  1.0584  0.3071
 6883TIP3   OH242063   1.800   3.937  10.760  0.2547  0.0527 -0.1573
 6883TIP3    H142064   1.746   3.904  10.688 -1.2780  1.9022  0.0599
 6883TIP3    H242065   1.885   3.955  10.720  0.1071 -0.9871 -0.9881
 6884TIP3   OH242066   2.934   6.668  14.090  0.0853  0.2579 -0.4078
 6884TIP3    H142067   2.883   6.671  14.172  0.9397 -0.8710  0.1891
 6884TIP3    H242068   2.998   6.739  14.100  0.3789 -0.0660  0.0386
 6885TIP3   OH242069   1.154   0.957  14.829 -0.1203  0.2385  0.8787
 6885TIP3    H142070   1.213   0.991  14.897 -0.6854  2.2680  0.4163
 6885TIP3    H242071   1.158   1.022  14.759 -1.6496 -0.4188  0.1430
 6886TIP3   OH242072   4.024   1.519   3.282 -0.4865  0.0265 -0.6830
 6886TIP3    H142073   4.081   1.570   3.223  0.6643  0.1603  0.5055
 6886TIP3    H242074   4.057   1.538   3.369 -1.6996 -0.7585 -0.0328
 6887TIP3   OH242075   5.578   3.647  10.487  0.1694  0.3357  0.4778
 6887TIP3    H142076   5.489   3.666  10.457  0.5857  1.8098  0.0611
 6887TIP3    H242077   5.578   3.553  10.505 -0.9376 -0.0759 -1.3745
 6888TIP3   OH242078   3.029   1.844  16.418  0.8499  0.2240 -0.0878
 6888TIP3    H142079   3.042   1.845  16.324 -1.1721  0.8680 -0.4203
 6888TIP3    H242080   2.939   1.815  16.430  0.9226  0.5486  1.6226
 6889TIP3   OH242081   3.773   1.442   3.671  0.2871  0.2900 -0.0303
 6889TIP3    H142082   3.740   1.515   3.723  0.2637  0.3967 -0.1938
 6889TIP3    H242083   3.699   1.383   3.663  0.3145  0.2347  0.1275
 6890TIP3   OH242084   1.474   0.264   2.775 -0.1760 -0.2795  0.6425
 6890TIP3    H142085   1.434   0.299   2.855  0.2418 -1.5319  1.4344
 6890TIP3    H242086   1.400   0.244   2.718 -0.4238  1.7860  0.1883
 6891TIP3   OH242087   4.169   5.470   1.740 -0.0155  0.2047  0.4336
 6891TIP3    H142088   4.223   5.540   1.775  0.8994  1.1616 -2.6057
 6891TIP3    H242089   4.146   5.417   1.816  2.7669  1.4071  2.2535
 6892TIP3   OH242090   4.922   2.312   0.821  0.2278  0.1623 -0.5082
 6892TIP3    H142091   4.930   2.278   0.732  2.5786  1.9673 -1.1274
 6892TIP3    H242092   4.989   2.265   0.871  1.2368  1.4378 -0.5864
 6893TIP3   OH242093   1.621   2.265  15.394 -0.0891  0.0480 -0.3002
 6893TIP3    H142094   1.660   2.352  15.399  1.0321 -0.4534 -0.1103
 6893TIP3    H242095   1.598   2.244  15.484  0.4702 -0.2192 -0.2181
 6894TIP3   OH242096   5.898   4.869   5.637 -0.2156 -0.2341  0.0466
 6894TIP3    H142097   5.914   4.822   5.555 -0.0047  0.4165 -0.2936
 6894TIP3    H242098   5.933   4.811   5.705 -2.5011 -1.8800 -0.0536
 6895TIP3   OH242099   1.705   1.623   2.444 -0.4704 -0.4102 -0.0124
 6895TIP3    H142100   1.785   1.674   2.434 -0.9483  0.4317  0.3810
 6895TIP3    H242101   1.733   1.542   2.487  0.2382 -0.3254 -0.3056
 6896TIP3   OH242102   3.135   4.841  13.193 -1.0683 -0.0287 -0.0954
 6896TIP3    H142103   3.071   4.811  13.256  1.1525 -0.3968  2.1314
 6896TIP3    H242104   3.207   4.779  13.200  0.0010  0.9538 -1.7209
 6897TIP3   OH242105   1.147   1.247  12.212  0.7170 -0.0619 -0.0259
 6897TIP3    H142106   1.206   1.172  12.211 -0.8268 -1.3424 -0.3539
 6897TIP3    H242107   1.154   1.283  12.300 -0.3026 -2.1396  0.9785
 6898TIP3   OH242108   5.790   3.106   0.448  0.2938 -0.1476 -0.0023
 6898TIP3    H142109   5.772   3.180   0.506  1.6624  1.0553 -1.0301
 6898TIP3    H242110   5.791   3.030   0.505 -1.3886  0.5690  1.0560
 6899TIP3   OH242111   3.441   1.545   0.182  0.0907  0.0509 -0.5137
 6899TIP3    H142112   3.387   1.542   0.261  0.9566 -3.8982  0.1403
 6899TIP3    H242113   3.503   1.616   0.198 -2.3199  2.1267  0.3903
 6900TIP3   OH242114   3.066   1.393  16.969  0.1599  0.3150  0.1967
 6900TIP3    H142115   3.081   1.299  16.972 -0.6419  0.1868  0.4735
 6900TIP3    H242116   2.971   1.402  16.978  0.3565  1.2122  1.6525
 6901TIP3   OH242117   5.819   3.619  13.329 -0.1684  0.1576  0.4202
 6901TIP3    H142118   5.808   3.658  13.242  0.6868 -0.4830  0.0038
 6901TIP3    H242119   5.762   3.542  13.329 -0.2426  0.2132  0.4577
 6902TIP3   OH242120   2.473   0.881   0.577 -0.1537  0.4041  0.2099
 6902TIP3    H142121   2.546   0.854   0.521 -0.4759 -0.4073  0.1754
 6902TIP3    H242122   2.509   0.880   0.666  0.2759  1.4117  0.0714
 6903TIP3   OH242123   3.395   2.221   4.278  0.2860 -0.4863 -0.0489
 6903TIP3    H142124   3.430   2.154   4.219 -1.6051 -2.7873  1.2665
 6903TIP3    H242125   3.420   2.191   4.365  1.7324  2.0519  0.4891
 6904TIP3   OH242126   3.695   5.739  13.427 -1.1335 -0.3836 -0.2479
 6904TIP3    H142127   3.721   5.728  13.518  2.1311 -2.5981 -1.2769
 6904TIP3    H242128   3.628   5.672  13.413  0.2619 -1.8660 -0.0716
 6905TIP3   OH242129   0.253   1.304  11.413 -0.8277  0.4987 -0.3257
 6905TIP3    H142130   0.211   1.316  11.328 -0.3329 -0.8170 -0.7883
 6905TIP3    H242131   0.342   1.276  11.392 -0.8802 -0.4505  0.6245
 6906TIP3   OH242132   6.622   0.154   2.169  0.4179  0.7915  0.1391
 6906TIP3    H142133   6.644   0.185   2.257 -0.6530 -0.4891  0.8986
 6906TIP3    H242134   6.628   0.058   2.175  1.1108  0.7044 -1.4196
 6907TIP3   OH242135   3.194   1.789  12.976  0.5864  0.5583  0.3712
 6907TIP3    H142136   3.156   1.873  13.002 -0.9140 -0.0139  0.1251
 6907TIP3    H242137   3.262   1.812  12.912  2.9338  1.8424  3.1140
 6908TIP3   OH242138   1.083   2.039   3.825 -0.1323  0.2885 -0.0495
 6908TIP3    H142139   1.094   1.963   3.882  0.0692  0.8234  0.6277
 6908TIP3    H242140   1.029   2.100   3.875 -0.9643  0.2769 -0.8990
 6909TIP3   OH242141   2.850   0.235   5.853 -0.1820  0.3360 -0.6153
 6909TIP3    H142142   2.785   0.176   5.894  0.2351  0.1712 -0.1806
 6909TIP3    H242143   2.850   0.313   5.909  1.1747 -0.3234  0.3611
 6910TIP3   OH242144   5.557   1.338   2.648  0.4898 -0.2019 -0.1397
 6910TIP3    H142145   5.550   1.360   2.555 -0.0296  0.1196 -0.0281
 6910TIP3    H242146   5.467   1.325   2.676  0.7801 -3.4226 -0.4046
 6911TIP3   OH242147   3.251   2.177   1.973  0.5207  0.4687  0.2701
 6911TIP3    H142148   3.230   2.270   1.963  0.8413  0.6430  1.1535
 6911TIP3    H242149   3.327   2.163   1.917 -0.7223  0.2628 -1.4541
 6912TIP3   OH242150   6.644   3.874   5.189 -0.1726 -0.1230 -0.6440
 6912TIP3    H142151   6.671   3.879   5.097 -0.7370  1.7430 -0.7441
 6912TIP3    H242152   6.708   3.814   5.229 -1.3332 -2.9484 -2.6851
 6913TIP3   OH242153   5.281   4.416  15.265  0.1565 -0.3458  0.1771
 6913TIP3    H142154   5.227   4.486  15.300  0.4962  0.1843 -0.3452
 6913TIP3    H242155   5.262   4.416  15.171  1.5829  0.3245 -0.1350
 6914TIP3   OH242156   2.242   3.255   2.479  0.1809 -0.2824  0.1171
 6914TIP3    H142157   2.336   3.271   2.464 -0.0631  0.2982 -0.8517
 6914TIP3    H242158   2.207   3.233   2.393 -0.6477 -0.1580  0.4141
 6915TIP3   OH242159   2.173   4.158   1.858 -0.0901  0.3293 -0.0282
 6915TIP3    H142160   2.247   4.131   1.913 -0.8945 -0.3840  0.7304
 6915TIP3    H242161   2.112   4.200   1.919 -0.8014 -0.0801 -0.4479
 6916TIP3   OH242162   1.370   2.842   2.370 -0.1172 -0.5596  0.1543
 6916TIP3    H142163   1.290   2.887   2.394 -0.7254 -0.5922 -1.6494
 6916TIP3    H242164   1.391   2.787   2.445 -1.3803 -0.0028  0.9334
 6917TIP3   OH242165   0.852   1.572   3.055 -0.1654 -0.1123 -0.7400
 6917TIP3    H142166   0.937   1.533   3.072  0.0812 -0.1586 -1.9901
 6917TIP3    H242167   0.872   1.659   3.019 -0.6757  0.4506  0.2872
 6918TIP3   OH242168   3.422   2.972  13.627 -1.0374 -0.1782 -0.6002
 6918TIP3    H142169   3.380   3.048  13.667 -2.2055  0.8359 -3.4646
 6918TIP3    H242170   3.513   3.001  13.612 -0.2304 -0.9956  2.1396
 6919TIP3   OH242171   3.029   0.326  16.506  0.0465 -0.9297  0.6591
 6919TIP3    H142172   2.980   0.245  16.494  1.9345 -1.8122 -1.9573
 6919TIP3    H242173   3.023   0.343  16.600 -1.1516 -3.6178  1.1759
 6920TIP3   OH242174   2.525   2.863   0.668  0.0198  0.6564  0.7337
 6920TIP3    H142175   2.525   2.829   0.579  3.9166 -0.0369  0.8013
 6920TIP3    H242176   2.461   2.809   0.714 -1.1190  0.1371 -1.3407
 6921TIP3   OH242177   0.088   3.813  12.959  0.4182  0.1713  0.3992
 6921TIP3    H142178   0.091   3.782  12.868 -2.1754 -2.6951  1.1331
 6921TIP3    H242179   0.154   3.760  13.004  0.4520  0.3027  0.5032
 6922TIP3   OH242180   0.698   6.794   1.369  0.2198 -0.6956  0.6350
 6922TIP3    H142181   0.787   6.815   1.341 -0.4812  1.2482 -0.3746
 6922TIP3    H242182   0.685   6.846   1.449 -0.6572  0.7748 -0.4021
 6923TIP3   OH242183   4.263   3.740  11.117 -0.3262  0.2414 -0.5712
 6923TIP3    H142184   4.220   3.660  11.088 -0.8823  0.0224  0.7732
 6923TIP3    H242185   4.202   3.810  11.092 -1.8289 -0.1038  1.7780
 6924TIP3   OH242186   2.349   0.157  14.942  0.1016 -0.5401 -0.8603
 6924TIP3    H142187   2.432   0.206  14.944  0.1495 -0.5665 -1.7767
 6924TIP3    H242188   2.282   0.225  14.948  0.1692 -0.5831  0.9605
 6925TIP3   OH242189   2.797   3.187  11.865  0.1395 -0.1524  0.1192
 6925TIP3    H142190   2.766   3.177  11.775 -2.0980 -0.0223  0.8173
 6925TIP3    H242191   2.717   3.187  11.918  1.3990 -0.2726  2.1203
 6926TIP3   OH242192   1.754   2.611  12.218  0.4114  0.4341 -0.0072
 6926TIP3    H142193   1.688   2.566  12.165  0.2752  0.9121 -0.2523
 6926TIP3    H242194   1.831   2.553  12.215  0.0764 -0.0224  0.1052
 6927TIP3   OH242195   4.611   1.176   4.324  0.3602  0.1374 -0.4164
 6927TIP3    H142196   4.523   1.210   4.338  1.1630  2.5477 -0.7522
 6927TIP3    H242197   4.618   1.165   4.229  1.0415  1.9940 -0.6311
 6928TIP3   OH242198   3.505   1.226  12.274 -0.4118 -0.4746  0.2096
 6928TIP3    H142199   3.437   1.292  12.262  0.0282  0.4695  2.3996
 6928TIP3    H242200   3.469   1.165  12.338 -0.0635 -1.2599 -0.3279
 6929TIP3   OH242201   4.387   4.544  11.626 -0.0981  0.2612 -0.2832
 6929TIP3    H142202   4.350   4.602  11.560 -0.7040 -1.7400 -1.7852
 6929TIP3    H242203   4.457   4.497  11.581 -0.4763 -1.1076  0.5034
 6930TIP3   OH242204   6.576   3.873   4.876  0.3716 -0.1105 -0.2864
 6930TIP3    H142205   6.482   3.879   4.888  0.2625  0.2335 -1.2293
 6930TIP3    H242206   6.591   3.782   4.848  0.2918 -0.1011 -0.3597
 6931TIP3   OH242207   1.123   5.202  16.659  0.2380  0.1271 -0.0574
 6931TIP3    H142208   1.056   5.182  16.595 -0.9186 -0.6149  1.3141
 6931TIP3    H242209   1.180   5.125  16.659  1.1835  0.7990 -1.2958
 6932TIP3   OH242210   4.945   2.013  16.159 -0.4658 -0.0635 -0.2713
 6932TIP3    H142211   4.855   2.032  16.186 -0.7132  1.8102 -2.1746
 6932TIP3    H242212   4.948   1.918  16.151 -2.6406 -0.1117 -1.2390
 6933TIP3   OH242213   0.166   6.108   4.167  0.1058 -0.1477 -0.1202
 6933TIP3    H142214   0.140   6.029   4.120  1.2136  0.7004 -2.3047
 6933TIP3    H242215   0.236   6.080   4.225  0.6048 -0.7782 -0.9968
 6934TIP3   OH242216   1.495   0.704   2.484 -0.2284 -0.0169  0.5868
 6934TIP3    H142217   1.545   0.622   2.488 -0.2264  0.0278  1.8227
 6934TIP3    H242218   1.522   0.752   2.562 -1.0871  0.6673  0.4749
 6935TIP3   OH242219   0.204   3.947  14.394 -0.1061  0.5414  0.1517
 6935TIP3    H142220   0.278   4.000  14.364 -0.0517 -0.1475 -0.9845
 6935TIP3    H242221   0.132   3.972  14.336  0.1105 -1.1227 -0.8855
 6936TIP3   OH242222   3.996   3.001  13.232  0.8559  0.7881  0.1393
 6936TIP3    H142223   4.084   2.996  13.268  1.7311 -2.9460 -1.9040
 6936TIP3    H242224   4.005   3.057  13.155  0.9352  1.9866  0.9978
 6937TIP3   OH242225   3.176   5.998  15.988 -0.0010  0.1898 -0.0868
 6937TIP3    H142226   3.189   6.058  15.915 -1.8427  0.5887 -0.1448
 6937TIP3    H242227   3.098   6.032  16.033 -0.3529 -1.4543  0.6077
 6938TIP3   OH242228   2.459   1.743   2.272  0.4444  0.6500 -0.5378
 6938TIP3    H142229   2.421   1.707   2.192 -1.6529  0.7951  0.3221
 6938TIP3    H242230   2.550   1.760   2.250  0.7106 -2.1428 -1.9691
 6939TIP3   OH242231   6.000   0.570   3.944 -0.3486 -0.2748 -0.1522
 6939TIP3    H142232   6.092   0.596   3.956 -0.2872 -1.2295  1.8451
 6939TIP3    H242233   5.967   0.630   3.877  0.6913  2.6645  1.7489
 6940TIP3   OH242234   2.074   3.036  13.873  0.1546  0.2967 -0.0593
 6940TIP3    H142235   2.140   2.976  13.839  1.6741  0.7036  2.0188
 6940TIP3    H242236   2.104   3.058  13.961 -3.1891 -0.1744  1.3518
 6941TIP3   OH242237   6.381   1.750   5.763  0.1588  0.1112  0.3572
 6941TIP3    H142238   6.345   1.803   5.834  1.1854  0.5337  0.5812
 6941TIP3    H242239   6.383   1.661   5.798  0.3002  0.2561  0.7194
 6942TIP3   OH242240   6.123   3.617   5.081  0.0410  0.7354  0.0106
 6942TIP3    H142241   6.183   3.692   5.076  1.7395 -0.3115  2.5194
 6942TIP3    H242242   6.056   3.644   5.143 -0.2296  0.7369 -0.2830
 6943TIP3   OH242243   5.591   2.995   0.764  0.3305 -0.6515 -0.1615
 6943TIP3    H142244   5.552   2.959   0.684 -0.3089  0.1958 -0.2426
 6943TIP3    H242245   5.570   3.088   0.761  3.2999  0.1150 -0.7788
 6944TIP3   OH242246   2.052   0.595   1.162  0.5754 -0.4153 -0.0694
 6944TIP3    H142247   2.129   0.608   1.106  0.2049 -0.3865 -0.5736
 6944TIP3    H242248   1.978   0.595   1.102  0.1725 -0.3995  0.4216
 6945TIP3   OH242249   2.776   1.214   0.463 -0.4372 -0.3455  0.2811
 6945TIP3    H142250   2.823   1.183   0.541  1.0234  1.4815  0.2054
 6945TIP3    H242251   2.684   1.192   0.480  0.3074 -3.5719  0.6795
 6946TIP3   OH242252   3.731   0.684  13.472  0.8954  0.0424 -0.4920
 6946TIP3    H142253   3.659   0.637  13.512  1.5904 -0.2264  0.4977
 6946TIP3    H242254   3.713   0.776  13.491 -0.4020  0.2151 -2.3273
 6947TIP3   OH242255   1.547   0.051   0.485 -0.4546  0.3528  0.1813
 6947TIP3    H142256   1.589   0.087   0.563 -0.8394  1.8287 -0.2603
 6947TIP3    H242257   1.480   0.115   0.462 -1.8425 -1.1228 -0.1107
 6948TIP3   OH242258   2.875   2.972  15.510 -0.3846 -0.1085 -0.4145
 6948TIP3    H142259   2.946   2.943  15.566  0.7107 -0.3465 -1.8541
 6948TIP3    H242260   2.895   3.064  15.491 -1.2777  0.2593  0.3454
 6949TIP3   OH242261   4.782   1.274  11.913  0.0174 -0.7587 -0.3194
 6949TIP3    H142262   4.785   1.251  12.006  0.2559 -0.6629 -0.3028
 6949TIP3    H242263   4.837   1.352  11.906  1.2542 -1.6349 -0.7969
 6950TIP3   OH242264   4.944   1.199   3.892  0.2573 -0.2897 -0.0959
 6950TIP3    H142265   4.976   1.271   3.947  0.5755 -0.3105 -0.2527
 6950TIP3    H242266   4.892   1.243   3.824  0.4044 -0.2098 -0.1586
 6951TIP3   OH242267   0.119   5.197  14.321  0.6186 -0.2644  0.4276
 6951TIP3    H142268   0.069   5.276  14.300 -0.2989  0.1024  3.4798
 6951TIP3    H242269   0.206   5.214  14.284  0.5148  2.3051  1.1641
 6952TIP3   OH242270   4.235   0.873  15.113  0.1356  0.5816 -0.7415
 6952TIP3    H142271   4.266   0.929  15.184  2.8237 -1.8169  0.1643
 6952TIP3    H242272   4.234   0.785  15.150 -2.4057 -0.2605 -2.5436
 6953TIP3   OH242273   5.024   0.305   4.690 -0.2710 -0.0259  0.1957
 6953TIP3    H142274   5.086   0.379   4.691  1.1282 -1.1332 -0.8299
 6953TIP3    H242275   4.942   0.343   4.657  0.0812  1.3013  0.7856
 6954TIP3   OH242276   0.215   1.610   4.032 -0.5331  0.9222  0.5331
 6954TIP3    H142277   0.165   1.591   4.111 -0.9475 -0.1406  0.0228
 6954TIP3    H242278   0.159   1.580   3.960 -0.4013  2.3623 -0.2095
 6955TIP3   OH242279   0.493   0.966  13.994  0.5109 -0.2716 -0.3354
 6955TIP3    H142280   0.546   1.036  13.958 -1.0501  0.3251 -1.5814
 6955TIP3    H242281   0.427   0.949  13.927 -1.2283 -0.5727  1.3666
 6956TIP3   OH242282   2.599   1.793   2.960  0.1294 -0.5772 -0.1814
 6956TIP3    H142283   2.563   1.775   2.873 -0.5568 -2.6476  0.4837
 6956TIP3    H242284   2.548   1.738   3.019 -0.1980  1.6050  1.7297
 6957TIP3   OH242285   5.629   0.548  13.555 -0.2387 -0.4667 -0.1234
 6957TIP3    H142286   5.619   0.498  13.474  0.3646 -0.2253 -0.3510
 6957TIP3    H242287   5.541   0.583  13.572 -0.6838 -1.6598  0.0886
 6958TIP3   OH242288   6.366   6.337  12.179 -0.0955  0.0234 -0.2573
 6958TIP3    H142289   6.435   6.352  12.244 -1.0522 -1.1408  1.0963
 6958TIP3    H242290   6.326   6.423  12.166 -0.0527  0.2353  0.9136
 6959TIP3   OH242291   1.434   6.354   4.128  0.3806  0.3429 -0.1315
 6959TIP3    H142292   1.368   6.285   4.116 -1.4402  1.9306  0.2081
 6959TIP3    H242293   1.493   6.319   4.196 -2.2248  0.2335  2.2636
 6960TIP3   OH242294   2.568   0.753  16.471  0.5319  0.4665  0.0309
 6960TIP3    H142295   2.507   0.744  16.398  0.8302  1.0779 -0.2959
 6960TIP3    H242296   2.630   0.680  16.460 -0.0668 -0.0950  0.3071
 6961TIP3   OH242297   1.254   3.450   2.430 -0.1637  0.3439 -0.2548
 6961TIP3    H142298   1.276   3.357   2.421 -0.4893  0.3285 -0.8904
 6961TIP3    H242299   1.260   3.466   2.524  0.2397 -0.2359 -0.1739
 6962TIP3   OH242300   1.539   0.695  11.633 -0.2166  0.4717 -0.3068
 6962TIP3    H142301   1.578   0.731  11.554  1.5940  2.2903  1.3080
 6962TIP3    H242302   1.583   0.611  11.645  0.0115  0.5099 -0.8505
 6963TIP3   OH242303   6.074   6.534   4.594 -0.3764 -0.1757  0.0452
 6963TIP3    H142304   5.980   6.530   4.609 -0.0829  0.0497  2.3191
 6963TIP3    H242305   6.106   6.446   4.615  0.1940  0.4432  1.9984
 6964TIP3   OH242306   2.725   3.153   0.331 -0.5498  0.1795 -0.9306
 6964TIP3    H142307   2.660   3.205   0.379  0.4970 -0.6150  1.5198
 6964TIP3    H242308   2.739   3.076   0.387  0.4940 -1.0274 -2.7614
 6965TIP3   OH242309   0.898   2.238   1.175  0.4211  0.2820  0.0008
 6965TIP3    H142310   0.894   2.331   1.151 -1.3874 -0.0228 -1.0373
 6965TIP3    H242311   0.897   2.191   1.092 -0.6194 -0.6999  0.5415
 6966TIP3   OH242312   0.024   0.624  15.791 -0.5714  0.5495 -0.0594
 6966TIP3    H142313  -0.019   0.576  15.720 -1.1279 -1.6664  1.6595
 6966TIP3    H242314   0.117   0.622  15.768 -0.8561  1.1557 -1.3990
 6967TIP3   OH242315   2.076   1.112  11.452  0.1242 -0.6824 -0.4336
 6967TIP3    H142316   2.095   1.018  11.460 -0.1264 -0.9058 -2.0175
 6967TIP3    H242317   2.117   1.137  11.369 -1.0280  0.2710 -0.7348
 6968TIP3   OH242318   3.707   2.127  15.481 -0.0607 -0.3411 -0.4534
 6968TIP3    H142319   3.695   2.198  15.418  0.0970 -0.6846 -0.8695
 6968TIP3    H242320   3.649   2.057  15.451 -2.0025  0.4153  1.2319
 6969TIP3   OH242321   5.568   4.218  11.115  0.1976 -0.1552  0.3355
 6969TIP3    H142322   5.508   4.143  11.107  0.9586 -0.7768  0.3542
 6969TIP3    H242323   5.574   4.252  11.026 -0.1387 -0.1285  0.3220
 6970TIP3   OH242324   6.177   0.321  15.795  0.1440 -0.1167  0.3776
 6970TIP3    H142325   6.183   0.246  15.854 -1.5589 -0.2717  0.3898
 6970TIP3    H242326   6.147   0.393  15.850 -0.2039  0.0568 -0.0295
 6971TIP3   OH242327   1.528   6.474   1.171 -0.5380  0.2068 -0.0741
 6971TIP3    H142328   1.564   6.554   1.210  0.1576 -0.0556 -0.1614
 6971TIP3    H242329   1.595   6.407   1.188 -1.2592 -0.4383  0.2902
 6972TIP3   OH242330   5.521   1.309  10.304  0.7038  0.1122 -0.0976
 6972TIP3    H142331   5.592   1.249  10.325  1.3121  1.0200  0.5444
 6972TIP3    H242332   5.563   1.395  10.297 -0.6410  1.1759  2.9835
 6973TIP3   OH242333   2.736   4.359   5.700  0.4199 -0.0832 -0.5231
 6973TIP3    H142334   2.772   4.350   5.788 -0.7346  2.4039  0.2698
 6973TIP3    H242335   2.666   4.294   5.696 -1.4143  1.6522  1.4916
 6974TIP3   OH242336   6.384   6.651   2.280 -0.4172  0.1741  0.0496
 6974TIP3    H142337   6.320   6.582   2.294 -0.3321 -0.1042 -0.8789
 6974TIP3    H242338   6.385   6.700   2.362  0.1098 -1.3956  1.0235
 6975TIP3   OH242339   5.005   1.691  16.999  0.0021 -0.3562  0.5512
 6975TIP3    H142340   5.056   1.734  17.067 -0.4167 -1.8007  1.8231
 6975TIP3    H242341   4.941   1.756  16.972  0.0685  0.1821  1.6635
 6976TIP3   OH242342   4.276   1.586   2.173  0.3278 -0.2649  0.5422
 6976TIP3    H142343   4.314   1.578   2.086 -0.9098 -0.3419 -0.0177
 6976TIP3    H242344   4.229   1.669   2.171 -0.7890 -0.8710  0.6874
 6977TIP3   OH242345   3.947   5.936  12.811  0.2696 -0.5974 -0.5987
 6977TIP3    H142346   3.931   5.914  12.903 -0.2517  0.5853 -0.3874
 6977TIP3    H242347   3.978   6.026  12.813 -0.4966 -0.2894 -1.6382
 6978TIP3   OH242348   5.999   4.285   0.764  0.6614 -0.4193 -0.3833
 6978TIP3    H142349   6.037   4.371   0.746  1.1224 -0.7426 -1.0243
 6978TIP3    H242350   5.916   4.285   0.716 -0.3374  0.3872  1.2336
 6979TIP3   OH242351   4.606   6.482  15.255 -0.1218  0.1964  0.2309
 6979TIP3    H142352   4.603   6.577  15.251 -0.1971  0.2472  1.1579
 6979TIP3    H242353   4.522   6.453  15.219  0.0866  0.4547 -0.4731
 6980TIP3   OH242354   3.399   3.524  11.864 -0.3743 -0.1868 -0.4437
 6980TIP3    H142355   3.316   3.569  11.848 -0.9419 -0.9478  0.2620
 6980TIP3    H242356   3.376   3.431  11.862  0.5003 -0.4095 -0.4103
 6981TIP3   OH242357   3.589   6.027   0.039 -0.1878  0.5101  0.1002
 6981TIP3    H142358   3.539   6.103   0.070 -0.8353  1.3333 -2.6809
 6981TIP3    H242359   3.618   5.984   0.119 -1.5233  2.5427  1.8079
 6982TIP3   OH242360   2.361   0.654  11.868  0.7135  0.3446  0.3126
 6982TIP3    H142361   2.371   0.560  11.886 -0.7653  0.2741  0.8974
 6982TIP3    H242362   2.405   0.667  11.784 -0.1097 -1.1258 -0.3854
 6983TIP3   OH242363   2.541   5.200  16.611  0.3503  0.5201 -0.3141
 6983TIP3    H142364   2.601   5.252  16.665 -1.7737  0.8444  1.8941
 6983TIP3    H242365   2.513   5.129  16.668 -1.6563  0.6257 -1.0830
 6984TIP3   OH242366   5.587   5.725  12.150  0.4262 -0.2897  0.2378
 6984TIP3    H142367   5.571   5.820  12.153 -0.6110 -0.4677  0.7245
 6984TIP3    H242368   5.661   5.712  12.208  0.6239  0.2365  0.1104
 6985TIP3   OH242369   6.568   3.824  13.794 -0.5317 -0.1486 -0.1722
 6985TIP3    H142370   6.533   3.738  13.771 -2.2078  0.3409  0.4557
 6985TIP3    H242371   6.591   3.817  13.886  0.5193 -0.2760 -0.4263
 6986TIP3   OH242372   0.195   4.151  11.393 -0.0679  0.1126 -0.4416
 6986TIP3    H142373   0.220   4.132  11.484 -1.8185  1.5625  0.4121
 6986TIP3    H242374   0.275   4.137  11.343  1.7298  1.8522  1.7046
 6987TIP3   OH242375   2.311   5.436  16.669 -0.2944  0.0637 -0.5697
 6987TIP3    H142376   2.405   5.451  16.675  0.0513 -2.1385  0.2357
 6987TIP3    H242377   2.272   5.517  16.704  1.3453  0.0208  1.5712
 6988TIP3   OH242378   4.276   4.815   1.797  0.2058  0.2639  0.4976
 6988TIP3    H142379   4.361   4.848   1.769 -0.3806  0.6231 -0.9491
 6988TIP3    H242380   4.252   4.871   1.871 -0.7062  3.1585 -1.8068
 6989TIP3   OH242381   0.038   6.296  16.064  0.6883 -0.4025 -0.0893
 6989TIP3    H142382   0.096   6.297  16.139  0.8309 -0.5890 -0.1956
 6989TIP3    H242383   0.096   6.302  15.988  0.4389  2.2034 -0.1620
 6990TIP3   OH242384   4.176   3.477   2.105 -0.5732 -0.4578  0.5698
 6990TIP3    H142385   4.127   3.483   2.023 -1.6390 -0.5155  1.1866
 6990TIP3    H242386   4.177   3.566   2.139  0.4879 -0.2960  0.1652
 6991TIP3   OH242387   5.883   6.385   5.583  0.0550 -0.0252 -0.1216
 6991TIP3    H142388   5.944   6.435   5.636 -2.3203  1.4720  1.3495
 6991TIP3    H242389   5.855   6.313   5.639  0.5635 -0.8350 -0.8667
 6992TIP3   OH242390   2.344   3.094   3.927 -0.7118 -0.4162 -0.4243
 6992TIP3    H142391   2.297   3.058   4.003  1.6905 -1.4527  0.6909
 6992TIP3    H242392   2.360   3.185   3.949 -1.6524 -0.2224 -0.5359
 6993TIP3   OH242393   0.101   2.638   2.228  0.0456  0.0699 -0.0982
 6993TIP3    H142394   0.023   2.694   2.222 -0.7432 -0.9018  0.7218
 6993TIP3    H242395   0.111   2.601   2.140 -0.5149  0.0836 -0.1719
 6994TIP3   OH242396   3.201   4.770   1.219 -0.5396 -0.0875 -0.3567
 6994TIP3    H142397   3.133   4.802   1.160  0.3737 -1.1780 -2.0844
 6994TIP3    H242398   3.252   4.848   1.241 -1.1744  0.4138 -0.6062
 6995TIP3   OH242399   6.465   4.121  12.735 -0.0879 -0.1256 -0.0829
 6995TIP3    H142400   6.529   4.189  12.715 -0.5289  0.0722 -0.9005
 6995TIP3    H242401   6.507   4.039  12.708  0.0882 -0.0766  0.0405
 6996TIP3   OH242402   3.668   0.465   5.253 -0.3221  0.1560  0.0247
 6996TIP3    H142403   3.704   0.376   5.250 -1.5049 -0.4040  1.2113
 6996TIP3    H242404   3.579   0.456   5.218 -0.2286  0.9981 -0.4388
 6997TIP3   OH242405   3.490   4.309   4.531  0.2592 -0.2942 -0.1981
 6997TIP3    H142406   3.443   4.270   4.605 -0.2549 -0.5722 -0.6618
 6997TIP3    H242407   3.440   4.387   4.510  0.2794 -0.3323 -0.3877
 6998TIP3   OH242408   0.356   5.911  16.667  0.0192 -0.0486  0.7716
 6998TIP3    H142409   0.391   5.998  16.645 -1.3443 -0.0690 -1.8048
 6998TIP3    H242410   0.433   5.861  16.694  1.1257  1.4270  0.5312
 6999TIP3   OH242411   4.034   1.694  15.085 -0.4701  0.0207 -0.1922
 6999TIP3    H142412   4.034   1.719  14.992 -2.8759 -1.2413 -0.6086
 6999TIP3    H242413   4.071   1.606  15.087 -0.0541  0.1970  0.1193
 7000TIP3   OH242414   2.562   6.673   3.373  0.3131 -0.0274 -0.4839
 7000TIP3    H142415   2.652   6.640   3.381  0.8437  1.4996  0.2690
 7000TIP3    H242416   2.548   6.681   3.279  0.1149 -2.4116 -0.7156
 7001TIP3   OH242417   1.182   3.537  12.422  0.1631 -0.2262 -0.4200
 7001TIP3    H142418   1.232   3.460  12.396 -1.9980 -1.3025 -1.7398
 7001TIP3    H242419   1.121   3.551  12.350 -0.4822  1.8644  0.4516
 7002TIP3   OH242420   2.963   6.304  14.288 -0.1000  0.1411  0.1983
 7002TIP3    H142421   2.942   6.214  14.314  0.9440 -1.0146 -2.6037
 7002TIP3    H242422   2.886   6.333  14.238 -0.1827  0.6233  0.5929
 7003TIP3   OH242423   5.553   6.017   5.794 -0.2673 -0.3536  0.2407
 7003TIP3    H142424   5.612   6.092   5.806 -1.2608  0.5267 -0.2384
 7003TIP3    H242425   5.573   5.985   5.706 -0.8781  0.2909 -0.1390
 7004TIP3   OH242426   2.739   5.477   3.384 -0.2486  0.1274  0.5309
 7004TIP3    H142427   2.671   5.433   3.435 -0.1110 -0.0742  0.5439
 7004TIP3    H242428   2.821   5.458   3.431 -0.2096  0.5517  0.6362
 7005TIP3   OH242429   2.754   2.756  14.921  0.0127  0.6947  0.2997
 7005TIP3    H142430   2.677   2.699  14.923  0.2455  0.3408  3.1820
 7005TIP3    H242431   2.818   2.712  14.977  1.0453  2.6758  0.7756
 7006TIP3   OH242432   6.487   3.145  13.998  0.1644  0.6318  0.1536
 7006TIP3    H142433   6.416   3.152  13.934  0.9927  1.2292 -0.7286
 7006TIP3    H242434   6.443   3.140  14.083 -0.9914 -0.9465 -0.4905
 7007TIP3   OH242435   5.785   5.304   2.742 -0.0170 -0.4263 -0.4202
 7007TIP3    H142436   5.697   5.268   2.730 -0.2452 -0.1379  0.2954
 7007TIP3    H242437   5.775   5.369   2.812  0.7601 -0.3725 -0.3449
 7008TIP3   OH242438   4.553   6.427  16.585 -0.4833  0.4872 -0.0859
 7008TIP3    H142439   4.516   6.512  16.608  2.4506  1.8673 -0.0296
 7008TIP3    H242440   4.542   6.373  16.663 -1.1258  1.2651  0.3707
 7009TIP3   OH242441   5.253   1.781   0.662  0.4764 -0.1416  0.9621
 7009TIP3    H142442   5.304   1.715   0.615  0.2659  0.9666 -0.9312
 7009TIP3    H242443   5.314   1.817   0.727  0.8851 -1.4556  1.3417
 7010TIP3   OH242444   1.763   0.938  13.038 -0.0771 -0.2687  0.5803
 7010TIP3    H142445   1.766   1.015  13.095  1.1839 -0.8983  1.4128
 7010TIP3    H242446   1.843   0.945  12.985 -0.9491  0.0097 -0.7598
 7011TIP3   OH242447   3.125   4.624  14.643 -0.4062 -0.3507  0.0594
 7011TIP3    H142448   3.093   4.596  14.557  0.5539  0.0840 -0.4470
 7011TIP3    H242449   3.147   4.542  14.687  1.6072 -0.5009 -1.1103
 7012TIP3   OH242450   3.206   1.617  16.414  0.3337  0.4393  0.4323
 7012TIP3    H142451   3.174   1.533  16.447  0.5208  0.6879  1.2612
 7012TIP3    H242452   3.128   1.672  16.410 -0.1771 -0.2965 -1.9440
 7013TIP3   OH242453   0.995   5.934   3.847  0.0170 -0.3082 -0.5417
 7013TIP3    H142454   1.037   5.909   3.765 -0.8982 -1.3226 -0.7220
 7013TIP3    H242455   0.965   5.852   3.885  1.3728  0.0279  1.3693
 7014TIP3   OH242456   1.655   4.429   4.935  0.0582  0.5015 -0.1543
 7014TIP3    H142457   1.707   4.501   4.968  2.3117 -1.6225  1.2496
 7014TIP3    H242458   1.577   4.428   4.991  0.3800  1.3064  0.3241
 7015TIP3   OH242459   3.598   4.525   2.080  0.0126  0.2711  0.1583
 7015TIP3    H142460   3.607   4.561   2.168  1.6864 -0.8725  0.4997
 7015TIP3    H242461   3.505   4.530   2.061 -0.2922  1.1332  1.7240
 7016TIP3   OH242462   3.614   6.380  14.231 -0.1219  0.0121  0.0217
 7016TIP3    H142463   3.533   6.332  14.217  0.4354 -0.9089 -0.1128
 7016TIP3    H242464   3.611   6.404  14.324 -1.6577  2.1259 -0.4858
 7017TIP3   OH242465   3.624   5.351  14.176 -0.1665 -0.5613 -0.2939
 7017TIP3    H142466   3.535   5.319  14.191  0.4897 -2.0346  0.6844
 7017TIP3    H242467   3.636   5.419  14.243 -0.6222 -0.1852 -0.5840
 7018TIP3   OH242468   6.480   5.365  14.163 -0.1921 -0.4964 -0.1360
 7018TIP3    H142469   6.501   5.321  14.245 -0.9775 -1.8514 -0.6288
 7018TIP3    H242470   6.531   5.446  14.165 -2.4104  1.0425  3.0592
 7019TIP3   OH242471   6.227   4.939   0.310 -0.0345  0.0844 -0.2963
 7019TIP3    H142472   6.299   4.881   0.331  0.0045 -0.3816 -1.6309
 7019TIP3    H242473   6.189   4.962   0.395  2.0383  0.8343  0.4901
 7020TIP3   OH242474   3.562   5.628   5.558 -0.4163  0.4125  0.1274
 7020TIP3    H142475   3.567   5.541   5.598 -0.4752  0.1219 -0.4890
 7020TIP3    H242476   3.643   5.671   5.585 -0.7565  0.4680  1.1112
 7021TIP3   OH242477   2.863   5.645  13.477  0.3962  0.7831  0.0646
 7021TIP3    H142478   2.862   5.557  13.441  1.6111 -0.3877  2.6396
 7021TIP3    H242479   2.936   5.688  13.431 -2.2004  1.7482 -3.6378
 7022TIP3   OH242480   5.008   2.555  13.313  0.1237 -0.5132 -1.0957
 7022TIP3    H142481   5.057   2.493  13.368  0.0930 -0.1178 -0.6131
 7022TIP3    H242482   4.981   2.503  13.237  1.7299 -0.6226 -1.6268
 7023TIP3   OH242483   2.676   6.247   6.556  1.0868  0.0947 -0.6603
 7023TIP3    H142484   2.605   6.300   6.593  0.9858 -1.5936  1.8207
 7023TIP3    H242485   2.632   6.185   6.499  0.5295 -0.7871  0.6769
 7024TIP3   OH242486   2.745   1.354  11.975  0.0148  0.6455 -0.1845
 7024TIP3    H142487   2.699   1.397  11.903 -0.5044 -1.6350 -1.3087
 7024TIP3    H242488   2.831   1.332  11.939 -1.0053 -2.5071 -1.0231
 7025TIP3   OH242489   3.602   6.247  15.510 -0.2765 -0.3146  0.2972
 7025TIP3    H142490   3.660   6.245  15.587 -1.2199 -0.9371  1.0157
 7025TIP3    H242491   3.571   6.337  15.505  0.8678  0.0731 -0.2008
 7026TIP3   OH242492   5.598   1.815   6.062 -0.2080 -0.0410 -0.2654
 7026TIP3    H142493   5.636   1.800   6.148 -0.1789  0.4119 -0.1972
 7026TIP3    H242494   5.615   1.907   6.044  1.1852 -0.5026 -1.4539
 7027TIP3   OH242495   0.017   2.224   5.939 -0.1602 -0.6070 -0.0633
 7027TIP3    H142496  -0.025   2.272   6.010 -0.1167  0.0625 -0.4786
 7027TIP3    H242497   0.110   2.237   5.953 -0.1381 -0.9412  0.0807
 7028TIP3   OH242498   6.310   2.791  14.973 -0.3679 -0.5733 -0.0752
 7028TIP3    H142499   6.235   2.846  14.999 -1.3374 -2.3741  1.1581
 7028TIP3    H242500   6.271   2.719  14.924  0.5202 -1.6116  0.6980
 7029TIP3   OH242501   0.640   6.232   1.299 -0.2147  0.0216 -0.0078
 7029TIP3    H142502   0.634   6.326   1.314  1.5633  0.2370 -0.4426
 7029TIP3    H242503   0.702   6.201   1.364 -0.3400 -0.7564 -0.2524
 7030TIP3   OH242504   1.443   5.007   5.072  0.1063  0.4275 -0.2737
 7030TIP3    H142505   1.395   5.075   5.119  0.1855 -0.1239  0.6234
 7030TIP3    H242506   1.376   4.962   5.020 -0.4543 -0.6266  1.3142
 7031TIP3   OH242507   0.915   6.359  10.098 -0.0473  0.3321 -0.2423
 7031TIP3    H142508   0.893   6.449  10.126 -1.0505 -0.4676  1.7568
 7031TIP3    H242509   1.005   6.346  10.129  0.2886  0.7850 -0.9861
 7032TIP3   OH242510   3.029   3.135  15.671  0.1765 -0.2610  0.3778
 7032TIP3    H142511   3.047   3.193  15.596 -2.3926  0.0479 -0.0963
 7032TIP3    H242512   3.062   3.184  15.746 -1.6858  1.8136 -0.0328
 7033TIP3   OH242513   1.657   1.547  14.695 -0.1438  0.4872  0.7125
 7033TIP3    H142514   1.637   1.485  14.625 -1.6132  1.7914 -0.0865
 7033TIP3    H242515   1.604   1.518  14.769 -1.8256  1.4651 -0.0601
 7034TIP3   OH242516   5.030   2.147  15.739  0.0824 -0.0922  0.0053
 7034TIP3    H142517   5.011   2.234  15.705  0.2332 -0.0861 -0.0660
 7034TIP3    H242518   5.078   2.163  15.820  1.7628 -0.1038 -0.9505
 7035TIP3   OH242519   0.476   2.738  15.313  0.4831 -0.2986  0.2933
 7035TIP3    H142520   0.471   2.771  15.223 -0.1889  0.8470  0.7333
 7035TIP3    H242521   0.427   2.655  15.311 -2.0255  1.0891  0.1777
 7036TIP3   OH242522   1.501   2.220   2.706  0.2493 -0.2372  0.3363
 7036TIP3    H142523   1.582   2.196   2.752 -0.9825 -2.3445  1.5471
 7036TIP3    H242524   1.431   2.193   2.765 -1.3733 -0.6190 -1.6600
 7037TIP3   OH242525   5.757   0.576  10.552  0.2413 -0.6848 -0.1265
 7037TIP3    H142526   5.674   0.558  10.508  1.4897 -3.5150 -1.6348
 7037TIP3    H242527   5.771   0.501  10.610  0.5422  1.0552  2.2025
 7038TIP3   OH242528   4.524   4.024   1.124 -0.1244  0.0721  0.2338
 7038TIP3    H142529   4.560   4.113   1.121  0.1285  0.0459  1.6799
 7038TIP3    H242530   4.597   3.970   1.153 -1.0262 -0.1321  2.2769
 7039TIP3   OH242531   0.595   5.055  13.008 -0.0604  0.1473 -0.4647
 7039TIP3    H142532   0.550   5.140  13.004 -1.2132 -0.4268 -0.1192
 7039TIP3    H242533   0.655   5.056  12.933 -0.2535  1.1481 -0.6243
 7040TIP3   OH242534   2.768   4.218  11.340 -0.2904  0.4141  0.1701
 7040TIP3    H142535   2.704   4.232  11.270 -0.0148 -0.6109 -0.2968
 7040TIP3    H242536   2.726   4.158  11.401  0.6048 -1.1669 -0.7048
 7041TIP3   OH242537   4.233   4.188  14.347  0.3882  0.0424  0.0480
 7041TIP3    H142538   4.277   4.273  14.337  1.9246 -0.6028  0.8754
 7041TIP3    H242539   4.229   4.152  14.259  2.6700 -0.3821  0.0536
 7042TIP3   OH242540   4.399   3.758   0.528  0.0976 -1.0152 -0.0476
 7042TIP3    H142541   4.420   3.668   0.554 -2.1788 -1.6767 -0.2843
 7042TIP3    H242542   4.331   3.786   0.589 -0.6411 -0.2058 -1.1939
 7043TIP3   OH242543   2.932   4.039  16.615 -0.6079 -0.0702 -0.1915
 7043TIP3    H142544   2.958   3.959  16.569  1.1040  1.6872 -2.5084
 7043TIP3    H242545   2.949   4.109  16.553 -4.5653  1.9762  0.7402
 7044TIP3   OH242546   2.577   0.905   2.899  0.1737 -0.3717 -0.1723
 7044TIP3    H142547   2.578   0.821   2.853 -2.1636 -0.3591 -0.3222
 7044TIP3    H242548   2.574   0.970   2.829 -1.6421 -0.3023 -0.0649
 7045TIP3   OH242549   0.950   2.481   1.721  0.2577 -0.1580 -0.0502
 7045TIP3    H142550   0.948   2.456   1.813 -0.8543 -1.4381 -0.3981
 7045TIP3    H242551   1.022   2.545   1.716  0.0074  0.3406  1.7790
 7046TIP3   OH242552   0.512   5.996  14.250 -0.4680  0.2637 -0.2754
 7046TIP3    H142553   0.504   6.034  14.337 -0.7291 -1.3719  0.4654
 7046TIP3    H242554   0.567   6.057  14.201  3.1090 -0.6199  2.2326
 7047TIP3   OH242555   2.831   1.400   3.565  0.4336  0.0907 -0.1996
 7047TIP3    H142556   2.789   1.479   3.599 -0.8157  0.0160 -1.4745
 7047TIP3    H242557   2.894   1.376   3.632  0.2924  1.7275  0.5727
 7048TIP3   OH242558   1.545   6.813  12.423  0.1370  0.0965  0.3147
 7048TIP3    H142559   1.496   6.788  12.345  0.7720  0.2028 -0.1217
 7048TIP3    H242560   1.478   6.847  12.483 -0.4921 -0.9621  0.2405
 7049TIP3   OH242561   2.834   4.937   0.327  0.7832  0.6543 -0.0598
 7049TIP3    H142562   2.875   4.883   0.395  0.3658  1.6365  1.0036
 7049TIP3    H242563   2.881   5.020   0.331  0.4984  0.8573 -0.7335
 7050TIP3   OH242564   6.220   0.869   3.824 -0.2228  0.6525 -0.1905
 7050TIP3    H142565   6.306   0.891   3.788 -0.7903  1.3610 -1.1652
 7050TIP3    H242566   6.161   0.874   3.749 -1.2298  0.8507  0.5981
 7051TIP3   OH242567   3.565   5.284  16.307  0.1089 -0.0133  0.5301
 7051TIP3    H142568   3.528   5.233  16.379 -1.5553  0.7659  0.2873
 7051TIP3    H242569   3.496   5.347  16.285  1.5010  1.3258 -0.1844
 7052TIP3   OH242570   0.892   1.878   3.657  0.1235  0.0212 -0.0969
 7052TIP3    H142571   0.805   1.875   3.698 -0.9151 -0.8761 -2.2256
 7052TIP3    H242572   0.933   1.956   3.695 -1.2894  0.0136  1.5670
 7053TIP3   OH242573   3.341   2.838   0.291 -0.3067  0.2972  0.5211
 7053TIP3    H142574   3.398   2.913   0.312 -1.2706  1.1729  0.0808
 7053TIP3    H242575   3.284   2.830   0.367 -0.9047  0.6911  0.1188
 7054TIP3   OH242576   4.781   1.974  10.865  0.3385  0.2239 -0.4190
 7054TIP3    H142577   4.848   2.042  10.869  1.5653 -0.8871 -1.3266
 7054TIP3    H242578   4.785   1.932  10.952 -1.7227  2.4204  0.8477
 7055TIP3   OH242579   4.817   0.770  15.723 -0.1743 -0.2771  0.2648
 7055TIP3    H142580   4.869   0.793  15.800  1.3355  0.7397 -0.9713
 7055TIP3    H242581   4.769   0.850  15.702  2.3730  0.7995 -2.0009
 7056TIP3   OH242582   6.094   2.524  11.595 -0.4220 -0.2741  0.2508
 7056TIP3    H142583   6.134   2.555  11.514  0.1285 -0.6030  0.3900
 7056TIP3    H242584   6.164   2.530  11.660 -0.5417 -1.0435  0.4553
 7057TIP3   OH242585   0.455   6.666  13.984 -0.4339 -0.2904 -0.0825
 7057TIP3    H142586   0.465   6.692  14.075  1.9560  1.5497 -0.7774
 7057TIP3    H242587   0.369   6.699  13.958  0.0769  1.7971  0.7374
 7058TIP3   OH242588   2.988   1.586   3.345  0.2069  0.0049 -0.1072
 7058TIP3    H142589   2.942   1.537   3.413  0.5051  0.7813  0.6848
 7058TIP3    H242590   3.078   1.556   3.350 -0.0959 -1.2071 -1.3714
 7059TIP3   OH242591   5.453   4.431   2.846 -0.4348 -0.6851  0.5192
 7059TIP3    H142592   5.431   4.514   2.889  1.0115 -0.5578  1.0710
 7059TIP3    H242593   5.520   4.455   2.782 -0.0303 -1.4283  0.6618
 7060TIP3   OH242594   3.380   3.608   1.463 -0.2760 -0.2602  0.4318
 7060TIP3    H142595   3.430   3.684   1.432 -3.0372  1.6840  0.4624
 7060TIP3    H242596   3.383   3.615   1.558  0.7081 -1.1159  0.4872
 7061TIP3   OH242597   5.083   4.101   6.181 -0.0552 -0.3216 -0.2778
 7061TIP3    H142598   5.029   4.112   6.103  1.2043  0.1204 -1.1055
 7061TIP3    H242599   5.148   4.035   6.156  0.1500 -0.4283  0.5125
 7062TIP3   OH242600   6.570   2.846  11.867 -0.8845 -0.4050  0.0731
 7062TIP3    H142601   6.537   2.820  11.781 -0.8005  0.9816 -0.4073
 7062TIP3    H242602   6.595   2.938  11.856  2.3785 -1.1045  0.6098
 7063TIP3   OH242603   4.171   0.683  16.325  0.2873  0.8311  0.0899
 7063TIP3    H142604   4.093   0.629  16.339 -0.9277  2.0509 -1.5909
 7063TIP3    H242605   4.186   0.726  16.409 -0.6128  0.2906  0.5441
 7064TIP3   OH242606   6.382   2.445  12.367  0.8025  0.8493  0.1917
 7064TIP3    H142607   6.428   2.364  12.389  1.0551  0.5936 -1.1755
 7064TIP3    H242608   6.293   2.417  12.347  0.5428  1.0917  0.9898
 7065TIP3   OH242609   2.716   2.164  15.685  0.1155  0.4122 -0.0427
 7065TIP3    H142610   2.628   2.192  15.661  0.6053  0.9111 -1.3010
 7065TIP3    H242611   2.751   2.123  15.607  0.3739 -1.4258  0.9907
 7066TIP3   OH242612   3.534   5.824   5.368 -0.2674  0.7919  0.3975
 7066TIP3    H142613   3.530   5.888   5.439  0.2419  0.5378  0.6600
 7066TIP3    H242614   3.532   5.739   5.412 -2.2235  0.5886 -0.0084
 7067TIP3   OH242615   1.025   2.838  11.588 -0.1303 -0.5998 -0.3816
 7067TIP3    H142616   1.005   2.747  11.609 -3.0724 -0.2260 -1.1452
 7067TIP3    H242617   0.996   2.887  11.665  0.1629 -0.1978 -0.5253
 7068TIP3   OH242618   0.734   0.277  11.542 -0.0997 -0.9139 -0.3491
 7068TIP3    H142619   0.648   0.246  11.514  0.6012 -3.6001  0.1944
 7068TIP3    H242620   0.724   0.295  11.636 -0.5913  0.9788 -0.7307
 7069TIP3   OH242621   4.053   2.078  15.094  0.2923  0.3476  0.0438
 7069TIP3    H142622   4.000   2.022  15.151  0.3458  0.1259 -0.1257
 7069TIP3    H242623   4.014   2.165  15.105  1.4814  0.7017  1.8965
 7070TIP3   OH242624   4.572   5.882   1.902  0.2360 -0.0311  0.4604
 7070TIP3    H142625   4.536   5.903   1.988  0.6351  0.3112  0.5473
 7070TIP3    H242626   4.622   5.801   1.916 -1.0842 -0.9161  0.1811
 7071TIP3   OH242627   6.079   2.716  16.344  0.6586 -0.2522 -0.6054
 7071TIP3    H142628   5.991   2.722  16.381  0.4802 -2.3356 -0.6091
 7071TIP3    H242629   6.132   2.678  16.414  1.3121 -0.0448 -0.9782
 7072TIP3   OH242630   6.166   6.603  10.742  0.0065  0.2105 -0.1366
 7072TIP3    H142631   6.142   6.515  10.712 -0.2370  0.4854 -0.7796
 7072TIP3    H242632   6.142   6.604  10.834 -0.9246 -0.0784 -0.3597
 7073TIP3   OH242633   2.310   2.257   5.144  0.4680  1.0209 -0.1475
 7073TIP3    H142634   2.286   2.183   5.089  1.8112 -0.9602  1.7462
 7073TIP3    H242635   2.258   2.331   5.110 -2.2975 -1.1561 -1.0036
 7074TIP3   OH242636   2.507   0.101  11.869 -0.4826 -0.3528 -0.7018
 7074TIP3    H142637   2.471   0.016  11.847 -0.4850 -0.0415 -1.9766
 7074TIP3    H242638   2.546   0.133  11.787 -0.8084  1.0234 -0.3568
 7075TIP3   OH242639   6.711   6.277   2.751 -0.0172  0.2073  0.1377
 7075TIP3    H142640   6.622   6.312   2.745 -1.5630 -3.1847  1.0509
 7075TIP3    H242641   6.729   6.275   2.845  0.7736  0.2482 -0.0054
 7076TIP3   OH242642   6.264   0.420  11.355  0.1751  0.4206 -0.0194
 7076TIP3    H142643   6.193   0.459  11.406  0.1799 -1.2001  1.3168
 7076TIP3    H242644   6.338   0.479  11.367 -0.4993  1.2995 -0.1217
 7077TIP3   OH242645   1.814   6.637   0.473  0.4165 -0.5043  0.1754
 7077TIP3    H142646   1.773   6.570   0.419  0.0594 -0.4593  0.3876
 7077TIP3    H242647   1.762   6.639   0.553 -0.3442  0.9071 -0.3267
 7078TIP3   OH242648   4.093   0.067  11.757 -0.1444  1.0229 -0.0569
 7078TIP3    H142649   4.182   0.057  11.724  0.3415  1.4484  1.0767
 7078TIP3    H242650   4.067  -0.022  11.783 -0.0434  0.9057 -0.3553
 7079TIP3   OH242651   5.297   3.811  14.766  0.5872 -0.2470  0.2690
 7079TIP3    H142652   5.269   3.881  14.826  1.2563  1.4748 -1.3355
 7079TIP3    H242653   5.228   3.806  14.700  2.1162  1.3851 -1.5658
 7080TIP3   OH242654   2.354   0.002  14.441  0.3307  0.0768 -0.4173
 7080TIP3    H142655   2.263   0.014  14.468 -0.3271 -1.5359 -1.7160
 7080TIP3    H242656   2.390  -0.060  14.504  0.0394 -0.4769 -0.7814
 7081TIP3   OH242657   2.999   3.967   0.965  0.6493 -0.0812  0.3681
 7081TIP3    H142658   2.991   3.905   1.037 -2.5125  1.1135  1.2353
 7081TIP3    H242659   2.933   4.033   0.983  2.1097  2.1777 -1.8605
 7082TIP3   OH242660   4.219   5.211   6.012 -0.1753  0.1305 -0.4359
 7082TIP3    H142661   4.308   5.247   6.013 -0.5684  1.2058 -1.5354
 7082TIP3    H242662   4.227   5.129   5.964  0.2661  0.1003 -0.3132
 7083TIP3   OH242663   4.742   6.149   3.407 -0.4412 -0.0134 -0.0893
 7083TIP3    H142664   4.676   6.106   3.351 -1.9043  1.7903  0.1399
 7083TIP3    H242665   4.816   6.163   3.349 -1.9073  1.7788 -1.6619
 7084TIP3   OH242666   2.708   2.040   3.412 -0.0028  0.1183 -0.0090
 7084TIP3    H142667   2.748   1.956   3.390 -0.4650 -0.3730  0.9501
 7084TIP3    H242668   2.626   2.042   3.363 -0.1596 -0.1497  0.2415
 7085TIP3   OH242669   2.108   5.364  14.520 -0.1623  0.2846  0.2971
 7085TIP3    H142670   2.074   5.347  14.608 -0.5167 -1.1235 -0.0860
 7085TIP3    H242671   2.107   5.459  14.512 -0.3558  0.4248  1.7241
 7086TIP3   OH242672   5.444   6.634  13.884  0.1926 -0.1105  0.2127
 7086TIP3    H142673   5.482   6.687  13.954  0.4666 -0.6507  0.4808
 7086TIP3    H242674   5.428   6.696  13.813 -3.3724  1.2479  1.9051
 7087TIP3   OH242675   5.155   5.394  12.655  0.2942 -0.3231  0.0939
 7087TIP3    H142676   5.113   5.346  12.583  0.7185  0.5515 -0.7580
 7087TIP3    H242677   5.229   5.439  12.614  0.2903  0.5344  0.9963
 7088TIP3   OH242678   2.705   5.275   2.484  0.2713 -0.1859  0.5831
 7088TIP3    H142679   2.635   5.283   2.420 -0.8460 -2.0507  1.4918
 7088TIP3    H242680   2.748   5.192   2.462  0.5407 -0.3226  1.5707
 7089TIP3   OH242681   6.317   5.231   2.091 -0.2142  1.0188 -0.2366
 7089TIP3    H142682   6.252   5.249   2.023 -0.7972  0.2799  0.1111
 7089TIP3    H242683   6.387   5.183   2.046 -1.2544 -0.7380 -0.0672
 7090TIP3   OH242684   2.723   6.402  12.869  0.2337 -0.2201 -0.4072
 7090TIP3    H142685   2.729   6.355  12.786  0.7777  1.4251 -1.3410
 7090TIP3    H242686   2.631   6.429  12.875  0.1949 -0.3374 -0.4665
 7091TIP3   OH242687   3.084   1.812   1.530  0.1501 -0.1437  0.2939
 7091TIP3    H142688   3.130   1.794   1.612  2.5478 -0.8424 -1.1111
 7091TIP3    H242689   3.086   1.729   1.482  1.0581  0.8390 -1.4779
 7092TIP3   OH242690   0.220   0.619  13.560 -0.3858 -0.3232 -1.0137
 7092TIP3    H142691   0.251   0.607  13.650  0.0324  0.8217 -0.9948
 7092TIP3    H242692   0.234   0.534  13.519  0.7522 -0.4610 -0.3909
 7093TIP3   OH242693   5.914   4.009   1.750  0.1780  0.1339  0.3259
 7093TIP3    H142694   5.875   4.066   1.683  1.3881  0.1848 -0.3706
 7093TIP3    H242695   5.953   3.937   1.700  0.1544 -0.4076  1.0686
 7094TIP3   OH242696   3.101   4.441  11.850 -0.2852 -0.8055 -0.4810
 7094TIP3    H142697   3.185   4.398  11.829  1.2577  0.8436  1.7955
 7094TIP3    H242698   3.113   4.532  11.824 -2.0244 -0.8358 -1.5560
 7095TIP3   OH242699   5.340   6.367   2.158  0.2738 -0.3155  0.0720
 7095TIP3    H142700   5.266   6.427   2.171  1.3370  1.1424 -0.3169
 7095TIP3    H242701   5.416   6.425   2.149  1.0758 -1.5992 -2.3568
 7096TIP3   OH242702   2.840   4.208  13.475 -0.2859 -0.2063  0.3707
 7096TIP3    H142703   2.776   4.167  13.418  1.0734 -0.6098 -0.9426
 7096TIP3    H242704   2.923   4.201  13.427  1.0020 -0.8749  2.5479
 7097TIP3   OH242705   1.981   5.231   2.079 -0.3892  0.0942 -0.3822
 7097TIP3    H142706   1.949   5.181   2.004 -0.7371  0.9991 -0.8569
 7097TIP3    H242707   1.960   5.322   2.058  0.2220  0.4457  0.4616
 7098TIP3   OH242708   3.014   1.783  11.931  0.0884 -0.1180 -0.1214
 7098TIP3    H142709   2.929   1.741  11.917 -0.3479  0.5565  0.4045
 7098TIP3    H242710   3.054   1.786  11.845  0.2832 -1.8979 -0.1245
 7099TIP3   OH242711   4.015   2.475  16.941 -0.4277 -0.0940 -0.5799
 7099TIP3    H142712   4.057   2.558  16.918 -1.0375  0.2318 -0.5229
 7099TIP3    H242713   3.941   2.500  16.996  0.0271 -0.7539  0.3506
 7100TIP3   OH242714   3.732   6.011  13.754 -0.6696  0.2876  0.5448
 7100TIP3    H142715   3.676   6.004  13.831 -0.8541 -0.2679  0.3651
 7100TIP3    H242716   3.672   6.008  13.680 -0.3211 -2.4148  0.2598
 7101TIP3   OH242717   4.848   1.174   0.859  0.7397  0.0353 -0.2819
 7101TIP3    H142718   4.793   1.227   0.801 -1.3778 -1.1988  0.4955
 7101TIP3    H242719   4.820   1.198   0.947  1.0265 -1.0305  0.1160
 7102TIP3   OH242720   0.360   2.011   1.891  0.1570  0.0970  0.2266
 7102TIP3    H142721   0.446   1.978   1.866  1.1002  1.6059  1.2655
 7102TIP3    H242722   0.332   2.063   1.815  0.1610 -0.4029 -0.1177
 7103TIP3   OH242723   2.515   5.627   1.443  0.3015 -0.0779 -0.2816
 7103TIP3    H142724   2.479   5.716   1.447 -0.3526 -0.3696  0.6826
 7103TIP3    H242725   2.473   5.588   1.367 -0.2105  0.1034 -0.0969
 7104TIP3   OH242726   0.487   4.458   0.071 -0.1035  0.0876  0.1524
 7104TIP3    H142727   0.578   4.439   0.046 -0.6918 -1.4962 -0.9520
 7104TIP3    H242728   0.466   4.540   0.027  1.6326  2.0695  2.7097
 7105TIP3   OH242729   3.302   4.640   2.399 -0.2075 -0.1478 -0.1651
 7105TIP3    H142730   3.306   4.736   2.392  1.6434 -0.2226 -0.6235
 7105TIP3    H242731   3.265   4.611   2.315 -3.0977  0.2120  0.8557
 7106TIP3   OH242732   5.884   4.947   5.237 -0.5777  0.2756 -0.2861
 7106TIP3    H142733   5.905   4.996   5.316 -0.0672 -2.8865  1.6826
 7106TIP3    H242734   5.797   4.911   5.252 -0.8085  0.2580 -1.5260
 7107TIP3   OH242735   6.075   2.813   1.680 -0.0546 -0.4606  0.1115
 7107TIP3    H142736   6.171   2.808   1.682  0.0536  0.4762 -1.1398
 7107TIP3    H242737   6.046   2.726   1.708  1.1292 -0.4014  1.6496
 7108TIP3   OH242738   1.487   5.915  11.725 -0.0924 -0.1346 -0.6439
 7108TIP3    H142739   1.488   5.824  11.753 -1.3499 -0.1773 -0.6958
 7108TIP3    H242740   1.456   5.963  11.802  1.0994  0.3449 -0.4289
 7109TIP3   OH242741   1.556   4.717  12.136 -0.8669  0.0733 -0.2135
 7109TIP3    H142742   1.493   4.677  12.196  1.0884 -2.3750  0.3658
 7109TIP3    H242743   1.590   4.792  12.185  1.2910 -2.3156  2.2863
 7110TIP3   OH242744   6.600   1.839   1.594  0.1559  0.0874 -0.1186
 7110TIP3    H142745   6.545   1.904   1.637 -0.4658 -0.2681 -0.3701
 7110TIP3    H242746   6.550   1.758   1.599 -0.7094  0.3502 -2.9667
 7111TIP3   OH242747   1.327   1.251  15.648 -0.0696  0.2034  0.0585
 7111TIP3    H142748   1.390   1.227  15.580 -1.1848  0.9150 -1.2617
 7111TIP3    H242749   1.244   1.216  15.617 -0.6613  0.8252  0.9087
 7112TIP3   OH242750   0.670   0.164  13.730  0.3241 -0.5810 -0.1534
 7112TIP3    H142751   0.700   0.168  13.821  1.0460 -1.7773 -0.3141
 7112TIP3    H242752   0.628   0.078  13.721  1.3937 -1.0334 -1.2501
 7113TIP3   OH242753   3.238   4.169  16.694  0.0584  0.0368  0.0074
 7113TIP3    H142754   3.181   4.198  16.623  0.0637  1.0591  0.3988
 7113TIP3    H242755   3.179   4.135  16.761 -0.3076  2.7824  1.1987
 7114TIP3   OH242756   3.248   1.927  15.667 -0.4946 -0.3716 -0.1307
 7114TIP3    H142757   3.252   1.894  15.577 -0.4708  1.1971 -0.7379
 7114TIP3    H242758   3.224   2.019  15.658 -1.4126 -0.4002  1.5306
 7115TIP3   OH242759   4.814   6.080  13.586  0.0363 -0.2337 -0.4816
 7115TIP3    H142760   4.856   6.002  13.622  0.0535 -0.2470 -0.5314
 7115TIP3    H242761   4.747   6.046  13.526  1.9467 -0.2409 -2.7824
 7116TIP3   OH242762   1.936   5.545  12.503  0.2969 -0.0810 -0.0907
 7116TIP3    H142763   1.924   5.459  12.464  0.8152 -0.5879  0.8413
 7116TIP3    H242764   1.868   5.599  12.463 -1.0687 -1.3138  0.4939
 7117TIP3   OH242765   4.150   3.094   3.156  0.3026 -0.2164  0.0209
 7117TIP3    H142766   4.137   3.042   3.235  2.2167  0.0788  0.5722
 7117TIP3    H242767   4.094   3.051   3.090  0.2943 -1.7505  0.9777
 7118TIP3   OH242768   0.111   4.506  15.833  0.2086  0.4577 -0.3289
 7118TIP3    H142769   0.039   4.446  15.852  0.0740 -0.3187 -2.9301
 7118TIP3    H242770   0.169   4.457  15.775  1.9426  1.6799  0.2966
 7119TIP3   OH242771   0.081   5.111   6.082 -0.5418  0.3361  0.0139
 7119TIP3    H142772   0.065   5.205   6.085 -1.1967  0.2131  2.2918
 7119TIP3    H242773  -0.005   5.072   6.092 -0.0875 -0.4746  0.8852
 7120TIP3   OH242774   1.031   3.970   3.097 -0.7998  0.1529 -0.8723
 7120TIP3    H142775   1.070   3.977   3.183 -0.3934 -1.2206 -0.9200
 7120TIP3    H242776   1.105   3.964   3.037 -1.0767  1.2747 -1.3510
 7121TIP3   OH242777   0.973   4.817  16.573 -0.1947  0.0017  0.4932
 7121TIP3    H142778   0.921   4.738  16.565  0.3840 -0.5860  2.0935
 7121TIP3    H242779   0.951   4.852  16.660  1.5911  0.0478  0.9793
 7122TIP3   OH242780   3.193   5.343   6.178 -0.0400 -0.0056 -0.1739
 7122TIP3    H142781   3.172   5.431   6.145 -1.8411  0.1764  1.3277
 7122TIP3    H242782   3.228   5.358   6.266  2.2704 -0.6658 -0.9037
 7123TIP3   OH242783   1.518   1.426   2.848  0.3331  0.1085 -0.3378
 7123TIP3    H142784   1.495   1.472   2.929 -0.4444 -1.0642  0.1293
 7123TIP3    H242785   1.441   1.435   2.793  0.4660  0.0041 -0.5412
 7124TIP3   OH242786   5.747   1.237  12.348  0.4808 -0.2389 -0.7183
 7124TIP3    H142787   5.673   1.178  12.330  0.1262  0.2081 -0.7594
 7124TIP3    H242788   5.717   1.289  12.423  1.8752 -1.9807  1.1519
 7125TIP3   OH242789   1.609   4.852  11.406 -0.2445  0.5947 -0.9344
 7125TIP3    H142790   1.526   4.887  11.374  0.3463  2.0177 -0.9798
 7125TIP3    H242791   1.657   4.827  11.327 -0.6121 -0.2367 -0.9088
 7126TIP3   OH242792   3.729   0.063   5.604  1.0756 -0.5721 -0.0081
 7126TIP3    H142793   3.789   0.030   5.671 -0.2743 -1.0299  1.0348
 7126TIP3    H242794   3.685   0.138   5.646  1.0734 -0.0928 -0.8364
 7127TIP3   OH242795   0.160   2.127   2.917 -0.4285  0.2197 -0.2192
 7127TIP3    H142796   0.136   2.073   2.993 -1.5802 -0.5336 -1.0774
 7127TIP3    H242797   0.086   2.186   2.905  0.2459  1.0997 -0.0881
 7128TIP3   OH242798   5.190   5.650   5.027 -0.0524 -0.0826 -0.4171
 7128TIP3    H142799   5.139   5.579   5.065  0.0371  1.3325  2.6169
 7128TIP3    H242800   5.126   5.701   4.977 -0.5013 -1.1783 -0.9994
 7129TIP3   OH242801   5.039   1.796   4.184 -0.2920  0.3178  0.4575
 7129TIP3    H142802   5.055   1.707   4.152 -0.7167  0.0498  0.9707
 7129TIP3    H242803   4.946   1.796   4.209  0.2648  0.1475  2.7942
 7130TIP3   OH242804   1.724   6.305  14.482  0.7114 -0.0939 -0.3271
 7130TIP3    H142805   1.646   6.263  14.444  0.3883 -0.6069  0.8601
 7130TIP3    H242806   1.702   6.398  14.484  0.0902 -0.2422  0.0520
 7131TIP3   OH242807   0.826   5.896   4.205 -0.2361 -0.9639 -0.2610
 7131TIP3    H142808   0.889   5.968   4.197 -0.1831 -1.1460 -1.6852
 7131TIP3    H242809   0.753   5.933   4.254 -0.1197  0.0134 -0.8055
 7132TIP3   OH242810   2.837   0.727  12.070  0.1167  0.1015  0.9595
 7132TIP3    H142811   2.742   0.717  12.064  0.3561 -2.0697 -0.3823
 7132TIP3    H242812   2.865   0.737  11.979  1.2763 -0.7549  1.2003
 7133TIP3   OH242813   6.332   0.635  15.987 -0.2235 -0.9250 -0.2149
 7133TIP3    H142814   6.280   0.689  16.047  1.3592 -0.0945  0.4678
 7133TIP3    H242815   6.406   0.605  16.040  1.5716  0.3547 -1.8929
 7134TIP3   OH242816   3.471   3.076  13.106  0.0838 -0.4770 -0.4123
 7134TIP3    H142817   3.526   3.150  13.079 -1.3344  0.4373 -0.9321
 7134TIP3    H242818   3.533   3.005  13.123  1.6937  1.2869  1.8334
 7135TIP3   OH242819   5.676   6.452  16.519 -0.3706  0.2282 -0.6049
 7135TIP3    H142820   5.693   6.512  16.447  0.6662 -0.2879 -0.8126
 7135TIP3    H242821   5.743   6.471  16.584 -1.1128  0.4844  0.1101
 7136TIP3   OH242822   3.861   5.172   5.927 -0.5724 -0.3363 -0.2363
 7136TIP3    H142823   3.853   5.110   5.999 -0.4284 -2.4084 -1.9219
 7136TIP3    H242824   3.772   5.179   5.891 -0.9149  1.6947  0.8766
 7137TIP3   OH242825   0.195   4.924   0.972 -0.5769  1.1254  0.0582
 7137TIP3    H142826   0.207   4.842   0.923  0.1707  0.8946  0.5902
 7137TIP3    H242827   0.227   4.992   0.914 -0.9883  1.0135 -0.3013
 7138TIP3   OH242828   6.053   4.220  14.616 -0.3500 -0.0953 -0.0955
 7138TIP3    H142829   6.091   4.302  14.584 -0.0227 -0.1268  0.1953
 7138TIP3    H242830   5.977   4.247  14.667 -0.2499  0.0295 -0.0103
 7139TIP3   OH242831   1.051   5.481  16.282  0.1008 -0.0235 -0.7454
 7139TIP3    H142832   1.090   5.542  16.345  2.6088  1.1074 -3.2010
 7139TIP3    H242833   1.107   5.404  16.285 -1.2192 -1.0162  0.0551
 7140TIP3   OH242834   3.720   3.559  16.502  0.7165  0.1423 -0.7180
 7140TIP3    H142835   3.767   3.560  16.586  0.2952 -1.2874 -0.4442
 7140TIP3    H242836   3.686   3.470  16.494  0.5962  0.3023 -2.3353
 7141TIP3   OH242837   2.340   3.673   5.656 -0.1639 -0.0269 -0.0679
 7141TIP3    H142838   2.385   3.619   5.721 -0.2311  0.4196  0.3514
 7141TIP3    H242839   2.407   3.693   5.591  0.6582  1.8174  1.2661
 7142TIP3   OH242840   2.094   0.194   3.725  0.4356  0.2903  1.0764
 7142TIP3    H142841   2.182   0.221   3.699  0.9673 -2.2756 -0.0250
 7142TIP3    H242842   2.044   0.192   3.643  0.1256 -0.9270  1.2813
 7143TIP3   OH242843   1.259   0.930   1.748  0.0430 -0.0129  0.3574
 7143TIP3    H142844   1.208   0.938   1.667 -2.9778 -0.9244  1.9799
 7143TIP3    H242845   1.292   0.840   1.746  0.7501  0.2554 -0.2560
 7144TIP3   OH242846   1.624   3.185   2.230 -0.0397 -0.3227 -0.2843
 7144TIP3    H142847   1.692   3.118   2.223  0.8347  0.6048 -0.7636
 7144TIP3    H242848   1.620   3.206   2.324  0.7684  0.0662 -0.3353
 7145TIP3   OH242849   3.928   4.296  17.044  0.3680  0.8210 -0.0964
 7145TIP3    H142850   4.013   4.260  17.070  0.8509  2.4166  0.6673
 7145TIP3    H242851   3.927   4.384  17.082 -1.3501  1.0834 -0.6786
 7146TIP3   OH242852   0.109   5.645  13.381  0.1925 -0.1895 -0.2005
 7146TIP3    H142853   0.075   5.734  13.388 -0.3740 -0.5290  1.9860
 7146TIP3    H242854   0.032   5.589  13.391  0.9344 -0.9362  1.8473
 7147TIP3   OH242855   5.658   2.770   2.142  0.2218 -0.0285  0.5450
 7147TIP3    H142856   5.604   2.825   2.199  1.6413  0.8350  1.1095
 7147TIP3    H242857   5.705   2.832   2.086 -0.1246 -0.8103 -0.6534
 7148TIP3   OH242858   4.389   5.846   0.177  0.1037  0.4094  0.6831
 7148TIP3    H142859   4.483   5.835   0.169  0.1443  0.5278  1.0064
 7148TIP3    H242860   4.367   5.914   0.112  0.2928  0.6442  0.8649
 7149TIP3   OH242861   0.015   5.131  15.859 -0.3851 -0.0803 -0.0183
 7149TIP3    H142862   0.095   5.110  15.908  0.8432  0.6962 -1.6101
 7149TIP3    H242863  -0.048   5.156  15.926  0.2289 -2.0768  1.4035
 7150TIP3   OH242864   2.940   0.935   0.420  0.7416  0.6737  0.1062
 7150TIP3    H142865   2.929   0.980   0.336 -1.4427  2.1881  1.1193
 7150TIP3    H242866   2.976   1.003   0.478  1.1783 -0.0507  0.7004
 7151TIP3   OH242867   3.978   1.757   4.714 -0.4264 -0.1647  0.6455
 7151TIP3    H142868   4.038   1.685   4.733 -0.1084  0.1766  0.9394
 7151TIP3    H242869   3.988   1.817   4.788 -0.3857  0.3781  0.2034
 7152TIP3   OH242870   3.361   1.485   4.730 -0.4923  0.2964  0.1492
 7152TIP3    H142871   3.451   1.458   4.712 -0.1766  0.7489  1.0065
 7152TIP3    H242872   3.356   1.576   4.700 -0.0621  0.9408  1.9199
 7153TIP3   OH242873   1.230   1.207   1.834  0.1266  0.8728 -0.6418
 7153TIP3    H142874   1.236   1.112   1.821  1.5533  1.1042 -1.9638
 7153TIP3    H242875   1.149   1.219   1.884 -0.4541 -0.9839 -1.0430
 7154TIP3   OH242876   1.972   1.730  13.807  0.2515 -0.6088  1.3990
 7154TIP3    H142877   1.993   1.680  13.886  2.5681 -1.3994  0.3604
 7154TIP3    H242878   1.962   1.664  13.738  0.7644  0.1856  0.5320
 7155TIP3   OH242879   3.650   3.081  10.700 -0.0693 -0.1617 -0.9863
 7155TIP3    H142880   3.570   3.123  10.731 -0.2619 -0.8751 -0.5054
 7155TIP3    H242881   3.701   3.153  10.662 -1.0548  0.2589 -1.5685
 7156TIP3   OH242882   5.686   6.361   0.326  0.0624 -0.0957  0.3508
 7156TIP3    H142883   5.633   6.319   0.394 -0.4697  1.0948  0.6802
 7156TIP3    H242884   5.729   6.433   0.370 -2.4821  2.5143 -1.0950
 7157TIP3   OH242885   4.983   0.793  15.909  0.3183 -0.0641  0.4989
 7157TIP3    H142886   5.070   0.753  15.917  0.1864 -0.4083  0.2286
 7157TIP3    H242887   4.963   0.825  15.997  1.0561  0.7244  0.3944
 7158TIP3   OH242888   6.407   2.907  16.660 -0.1751 -0.1601 -0.0736
 7158TIP3    H142889   6.327   2.956  16.641 -0.1092  0.3627  0.9089
 7158TIP3    H242890   6.378   2.832  16.712  0.1163  0.9834  1.8464
 7159TIP3   OH242891   1.910   3.121   1.841  0.2463 -0.1287 -0.1059
 7159TIP3    H142892   1.853   3.182   1.888  1.1456 -0.7672  1.9405
 7159TIP3    H242893   1.850   3.061   1.798 -0.6395  0.4258  0.3261
 7160TIP3   OH242894   1.252   1.111  14.065  0.6727 -0.1986  0.1304
 7160TIP3    H142895   1.219   1.150  14.146  1.8692 -0.8800  0.9770
 7160TIP3    H242896   1.223   1.170  13.996  0.3409  0.8472  1.1416
 7161TIP3   OH242897   3.698   5.329   1.191 -0.5222  0.6368 -0.1226
 7161TIP3    H142898   3.674   5.303   1.102  0.6594 -0.9984 -0.0121
 7161TIP3    H242899   3.777   5.381   1.180 -1.2295  1.7478 -0.1134
 7162TIP3   OH242900   0.547   4.656  11.743  0.5772  0.1760  0.3939
 7162TIP3    H142901   0.541   4.741  11.787  1.0091  0.3471  0.1293
 7162TIP3    H242902   0.537   4.676  11.650 -2.3500 -0.3962  0.4721
 7163TIP3   OH242903   4.465   2.678  14.032  0.7210  0.0223 -0.5827
 7163TIP3    H142904   4.454   2.771  14.054  1.7923 -0.3955  2.2394
 7163TIP3    H242905   4.381   2.638  14.052 -0.1289  0.5034 -2.9576
 7164TIP3   OH242906   0.099   6.789  12.116 -0.6357 -0.2586 -0.2771
 7164TIP3    H142907   0.164   6.802  12.047  1.2059 -1.2462  1.1746
 7164TIP3    H242908   0.032   6.854  12.098  0.3818  0.3334 -2.2738
 7165TIP3   OH242909   4.525   4.090   0.264  0.1800  0.4375 -0.7185
 7165TIP3    H142910   4.500   4.130   0.181 -0.7975 -0.6487 -0.9678
 7165TIP3    H242911   4.573   4.011   0.240 -0.5822 -0.1773 -0.2725
 7166TIP3   OH242912   0.345   5.961  11.754 -0.6968  0.2861 -0.2213
 7166TIP3    H142913   0.421   5.907  11.733 -0.3405  0.2804  1.0242
 7166TIP3    H242914   0.276   5.927  11.698  0.2979  0.5589 -1.6893
 7167TIP3   OH242915   3.127   3.135   5.568 -0.4888 -0.1849 -0.1042
 7167TIP3    H142916   3.181   3.080   5.511  2.5217  0.5984  1.7539
 7167TIP3    H242917   3.113   3.082   5.646 -1.4828  0.0528 -0.1109
 7168TIP3   OH242918   4.049   3.920   0.449  0.4150 -0.0501  0.0768
 7168TIP3    H142919   4.121   3.932   0.511 -0.6474  1.7742  1.0373
 7168TIP3    H242920   4.078   3.848   0.393  3.0757  0.7444  0.2783
 7169TIP3   OH242921   6.281   0.841  11.366 -0.2216 -0.1024  0.1357
 7169TIP3    H142922   6.198   0.850  11.412  0.0132  1.9930  0.2523
 7169TIP3    H242923   6.258   0.845  11.273 -0.3143 -0.0188  0.1625
 7170TIP3   OH242924   4.851   2.545   5.412  0.1477  0.1817 -0.1842
 7170TIP3    H142925   4.878   2.614   5.473  1.4181  0.5420 -1.1172
 7170TIP3    H242926   4.933   2.508   5.380 -0.5000 -2.0609  0.5950
 7171TIP3   OH242927   6.387   4.630  15.298  0.0051 -0.5842  0.3045
 7171TIP3    H142928   6.390   4.673  15.384 -0.1433  0.3687 -0.1456
 7171TIP3    H242929   6.296   4.600  15.290  0.0115 -0.6477  0.4762
 7172TIP3   OH242930   6.136   5.113  15.621 -0.2778  0.3904 -0.1963
 7172TIP3    H142931   6.131   5.127  15.526  0.5375 -2.2495 -0.7285
 7172TIP3    H242932   6.225   5.140  15.645 -0.9795  2.5545  0.1869
 7173TIP3   OH242933   5.581   0.596   4.538 -0.9780 -1.0962 -0.7878
 7173TIP3    H142934   5.557   0.659   4.471 -0.1585 -1.3979 -1.3890
 7173TIP3    H242935   5.659   0.553   4.503 -1.1788 -2.0279 -0.1268
 7174TIP3   OH242936   0.591   3.745  13.980 -0.3370  0.3002  0.2716
 7174TIP3    H142937   0.528   3.677  14.004  0.3169 -0.6441 -0.6530
 7174TIP3    H242938   0.670   3.722  14.028 -0.2610  0.6949  0.3382
 7175TIP3   OH242939   3.530   1.414   5.576 -0.1115  0.0604 -0.0497
 7175TIP3    H142940   3.625   1.410   5.559  0.5207 -2.3463  3.0854
 7175TIP3    H242941   3.492   1.350   5.516  0.3219  0.5221 -0.8316
 7176TIP3   OH242942   4.442   6.403  14.684 -0.3904  0.4225  0.4296
 7176TIP3    H142943   4.527   6.382  14.723  0.1439  1.4889 -0.1266
 7176TIP3    H242944   4.383   6.413  14.759  0.2132  0.6903  0.8711
 7177TIP3   OH242945   4.711   0.116   4.194  0.1517 -0.2275  0.5668
 7177TIP3    H142946   4.619   0.122   4.219  0.0986  0.4645  0.2471
 7177TIP3    H242947   4.749   0.200   4.222  0.2078  0.3493 -1.1290
 7178TIP3   OH242948   2.434   3.204  11.006 -0.2346  0.0529 -0.5355
 7178TIP3    H142949   2.464   3.208  10.915  1.0556 -1.8201 -0.2407
 7178TIP3    H242950   2.500   3.253  11.055 -0.7318  0.7460 -0.5453
 7179TIP3   OH242951   2.639   5.569  14.326  0.7244 -0.0075  0.8663
 7179TIP3    H142952   2.641   5.621  14.407  0.9860 -1.1970  1.6592
 7179TIP3    H242953   2.668   5.630  14.258  0.6533  0.9842  1.6863
 7180TIP3   OH242954   6.803   0.525   1.589  0.0227 -0.5642 -0.1084
 7180TIP3    H142955   6.727   0.496   1.539  1.6508 -2.6583 -1.5324
 7180TIP3    H242956   6.804   0.470   1.666 -1.2046  1.1436  1.2178
 7181TIP3   OH242957   3.696   4.609   3.130  0.3342 -0.0730 -0.7437
 7181TIP3    H142958   3.781   4.567   3.122  0.3983  0.2396 -1.9930
 7181TIP3    H242959   3.667   4.622   3.039 -0.4430  1.0161 -0.3698
 7182TIP3   OH242960   6.511   3.250   1.517 -0.5171  0.1876  0.1483
 7182TIP3    H142961   6.481   3.175   1.465 -0.3042  2.1023 -3.0086
 7182TIP3    H242962   6.605   3.256   1.499 -0.4235  0.9200  0.8023
 7183TIP3   OH242963   4.207   2.520   5.107  0.2679 -0.2351  0.4182
 7183TIP3    H142964   4.114   2.527   5.085  0.3136  0.1865  0.3538
 7183TIP3    H242965   4.210   2.533   5.202  0.2026 -0.8057  0.4992
 7184TIP3   OH242966   0.450   0.430   3.861  0.2610  1.1292  0.5758
 7184TIP3    H142967   0.500   0.367   3.912 -0.0600 -0.5421 -1.0943
 7184TIP3    H242968   0.359   0.401   3.868  0.0371  1.7079  0.1928
 7185TIP3   OH242969   0.566   4.227   1.030  0.1485  0.2288 -0.0646
 7185TIP3    H142970   0.570   4.280   0.950 -1.3336  3.1661  1.6641
 7185TIP3    H242971   0.477   4.192   1.032  0.3273 -0.2302  0.1013
 7186TIP3   OH242972   3.011   6.238  10.317  0.5042  0.4572  0.2633
 7186TIP3    H142973   3.058   6.155  10.322  0.6803  0.5504  0.1666
 7186TIP3    H242974   2.947   6.234  10.388 -1.7625 -1.1407 -1.7322
 7187TIP3   OH242975   4.062   0.571  14.130  0.3501 -0.4162 -0.5657
 7187TIP3    H142976   4.017   0.645  14.172 -0.2728 -0.3086 -1.4003
 7187TIP3    H242977   4.141   0.559  14.183  0.6160  1.0401 -0.5792
 7188TIP3   OH242978   1.479   6.758   2.253 -0.5375 -0.1877  0.8633
 7188TIP3    H142979   1.552   6.737   2.312  1.4164  0.1841 -1.2620
 7188TIP3    H242980   1.400   6.739   2.304  1.0296 -2.5203  2.6184
 7189TIP3   OH242981   6.281   4.425   6.085  0.3704  0.0566 -0.1062
 7189TIP3    H142982   6.186   4.435   6.080  0.2295 -1.3723 -0.6803
 7189TIP3    H242983   6.296   4.380   6.168  0.3452 -1.4909 -0.8967
 7190TIP3   OH242984   3.075   4.280   3.488 -0.0591 -0.1534 -0.2601
 7190TIP3    H142985   3.161   4.309   3.457 -1.8676  1.6252 -4.3086
 7190TIP3    H242986   3.050   4.208   3.431 -1.8099  0.2765 -0.1175
 7191TIP3   OH242987   4.440   2.592   6.317 -0.3573  0.4197 -0.3882
 7191TIP3    H142988   4.451   2.521   6.380  1.6649  1.5197  0.6127
 7191TIP3    H242989   4.404   2.550   6.239 -0.9581 -1.3546  0.7919
 7192TIP3   OH242990   6.488   1.039   5.803 -0.7226  0.5650 -0.0403
 7192TIP3    H142991   6.444   0.955   5.789 -0.5698  0.1352  1.8353
 7192TIP3    H242992   6.579   1.022   5.779 -0.8723  0.4827 -0.5797
 7193TIP3   OH242993   5.055   6.405   0.003 -0.7197  0.3430  0.0467
 7193TIP3    H142994   5.073   6.425  -0.089 -0.2648 -1.1691 -0.2235
 7193TIP3    H242995   5.123   6.343   0.028 -0.5825  1.0582  1.5504
 7194TIP3   OH242996   4.850   6.735   3.756  0.6074  0.1029  0.1957
 7194TIP3    H142997   4.867   6.666   3.821 -1.6798  0.7000  1.5570
 7194TIP3    H242998   4.868   6.817   3.803  0.8652  0.5066 -0.5904
 7195TIP3   OH242999   1.889   6.622  13.658 -0.1312  0.3231  0.0123
 7195TIP3    H143000   1.830   6.583  13.593 -2.2637 -0.0111  2.0173
 7195TIP3    H243001   1.888   6.561  13.731  0.6472  1.5951  1.1264
 7196TIP3   OH243002   5.875   1.901   5.952  0.0060  0.3646 -0.4160
 7196TIP3    H143003   5.786   1.922   5.923  1.2208  2.2435 -3.2837
 7196TIP3    H243004   5.930   1.961   5.902  2.8847 -0.5003  1.5255
 7197TIP3   OH243005   1.655   6.144   2.164 -0.1308 -0.2509 -0.4910
 7197TIP3    H143006   1.749   6.143   2.146  0.1771 -1.9478  0.9451
 7197TIP3    H243007   1.631   6.237   2.158  1.9709  0.4546  0.7313
 7198TIP3   OH243008   2.136   3.594   2.567  0.0187  0.1428 -0.5719
 7198TIP3    H143009   2.090   3.660   2.619 -1.7891 -1.6537  0.2193
 7198TIP3    H243010   2.171   3.643   2.492 -1.4368  1.9549 -0.1478
 7199TIP3   OH243011   6.585   2.551   1.387 -0.4143 -0.0887 -0.3837
 7199TIP3    H143012   6.497   2.559   1.349 -0.9034 -2.1393  0.1859
 7199TIP3    H243013   6.612   2.462   1.367 -0.2038 -0.9138  2.9249
 7200TIP3   OH243014   3.362   3.298   0.641 -0.5246 -0.6291 -0.0571
 7200TIP3    H143015   3.404   3.357   0.703  0.2470 -0.4138 -0.7587
 7200TIP3    H243016   3.408   3.314   0.558 -1.0658 -1.3988 -0.5204
 7201TIP3   OH243017   1.074   1.641  13.547 -0.3181  0.2633  0.3405
 7201TIP3    H143018   0.990   1.679  13.573  0.0213  1.4201 -0.1593
 7201TIP3    H243019   1.135   1.669  13.615 -0.3686 -0.7782  0.8312
 7202TIP3   OH243020   3.523   4.094  13.563  0.3476  0.1454  0.2812
 7202TIP3    H143021   3.476   4.171  13.593  0.8602  0.3291  0.6366
 7202TIP3    H243022   3.493   4.080  13.474 -2.3525 -1.2905  1.3046
 7203TIP3   OH243023   5.229   3.375   2.317 -0.3917  0.3314  0.5639
 7203TIP3    H143024   5.284   3.306   2.355 -0.3549  0.6909  1.1823
 7203TIP3    H243025   5.201   3.427   2.393 -0.3416  1.0504  0.0950
 7204TIP3   OH243026   4.258   6.760  12.084  0.1444  0.2276 -0.1541
 7204TIP3    H143027   4.180   6.705  12.092  0.6831 -0.5455 -0.1111
 7204TIP3    H243028   4.305   6.724  12.008  1.0847 -0.1294  0.5738
 7205TIP3   OH243029   4.044   1.746   1.844 -0.4170 -0.0529 -0.3030
 7205TIP3    H143030   4.044   1.840   1.827 -0.8311  0.2467  1.1698
 7205TIP3    H243031   4.134   1.725   1.867 -0.6779  0.3779  1.2039
 7206TIP3   OH243032   0.073   1.097  11.378 -0.0474 -0.1799  0.2166
 7206TIP3    H143033   0.122   1.160  11.430  0.4052  1.1951 -1.7660
 7206TIP3    H243034   0.058   1.023  11.437 -0.0552  1.4966  2.4253
 7207TIP3   OH243035   4.316   3.625  11.684 -0.0440  0.1337  0.5914
 7207TIP3    H143036   4.263   3.703  11.667 -1.1011 -0.8570 -0.9452
 7207TIP3    H243037   4.404   3.658  11.701 -0.6290  1.6886  0.6961
 7208TIP3   OH243038   3.777   6.654   4.337  0.2250  0.2381  0.3816
 7208TIP3    H143039   3.760   6.744   4.310  1.4849  0.1755 -0.7532
 7208TIP3    H243040   3.843   6.661   4.406 -1.3898  0.2813  1.9667
 7209TIP3   OH243041   3.127   0.421   0.555 -0.2699 -0.0495  0.5003
 7209TIP3    H143042   3.049   0.451   0.602  0.2959 -0.9819  2.1083
 7209TIP3    H243043   3.200   0.452   0.608  0.3855 -1.3870  0.4156
 7210TIP3   OH243044   5.865   3.451   0.037  0.2486 -0.2709  0.3399
 7210TIP3    H143045   5.909   3.502   0.104  1.2908 -1.1702  0.3586
 7210TIP3    H243046   5.934   3.398  -0.003 -0.3731  0.0875 -1.3076
 7211TIP3   OH243047   1.043   4.241   0.308 -0.1447  0.5008  0.3688
 7211TIP3    H143048   1.080   4.196   0.232  0.2741  0.0067  0.8583
 7211TIP3    H243049   1.044   4.176   0.378  0.6505  1.3058  1.1496
 7212TIP3   OH243050   2.095   6.036  13.297 -0.1239  0.1723 -0.2345
 7212TIP3    H143051   2.006   6.049  13.264 -0.2808  1.4496  0.6052
 7212TIP3    H243052   2.129   5.961  13.248 -1.9961 -0.9590  0.1124
 7213TIP3   OH243053   6.688   1.018  13.388  0.1236  0.0124 -0.4863
 7213TIP3    H143054   6.688   1.111  13.362  2.2717  0.4540  0.8134
 7213TIP3    H243055   6.685   0.970  13.305 -1.7416  1.1862 -1.1685
 7214TIP3   OH243056   4.879   4.744   0.486  0.3945 -0.0272 -0.4759
 7214TIP3    H143057   4.798   4.703   0.515  0.7423 -0.2136  0.2506
 7214TIP3    H243058   4.857   4.782   0.401 -0.6025  0.3865 -0.0598
 7215TIP3   OH243059   6.506   3.894  14.708  0.1238 -0.1696  0.0616
 7215TIP3    H143060   6.576   3.945  14.749 -0.4321  0.4702  0.2327
 7215TIP3    H243061   6.426   3.934  14.741 -0.3621  0.6261 -1.9527
 7216TIP3   OH243062   6.536   3.496  12.107 -0.0406  0.3652  0.5881
 7216TIP3    H143063   6.447   3.519  12.083 -0.3017 -0.0249  1.1525
 7216TIP3    H243064   6.555   3.547  12.186  0.0047 -0.0195  0.8318
 7217TIP3   OH243065   3.300   2.496  11.944  0.3496  0.5871  0.5013
 7217TIP3    H143066   3.341   2.497  12.030 -0.9784  0.6291  1.1741
 7217TIP3    H243067   3.304   2.587  11.914 -0.8258  0.9600  1.3812
 7218TIP3   OH243068   4.380   4.877  12.952 -0.2138 -0.0408 -0.1251
 7218TIP3    H143069   4.444   4.868  12.882 -0.5736 -0.0846 -0.4532
 7218TIP3    H243070   4.411   4.952  13.004  0.2626 -0.2494 -0.1005
 7219TIP3   OH243071   2.133   2.586  12.440 -0.7755 -0.7557  0.3571
 7219TIP3    H143072   2.163   2.633  12.363 -4.0359  0.1374 -0.5359
 7219TIP3    H243073   2.202   2.598  12.505  0.9214  0.6198 -1.5949
 7220TIP3   OH243074   5.471   4.060  13.748 -0.5500 -0.3044 -0.8859
 7220TIP3    H143075   5.501   4.133  13.693 -1.3951 -0.6623 -1.8675
 7220TIP3    H243076   5.501   3.981  13.701 -1.1542 -0.6126 -0.7684
 7221TIP3   OH243077   2.428   5.846  15.894 -0.5107  0.3257 -0.2626
 7221TIP3    H143078   2.450   5.922  15.947  1.5425  1.3599 -2.4163
 7221TIP3    H243079   2.384   5.882  15.817 -1.6641 -0.9371 -0.2470
 7222TIP3   OH243080   0.216   1.893  12.871  0.0058 -0.3967 -0.1348
 7222TIP3    H143081   0.251   1.808  12.844 -0.1630  0.0340 -1.8314
 7222TIP3    H243082   0.289   1.953  12.861  0.1823 -0.3497  1.2606
 7223TIP3   OH243083   2.923   6.566  13.599 -0.4084 -0.5221 -0.0195
 7223TIP3    H143084   3.016   6.587  13.596 -0.0408 -1.9062  0.4709
 7223TIP3    H243085   2.881   6.644  13.635  0.7492 -0.3546  1.0270
 7224TIP3   OH243086   3.386   3.620  13.281  0.1610  0.1686  0.1577
 7224TIP3    H143087   3.342   3.641  13.364  0.6103 -1.5011  0.8584
 7224TIP3    H243088   3.315   3.614  13.217 -0.3084  0.4184  0.6487
 7225TIP3   OH243089   0.478   5.879  15.083 -0.4996 -0.0931 -0.1745
 7225TIP3    H143090   0.421   5.882  15.007 -1.1581  2.2025  0.3414
 7225TIP3    H243091   0.419   5.875  15.158 -0.0659  1.8748  0.3470
 7226TIP3   OH243092   0.896   4.918  16.844  0.4653 -0.0113 -0.1113
 7226TIP3    H143093   0.817   4.888  16.887  0.8021 -0.2980  0.3171
 7226TIP3    H243094   0.881   5.012  16.829 -0.1591 -0.1717 -0.5085
 7227TIP3   OH243095   4.199   0.719   4.634  0.5617  0.0095 -0.2428
 7227TIP3    H143096   4.203   0.731   4.729 -0.3779  0.1263 -0.2183
 7227TIP3    H243097   4.189   0.807   4.599 -0.8460 -0.1786 -0.3503
 7228TIP3   OH243098   6.464   1.369   3.673  0.8051  0.3485 -0.1382
 7228TIP3    H143099   6.527   1.439   3.655 -1.6618  3.0416  0.8521
 7228TIP3    H243100   6.404   1.371   3.599  0.0677  0.0833  0.4321
 7229TIP3   OH243101   3.756   1.026  11.430  0.0788  0.2248  0.2117
 7229TIP3    H143102   3.774   0.969  11.504  1.1236 -0.4396 -0.5287
 7229TIP3    H243103   3.661   1.023  11.420 -0.1974  1.1877  2.1715
 7230TIP3   OH243104   1.525   2.267   0.961 -0.1111 -0.1540 -0.4508
 7230TIP3    H143105   1.616   2.280   0.989 -0.7533 -0.5615  2.0413
 7230TIP3    H243106   1.510   2.173   0.969 -0.0192 -0.5714 -3.5975
 7231TIP3   OH243107   2.414   6.434   0.641 -0.0261  0.6369  0.1217
 7231TIP3    H143108   2.415   6.356   0.586  2.3873 -0.7829  1.9480
 7231TIP3    H243109   2.461   6.501   0.590 -0.2562  0.2344 -0.6220
 7232TIP3   OH243110   5.290   2.426   0.255 -0.0584  0.7401  0.0181
 7232TIP3    H143111   5.344   2.355   0.220 -0.8681 -0.6867  1.5019
 7232TIP3    H243112   5.208   2.421   0.206 -0.1912  0.4952  0.2599
 7233TIP3   OH243113   1.501   0.980  14.392  0.2212 -0.4290  0.1154
 7233TIP3    H143114   1.487   1.045  14.460  0.3355  1.4830 -1.5898
 7233TIP3    H243115   1.461   0.900  14.426 -2.5947  1.2803  1.1216
 7234TIP3   OH243116   4.745   3.796   2.023  0.0157  0.1621  0.3617
 7234TIP3    H143117   4.657   3.826   2.045  0.5210  1.5745  0.5953
 7234TIP3    H243118   4.736   3.703   2.006 -1.5904  0.3686 -0.0095
 7235TIP3   OH243119   0.083   2.696  15.688 -0.3396  0.5588  0.0860
 7235TIP3    H143120   0.121   2.613  15.716 -0.2985  0.3355 -0.6013
 7235TIP3    H243121  -0.003   2.699  15.730 -0.8625 -0.4252 -0.8622
 7236TIP3   OH243122   0.969   1.196   3.033  0.4943 -0.1592  0.0316
 7236TIP3    H143123   1.061   1.171   3.045  0.8309 -0.4450 -2.5394
 7236TIP3    H243124   0.922   1.113   3.028  0.5654 -0.1427 -1.4622
 7237TIP3   OH243125   3.662   4.071   0.666  0.1659 -0.2077  0.0069
 7237TIP3    H143126   3.604   4.083   0.591 -0.7117 -0.3830  0.6403
 7237TIP3    H243127   3.712   3.992   0.646  0.8248  0.4507 -0.9482
 7238TIP3   OH243128   5.290   5.555   2.678  0.0312  0.0188  0.1270
 7238TIP3    H143129   5.256   5.507   2.603  0.0163 -0.3489  0.3663
 7238TIP3    H243130   5.265   5.502   2.754 -1.5970  1.2840  0.5558
 7239TIP3   OH243131   1.923   4.482   4.758  0.1509 -0.2889  0.2905
 7239TIP3    H143132   1.890   4.427   4.829 -0.4695 -0.1850  0.0905
 7239TIP3    H243133   2.010   4.446   4.738 -0.2809 -1.2563  0.0979
 7240TIP3   OH243134   0.849   0.292   2.988  0.0035 -0.1271  0.4020
 7240TIP3    H143135   0.876   0.200   2.980 -0.1254 -0.3305  1.9502
 7240TIP3    H243136   0.761   0.288   3.024 -0.3667  0.6146 -0.3750
 7241TIP3   OH243137   5.269   0.916   0.792  0.0266 -0.3969  0.1366
 7241TIP3    H143138   5.248   1.008   0.802  4.1789  0.6327  1.9733
 7241TIP3    H243139   5.237   0.892   0.706 -1.6485  2.5819 -0.1897
 7242TIP3   OH243140   3.211   6.654   5.662 -0.4493  0.3042 -0.4956
 7242TIP3    H143141   3.253   6.586   5.716 -1.8697 -1.4091 -1.4417
 7242TIP3    H243142   3.284   6.699   5.620  0.5423 -1.5901 -0.9458
 7243TIP3   OH243143   0.398   2.635  10.373 -0.2325 -0.4288 -0.1933
 7243TIP3    H143144   0.387   2.726  10.345  2.0776  0.2706  0.9228
 7243TIP3    H243145   0.460   2.598  10.310  0.4539 -0.5714  0.5428
 7244TIP3   OH243146   4.471   4.774   0.814 -0.3552  0.4509 -0.0828
 7244TIP3    H143147   4.438   4.767   0.724 -0.5474 -1.7827  0.1284
 7244TIP3    H243148   4.455   4.689   0.853 -1.0558  1.6254  2.3900
 7245TIP3   OH243149   5.775   4.210  15.140  0.6240 -0.2460 -0.1713
 7245TIP3    H143150   5.806   4.140  15.082 -0.8490 -0.3323 -0.8960
 7245TIP3    H243151   5.680   4.212  15.126  0.6769  2.2081 -0.5339
 7246TIP3   OH243152   2.021   4.178   6.024 -0.1754  0.5031 -0.0554
 7246TIP3    H143153   1.973   4.152   5.945 -1.2147 -1.4612  1.1490
 7246TIP3    H243154   1.975   4.256   6.055  0.4793  1.5215 -1.5556
 7247TIP3   OH243155   1.671   6.121  10.515  0.2629 -0.3024 -0.0760
 7247TIP3    H143156   1.639   6.211  10.509  2.2701  0.7712  3.0119
 7247TIP3    H243157   1.592   6.068  10.506 -0.9631  1.6738 -2.2112
 7248TIP3   OH243158   0.440   5.692   2.277 -0.0108  0.3320  0.0545
 7248TIP3    H143159   0.368   5.667   2.335 -0.8286  0.7468 -0.7463
 7248TIP3    H243160   0.448   5.787   2.289  0.2929  0.3121  0.0106
 7249TIP3   OH243161   0.670   1.859   3.054  0.0971  0.6278  0.4905
 7249TIP3    H143162   0.756   1.834   3.018 -0.0746 -0.4547  0.7890
 7249TIP3    H243163   0.622   1.776   3.059 -0.8543  1.1830  0.6289
 7250TIP3   OH243164   1.598   1.485   1.892  0.2116  0.3332  0.0144
 7250TIP3    H143165   1.629   1.504   1.981  0.8208  0.5891 -0.2429
 7250TIP3    H243166   1.677   1.459   1.844  0.3339  2.4514 -1.0580
 7251TIP3   OH243167   2.313   0.042   2.679  0.3115 -0.2558 -0.1852
 7251TIP3    H143168   2.344  -0.041   2.715 -3.2728 -1.0012  1.7168
 7251TIP3    H243169   2.327   0.106   2.749  0.1719  0.0142 -0.3994
 7252TIP3   OH243170   4.964   3.081  16.546  0.2235 -0.2843  0.2144
 7252TIP3    H143171   4.985   2.987  16.546 -1.7407 -0.7629  0.2048
 7252TIP3    H243172   4.890   3.089  16.487  0.5667  1.3597 -0.0463
 7253TIP3   OH243173   2.937   6.280  13.349 -0.0078 -0.5536 -0.6367
 7253TIP3    H143174   3.024   6.314  13.326  0.0520 -1.1080 -1.2358
 7253TIP3    H243175   2.897   6.258  13.266 -0.8584 -0.0023 -0.3848
 7254TIP3   OH243176   0.531   1.500   0.919 -0.1931 -0.5028  0.8041
 7254TIP3    H143177   0.588   1.449   0.976 -0.2168 -1.0922  0.3201
 7254TIP3    H243178   0.585   1.572   0.887  0.3607 -1.1878  0.1672
 7255TIP3   OH243179   2.447   6.504  14.883 -0.0273 -0.2458 -0.2408
 7255TIP3    H143180   2.466   6.419  14.923 -0.6204 -0.6954 -0.8818
 7255TIP3    H243181   2.364   6.531  14.923  0.2102  0.0842  0.0353
 7256TIP3   OH243182   4.559   0.380   0.802 -0.5253  0.1065 -0.4644
 7256TIP3    H143183   4.550   0.474   0.817  1.5964  0.2620  0.2471
 7256TIP3    H243184   4.470   0.346   0.805 -1.1768  1.7829  1.5337
 7257TIP3   OH243185   5.013   3.589  11.336  0.3912  0.3923  0.3207
 7257TIP3    H143186   4.997   3.639  11.416  3.2860  0.7772  0.7427
 7257TIP3    H243187   5.085   3.634  11.293  0.5456 -1.2516 -1.2493
 7258TIP3   OH243188   5.735   2.218  13.710  0.1451 -0.2863  0.9353
 7258TIP3    H143189   5.732   2.291  13.649  0.2817 -0.6016  0.5463
 7258TIP3    H243190   5.821   2.179  13.697 -0.4925 -1.4759 -0.0151
 7259TIP3   OH243191   1.046   4.990  12.252 -0.6519 -0.1251  0.5125
 7259TIP3    H143192   1.004   4.995  12.338 -1.7554  1.2408 -0.0780
 7259TIP3    H243193   0.975   5.003  12.189  0.6722  3.2332 -0.5171
 7260TIP3   OH243194   4.006   2.454   4.595  0.3757 -0.1600  0.1817
 7260TIP3    H143195   3.994   2.545   4.623 -3.0714 -0.7036  0.9672
 7260TIP3    H243196   4.071   2.419   4.656  0.3045  1.2544  1.1410
 7261TIP3   OH243197   5.714   4.162   1.614 -0.1383  0.6302 -0.8220
 7261TIP3    H143198   5.652   4.160   1.687 -2.1672  0.7818 -2.4603
 7261TIP3    H243199   5.660   4.152   1.536  1.8695  1.2128 -2.3744
 7262TIP3   OH243200   6.537   0.153  14.665  0.4388  0.3243  0.3936
 7262TIP3    H143201   6.552   0.240  14.702 -0.9463  0.8356 -0.1858
 7262TIP3    H243202   6.540   0.093  14.740  0.9158  0.9128  0.8554
 7263TIP3   OH243203   0.071   3.290  15.405  0.0967  0.3751 -0.1968
 7263TIP3    H143204   0.078   3.234  15.482 -0.2750 -0.7987 -0.9904
 7263TIP3    H243205   0.112   3.373  15.431  0.8721 -0.3414  0.9309
 7264TIP3   OH243206   1.983   6.272  14.366 -0.0961 -0.0049 -0.0950
 7264TIP3    H143207   2.010   6.311  14.450  1.0546 -0.2388 -0.3318
 7264TIP3    H243208   1.890   6.254  14.377 -0.0667  0.3935  0.9760
 7265TIP3   OH243209   2.509   2.001   5.006  0.0419  0.5738  0.2866
 7265TIP3    H143210   2.539   2.032   5.092  0.7002  0.5646  0.0711
 7265TIP3    H243211   2.420   2.035   4.998 -0.4165 -0.3103  1.4103
 7266TIP3   OH243212   4.442   0.187   4.292 -0.2903 -0.1391  0.8961
 7266TIP3    H143213   4.353   0.154   4.301 -0.0441 -1.0585  0.1102
 7266TIP3    H243214   4.442   0.270   4.341 -1.4049 -0.4172  1.3936
 7267TIP3   OH243215   3.011   4.457   5.981 -0.2487 -0.1309  0.8695
 7267TIP3    H143216   3.059   4.380   6.013 -2.4364 -1.2559  1.6412
 7267TIP3    H243217   2.972   4.496   6.059 -0.6480  0.7116  0.2709
 7268TIP3   OH243218   6.260   6.622  14.085  0.7631  0.5756  0.1353
 7268TIP3    H143219   6.209   6.551  14.125 -0.8742  1.7214  0.1766
 7268TIP3    H243220   6.349   6.607  14.116  0.1932 -0.6400  1.3121
 7269TIP3   OH243221   0.656   3.076   1.161  0.8771 -0.1080  0.4546
 7269TIP3    H143222   0.612   3.142   1.216 -0.3959 -0.3673 -0.2116
 7269TIP3    H243223   0.669   3.001   1.219 -1.8514 -0.9636  0.0824
 7270TIP3   OH243224   1.064   4.695   5.703  0.0575  0.0648 -0.3504
 7270TIP3    H143225   1.111   4.613   5.686 -0.8336 -0.8868  1.4613
 7270TIP3    H243226   1.108   4.733   5.779 -1.6539 -0.5435  1.0029
 7271TIP3   OH243227   0.978   3.701   1.629 -0.3326 -0.0212 -0.3540
 7271TIP3    H143228   0.920   3.697   1.705 -1.0911  1.1725 -0.8546
 7271TIP3    H243229   1.059   3.740   1.662  0.5135 -2.2891  0.4981
 7272TIP3   OH243230   4.282   5.408   2.525 -0.2189 -0.0936 -0.0385
 7272TIP3    H143231   4.292   5.484   2.467  1.9849 -0.6110 -0.4012
 7272TIP3    H243232   4.334   5.430   2.602 -0.3582 -0.8403  0.2748
 7273TIP3   OH243233   6.619   5.294  14.413 -0.0259  0.2351  0.3551
 7273TIP3    H143234   6.622   5.386  14.438 -1.4549 -0.1868  2.4126
 7273TIP3    H243235   6.643   5.247  14.493 -1.5440 -1.1954  0.0378
 7274TIP3   OH243236   0.059   2.755  14.409 -0.4136  0.0573 -0.1321
 7274TIP3    H143237   0.017   2.775  14.493  2.4231  0.0412  1.3996
 7274TIP3    H243238   0.075   2.841  14.370 -1.6993  0.0671 -0.6843
 7275TIP3   OH243239   4.541   4.141   2.197 -0.5221 -0.2002 -0.4940
 7275TIP3    H143240   4.479   4.207   2.165 -0.0586  0.2059 -0.5571
 7275TIP3    H243241   4.578   4.179   2.277 -2.1848 -1.4986  0.9637
 7276TIP3   OH243242   1.559   4.671   0.750  0.2784  0.2357 -0.0947
 7276TIP3    H143243   1.529   4.679   0.660 -0.1267  0.6471  0.0727
 7276TIP3    H243244   1.655   4.670   0.743  0.2445 -0.8136 -0.6049
 7277TIP3   OH243245   2.455   6.082  12.212 -0.0173 -0.5353  0.2385
 7277TIP3    H143246   2.377   6.061  12.160 -1.5192  1.1039  1.6762
 7277TIP3    H243247   2.422   6.091  12.301  1.3926  2.2989  0.5768
 7278TIP3   OH243248   5.556   0.709  13.800  0.1777  0.4580  0.2511
 7278TIP3    H143249   5.562   0.621  13.838 -1.7562  0.7311  1.2983
 7278TIP3    H243250   5.626   0.758  13.844 -0.9167  0.3141  2.2716
 7279TIP3   OH243251   6.513   1.156   4.160  0.0828  0.2983 -0.2441
 7279TIP3    H143252   6.478   1.139   4.073 -1.4771  3.0202 -0.2576
 7279TIP3    H243253   6.542   1.247   4.157  0.7179  0.2199  1.8734
 7280TIP3   OH243254   5.995   3.695   4.719 -0.1310 -0.7987  0.2592
 7280TIP3    H143255   6.016   3.781   4.756 -0.7951 -0.4147 -0.2234
 7280TIP3    H243256   6.079   3.661   4.686  0.1011 -0.2422  0.2682
 7281TIP3   OH243257   2.575   2.781  12.345  0.0735 -0.1341 -0.0672
 7281TIP3    H143258   2.668   2.803  12.355  0.4874 -2.2449  1.3642
 7281TIP3    H243259   2.564   2.701  12.396 -2.8439  0.8157  0.9772
 7282TIP3   OH243260   1.252   4.529   1.426 -0.1916  0.1362 -0.4091
 7282TIP3    H143261   1.183   4.478   1.467 -1.0808 -0.5150 -2.5580
 7282TIP3    H243262   1.332   4.478   1.441 -0.2277  0.5784  1.5433
 7283TIP3   OH243263   6.268   5.880  15.316  0.5283 -0.3190  0.0945
 7283TIP3    H143264   6.218   5.874  15.235 -2.5797 -1.6509  1.8960
 7283TIP3    H243265   6.325   5.803  15.316  2.3848  0.9681 -1.8004
 7284TIP3   OH243266   6.136   3.476   1.763  0.3718  0.0145  0.2819
 7284TIP3    H143267   6.109   3.567   1.770  0.9543  0.1534  0.7994
 7284TIP3    H243268   6.190   3.461   1.841  0.5472 -0.6747  0.0313
 7285TIP3   OH243269   2.993   4.135   6.035 -0.4147  0.0596 -1.1454
 7285TIP3    H143270   3.050   4.079   6.086 -0.3319  0.6794 -0.5419
 7285TIP3    H243271   2.908   4.129   6.078  0.2825  2.7954  0.9078
 7286TIP3   OH243272   4.966   3.102   4.951 -0.3248  0.1611  0.1107
 7286TIP3    H143273   4.889   3.159   4.945 -0.0406  0.6595  0.9830
 7286TIP3    H243274   5.032   3.144   4.896 -0.9040 -0.6858 -1.2782
 7287TIP3   OH243275   0.938   0.500   5.859  0.2889 -0.6340  0.2468
 7287TIP3    H143276   1.008   0.513   5.923  0.4822  1.1702 -0.2965
 7287TIP3    H243277   0.878   0.438   5.903  1.8544 -1.7081  0.9698
 7288TIP3   OH243278   1.740   2.496  15.451 -0.5110 -0.7584 -0.9598
 7288TIP3    H143279   1.757   2.538  15.367  1.1452  0.4434 -0.0984
 7288TIP3    H243280   1.813   2.525  15.507 -2.5965  0.1658  1.4810
 7289TIP3   OH243281   2.469   2.235   5.871 -0.0029 -0.2308 -0.0478
 7289TIP3    H143282   2.502   2.174   5.805  0.2120 -1.0459  0.8010
 7289TIP3    H243283   2.437   2.180   5.942  2.5646  0.6139  1.9162
 7290TIP3   OH243284   3.756   4.168  13.821  0.2589  0.2725  0.0119
 7290TIP3    H143285   3.669   4.174  13.860 -0.2608 -0.3287 -1.0131
 7290TIP3    H243286   3.740   4.143  13.730  1.5312 -0.5150 -0.0202
 7291TIP3   OH243287   2.112   0.782  11.935 -0.6500  0.0253  0.5300
 7291TIP3    H143288   2.197   0.738  11.934 -0.3632  0.5705  0.5715
 7291TIP3    H243289   2.050   0.714  11.907 -0.4629 -0.8868  2.1908
 7292TIP3   OH243290   5.707   3.515  16.867 -0.5058 -0.0288 -0.1418
 7292TIP3    H143291   5.628   3.460  16.874 -0.1090 -0.5339  0.5154
 7292TIP3    H243292   5.756   3.496  16.947 -0.0026  0.7421 -0.2616
 7293TIP3   OH243293   5.223   0.396   0.362 -0.7150  0.5639  0.2666
 7293TIP3    H143294   5.289   0.460   0.389 -0.5089  0.0790  0.9265
 7293TIP3    H243295   5.234   0.323   0.423  0.1636 -0.8230 -1.4572
 7294TIP3   OH243296   4.100   0.552  12.846  0.6361  0.2373 -0.0428
 7294TIP3    H143297   4.159   0.507  12.907 -0.7157 -0.1672  1.0332
 7294TIP3    H243298   4.022   0.570  12.898 -0.0193  1.1714 -1.2959
 7295TIP3   OH243299   4.979   6.456  16.023  0.1569  0.4686  0.2765
 7295TIP3    H143300   4.979   6.378  15.968 -0.4196  0.9152 -0.3737
 7295TIP3    H243301   4.919   6.436  16.095  0.4009  0.1295  0.3873
 7296TIP3   OH243302   4.699   2.777  13.882  0.4830 -0.0585  0.0167
 7296TIP3    H143303   4.739   2.698  13.918 -0.2855 -0.9615 -1.0611
 7296TIP3    H243304   4.606   2.755  13.872  0.5989  0.2526 -2.1605
 7297TIP3   OH243305   2.976   0.958   4.974 -0.0901 -0.1695 -0.5408
 7297TIP3    H143306   2.895   1.008   4.985 -1.1663 -1.7407 -1.0391
 7297TIP3    H243307   2.987   0.912   5.057  0.9003  0.8400 -0.0833
 7298TIP3   OH243308   4.182   0.707   3.036  0.0616 -0.2309  0.1076
 7298TIP3    H143309   4.140   0.649   3.100  1.9763  0.0551  1.7297
 7298TIP3    H243310   4.144   0.793   3.053  0.9121 -0.0531  1.2939
 7299TIP3   OH243311   0.549   1.801   4.854  0.4109 -0.7055  0.2222
 7299TIP3    H143312   0.597   1.834   4.777  1.9393 -0.2617  1.3234
 7299TIP3    H243313   0.461   1.838   4.845  1.0915  0.8333 -0.3833
 7300TIP3   OH243314   6.760   6.112  12.588 -0.2125 -0.5672  0.3107
 7300TIP3    H143315   6.695   6.162  12.539  0.3783  0.9547  1.0177
 7300TIP3    H243316   6.745   6.136  12.679  1.1954 -0.3318  0.5051
 7301TIP3   OH243317   4.311   4.685   4.169  0.1755  0.1660 -0.9013
 7301TIP3    H143318   4.269   4.663   4.253 -0.9302  1.0853 -1.1931
 7301TIP3    H243319   4.286   4.613   4.111 -0.1663  0.1901 -0.7898
 7302TIP3   OH243320   4.283   5.530   4.272 -0.5932  0.2088 -0.1200
 7302TIP3    H143321   4.257   5.439   4.288  0.3985  0.0870  0.9750
 7302TIP3    H243322   4.227   5.581   4.331  0.1184  0.1271  0.6512
 7303TIP3   OH243323   0.541   0.374  15.278  0.3794  0.1286  0.2904
 7303TIP3    H143324   0.495   0.459  15.278  0.4565  0.1697 -0.1662
 7303TIP3    H243325   0.571   0.363  15.188  1.1887  0.0541  0.5600
 7304TIP3   OH243326   1.651   2.973  11.803 -0.1800  0.5210 -0.3976
 7304TIP3    H143327   1.736   2.954  11.842 -1.2363 -2.6428  0.6624
 7304TIP3    H243328   1.592   2.981  11.878 -1.0293  1.5865 -1.1456
 7305TIP3   OH243329   5.160   4.823   4.367  0.2189 -0.4305 -0.2825
 7305TIP3    H143330   5.156   4.846   4.460  1.4952 -0.5372 -0.1814
 7305TIP3    H243331   5.226   4.753   4.363 -0.3231 -0.8987 -1.1840
 7306TIP3   OH243332   0.575   5.160  16.203  0.7842 -0.2978 -0.5338
 7306TIP3    H143333   0.484   5.164  16.233  1.4451  1.9386  1.5203
 7306TIP3    H243334   0.572   5.104  16.125 -2.6350  1.1412 -1.6393
 7307TIP3   OH243335   4.589   1.835  14.515  0.1477  0.1877  0.3109
 7307TIP3    H143336   4.494   1.831  14.522 -0.1811 -0.8445 -3.1297
 7307TIP3    H243337   4.609   1.928  14.509 -1.0234  0.3428 -1.9625
 7308TIP3   OH243338   5.917   1.293   1.659  0.2387 -0.6647  0.1716
 7308TIP3    H143339   5.850   1.229   1.635  0.4224 -0.5592 -0.6743
 7308TIP3    H243340   5.989   1.241   1.694  0.5439 -0.9846 -0.8741
 7309TIP3   OH243341   3.530   4.895   5.075  0.2319  0.5480  0.0307
 7309TIP3    H143342   3.624   4.893   5.092  0.1012  2.0805  1.2119
 7309TIP3    H243343   3.511   4.812   5.032  1.5293 -1.4433  2.9436
 7310TIP3   OH243344   6.028   3.860   5.459 -0.1861 -0.1081 -0.1978
 7310TIP3    H143345   6.095   3.854   5.528 -0.3090  0.9342  0.0349
 7310TIP3    H243346   5.962   3.920   5.495 -0.8742 -0.5351 -0.7290
 7311TIP3   OH243347   2.718   1.995   0.526  0.7444  0.7266  0.6220
 7311TIP3    H143348   2.785   1.940   0.566  1.1293  0.5151 -0.2963
 7311TIP3    H243349   2.692   1.948   0.447 -0.8324  0.5688  1.1875
 7312TIP3   OH243350   6.229   0.688  12.676  0.3860  0.0970  0.1997
 7312TIP3    H143351   6.136   0.673  12.689  0.6003 -0.3787  1.3262
 7312TIP3    H243352   6.241   0.782  12.690  0.0451  0.2094 -0.2332
 7313TIP3   OH243353   4.077   4.746   5.067  0.4217  0.1159  0.8563
 7313TIP3    H143354   4.112   4.657   5.072  1.4689  0.0727 -3.3440
 7313TIP3    H243355   4.148   4.802   5.096  0.1894 -0.3400  2.3519
 7314TIP3   OH243356   1.112   4.898   3.384 -0.4552 -0.7306  0.4602
 7314TIP3    H143357   1.160   4.980   3.380  1.2370 -1.7334 -0.9580
 7314TIP3    H243358   1.036   4.917   3.440  1.5749  0.9007  2.8426
 7315TIP3   OH243359   6.583   4.304   5.604  0.3582 -0.3991 -0.3274
 7315TIP3    H143360   6.592   4.245   5.679  0.3554 -1.2859 -1.0069
 7315TIP3    H243361   6.489   4.319   5.597  0.3167 -0.7164 -0.4544
 7316TIP3   OH243362   2.950   1.400   4.074 -0.1753  0.4728 -0.0404
 7316TIP3    H143363   3.040   1.412   4.045 -0.9564  1.1665 -2.4961
 7316TIP3    H243364   2.916   1.489   4.086 -0.4865  0.2178  1.0372
 7317TIP3   OH243365   0.616   0.261   4.003 -0.2949 -0.0469  0.6006
 7317TIP3    H143366   0.633   0.340   4.055 -0.4256 -0.1392  0.7879
 7317TIP3    H243367   0.694   0.207   4.016 -0.4453 -0.1907  0.9324
 7318TIP3   OH243368   2.695   1.909   2.355  0.7719 -0.0472 -0.4912
 7318TIP3    H143369   2.786   1.916   2.328  0.9764 -0.1334  0.1517
 7318TIP3    H243370   2.654   1.990   2.324  1.2279  0.2985 -0.2051
 7319TIP3   OH243371   4.639   2.160   1.304  0.5111 -0.1653  0.1169
 7319TIP3    H143372   4.706   2.228   1.292 -0.0806  0.3219 -0.4858
 7319TIP3    H243373   4.658   2.095   1.236  1.5119 -0.9823  1.1402
 7320TIP3   OH243374   2.418   0.927  13.473 -0.4225  0.3802 -0.9906
 7320TIP3    H143375   2.430   1.011  13.517 -0.3832  1.2402 -2.5617
 7320TIP3    H243376   2.425   0.948  13.379 -1.4884 -1.1974 -1.4631
 7321TIP3   OH243377   1.223   3.871  14.444 -0.4420 -1.0267  0.3655
 7321TIP3    H143378   1.231   3.933  14.516 -1.0021 -0.7625  0.2012
 7321TIP3    H243379   1.207   3.787  14.487  1.1808 -1.2432  0.6286
 7322TIP3   OH243380   2.181   4.520   4.340 -0.3315 -0.0593 -0.0169
 7322TIP3    H143381   2.178   4.459   4.414  0.5659  0.3395  0.3617
 7322TIP3    H243382   2.267   4.561   4.346  0.1801 -0.7682 -1.8975
 7323TIP3   OH243383   6.248   1.302  15.939 -0.3849 -0.2169 -0.2173
 7323TIP3    H143384   6.247   1.396  15.959 -0.4486 -0.4015  0.7013
 7323TIP3    H243385   6.186   1.292  15.867  1.2670  0.7588 -1.8444
 7324TIP3   OH243386   1.406   5.243  12.944  0.1430 -0.2393 -0.2203
 7324TIP3    H143387   1.464   5.171  12.969  0.1054 -0.1344  0.1853
 7324TIP3    H243388   1.318   5.210  12.962 -0.0021 -0.7356 -1.6839
 7325TIP3   OH243389   3.807   3.632   0.644 -0.6267 -0.1042  0.9227
 7325TIP3    H143390   3.835   3.541   0.649 -0.5610 -0.0302  2.3001
 7325TIP3    H243391   3.718   3.629   0.610  0.6852 -0.3908 -2.8883
 7326TIP3   OH243392   3.434   3.177  10.792  0.0787  1.0997  0.2534
 7326TIP3    H143393   3.377   3.251  10.774 -1.1082  0.1191 -0.2118
 7326TIP3    H243394   3.418   3.155  10.884 -1.6205 -0.1910 -0.2879
 7327TIP3   OH243395   5.309   2.496  13.714  0.3027  0.5265 -0.1104
 7327TIP3    H143396   5.378   2.430  13.722  1.4966  1.7427 -0.0039
 7327TIP3    H243397   5.235   2.460  13.762  0.7480 -0.9512 -0.4869
 7328TIP3   OH243398   6.021   6.435   0.245  0.3314 -0.3871 -0.3477
 7328TIP3    H143399   6.001   6.399   0.331 -1.7198  1.5206  0.0647
 7328TIP3    H243400   6.109   6.473   0.254 -0.2184  0.5929  1.2157
 7329TIP3   OH243401   6.113   3.964  15.791  0.3431 -0.0715  0.7503
 7329TIP3    H143402   6.163   4.045  15.791 -0.6778  0.5752  0.6065
 7329TIP3    H243403   6.087   3.952  15.699 -1.3329  0.6114  1.1121
 7330TIP3   OH243404   5.212   6.121   4.100  0.0667  0.3127  0.4196
 7330TIP3    H143405   5.293   6.098   4.146 -0.0924  0.9509  1.0425
 7330TIP3    H243406   5.142   6.094   4.159 -0.1628  0.1880  0.0908
 7331TIP3   OH243407   4.589   5.833   2.989  0.2024  0.5679 -0.0199
 7331TIP3    H143408   4.633   5.886   2.923  0.2836  0.3541 -0.1375
 7331TIP3    H243409   4.602   5.881   3.071  0.2843  0.7243 -0.1249
 7332TIP3   OH243410   1.429   2.687  16.469 -0.2802  0.0896 -0.1310
 7332TIP3    H143411   1.384   2.674  16.386  3.2176 -0.2846 -2.1517
 7332TIP3    H243412   1.430   2.782  16.481 -2.2079  0.0797  0.4175
 7333TIP3   OH243413   1.856   5.215   5.144  0.4296 -0.0636  0.0624
 7333TIP3    H143414   1.820   5.206   5.232  0.4606 -2.0945 -0.0784
 7333TIP3    H243415   1.780   5.213   5.086  0.3503  1.9451  0.0149
 7334TIP3   OH243416   2.810   0.303  14.976  0.4992 -0.1597 -0.1264
 7334TIP3    H143417   2.870   0.342  14.912 -1.1870  1.5370 -0.7808
 7334TIP3    H243418   2.766   0.232  14.928  2.0332 -1.5415  0.4149
 7335TIP3   OH243419   4.966   6.728   1.102  0.4090 -0.5484  0.0175
 7335TIP3    H143420   5.044   6.689   1.063  0.6320  0.4555 -0.5925
 7335TIP3    H243421   4.896   6.706   1.041  0.5856  0.2106 -0.4759
 7336TIP3   OH243422   1.542   0.464  14.692 -0.0425  0.0205  0.4685
 7336TIP3    H143423   1.455   0.424  14.696 -0.1762  0.2762  0.1557
 7336TIP3    H243424   1.602   0.390  14.684 -0.3523 -0.0942 -1.0666
 7337TIP3   OH243425   3.988   1.664   6.010  0.4788  0.7051 -0.0462
 7337TIP3    H143426   4.008   1.658   6.104  0.4352  2.0031  0.0550
 7337TIP3    H243427   4.049   1.729   5.976  0.5568  0.1773 -0.9546
 7338TIP3   OH243428   6.732   2.334  16.527 -0.2282 -0.1138  0.1048
 7338TIP3    H143429   6.826   2.313  16.526 -0.2493 -0.1932 -0.1776
 7338TIP3    H243430   6.697   2.279  16.597  0.4017  1.9284  2.1174
 7339TIP3   OH243431   5.358   6.097  11.152  0.3658 -0.0744 -0.4962
 7339TIP3    H143432   5.442   6.060  11.123 -0.1596  0.3231 -2.7503
 7339TIP3    H243433   5.294   6.028  11.135  0.0031  0.2597 -0.5092
 7340TIP3   OH243434   1.187   5.832  14.971 -0.0920  0.0404  0.1774
 7340TIP3    H143435   1.182   5.922  15.002  0.4001  0.3065 -0.5015
 7340TIP3    H243436   1.121   5.785  15.023 -2.0296  1.2466 -1.0764
 7341TIP3   OH243437   3.555   2.022  13.271 -0.8483  0.3488  0.5865
 7341TIP3    H143438   3.566   2.030  13.366 -1.2967  1.0177  0.5907
 7341TIP3    H243439   3.481   2.079  13.251 -0.1537  0.9577 -0.2950
 7342TIP3   OH243440   1.083   6.780  11.116  0.2349 -0.5507  0.2128
 7342TIP3    H143441   1.095   6.755  11.024 -0.3247 -0.9148  0.2300
 7342TIP3    H243442   1.045   6.702  11.157 -1.0126  0.1351  0.3946
 7343TIP3   OH243443   0.201   5.996  10.292  0.1431  0.3557  0.6538
 7343TIP3    H143444   0.244   5.981  10.208  0.9875 -0.7314  1.2354
 7343TIP3    H243445   0.255   6.063  10.334  0.9483 -0.5363  1.1126
 7344TIP3   OH243446   2.892   3.068  11.489 -0.1809 -0.5048  0.1915
 7344TIP3    H143447   2.972   3.052  11.539 -0.5212  0.1077  0.9536
 7344TIP3    H243448   2.918   3.059  11.398  0.1493 -3.1815  0.4641
 7345TIP3   OH243449   4.298   2.260   3.698 -0.1704 -0.3492 -0.0940
 7345TIP3    H143450   4.246   2.306   3.764  0.6674 -0.0605  0.3836
 7345TIP3    H243451   4.264   2.171   3.699  0.1017 -0.4663  1.0457
 7346TIP3   OH243452   3.853   5.121  14.810  0.1506  0.3272 -0.1458
 7346TIP3    H143453   3.882   5.202  14.851  0.2612  0.2343 -0.0379
 7346TIP3    H243454   3.933   5.070  14.798  0.0518  0.1325  0.0113
 7347TIP3   OH243455   5.688   1.468   2.186  0.6905  0.3207 -0.3032
 7347TIP3    H143456   5.778   1.500   2.196  0.1163  2.0715 -0.4369
 7347TIP3    H243457   5.662   1.439   2.273  0.0542  3.5772  0.6880
 7348TIP3   OH243458   5.010   4.331   3.559  0.2127 -0.1732 -0.4845
 7348TIP3    H143459   4.951   4.297   3.491 -0.3152  1.0815 -0.6821
 7348TIP3    H243460   5.004   4.426   3.550  0.4163  0.0124  1.0962
 7349TIP3   OH243461   4.146   3.762   2.476 -0.6132 -0.2040 -0.9706
 7349TIP3    H143462   4.087   3.687   2.472 -1.4267  0.1728  1.7774
 7349TIP3    H243463   4.098   3.833   2.432 -1.3329 -0.4223 -0.5515
 7350TIP3   OH243464   6.278   4.440   0.464  0.1920 -0.1505  0.3700
 7350TIP3    H143465   6.366   4.405   0.451 -0.0156 -0.7514  0.5491
 7350TIP3    H243466   6.261   4.493   0.386  0.2624 -0.9793 -0.2259
 7351TIP3   OH243467   2.421   3.595  11.094 -1.1485  0.5098  0.1138
 7351TIP3    H143468   2.428   3.689  11.075 -3.4434  0.5595 -0.8477
 7351TIP3    H243469   2.329   3.581  11.114 -0.6579 -1.3928  1.3598
 7352TIP3   OH243470   1.282   6.496   3.503 -0.0310  0.2937  0.1315
 7352TIP3    H143471   1.303   6.547   3.581 -1.1093  2.9023 -1.1589
 7352TIP3    H243472   1.238   6.557   3.445 -1.2387 -2.0964 -1.6812
 7353TIP3   OH243473   3.103   5.703  14.247 -0.2672 -0.4959  0.6819
 7353TIP3    H143474   3.163   5.737  14.181 -1.4287 -0.1897 -0.2603
 7353TIP3    H243475   3.139   5.733  14.330 -0.8753  2.5961 -0.0406
 7354TIP3   OH243476   1.523   6.287   5.980  0.2033 -0.6131  0.5860
 7354TIP3    H143477   1.526   6.193   5.966 -0.2181 -0.5179 -0.1874
 7354TIP3    H243478   1.507   6.296   6.075  2.1831 -1.2727  1.0174
 7355TIP3   OH243479   2.347   0.817  16.295 -0.3683 -0.0710 -0.1975
 7355TIP3    H143480   2.362   0.902  16.254 -0.5850  0.7558  1.3788
 7355TIP3    H243481   2.258   0.793  16.268 -0.2492  0.1144 -0.7714
 7356TIP3   OH243482   5.685   2.452  13.552 -0.5277 -0.4427 -0.1875
 7356TIP3    H143483   5.704   2.527  13.609 -0.6183 -0.4445 -0.1549
 7356TIP3    H243484   5.606   2.478  13.504 -0.8242 -0.7078  0.1602
 7357TIP3   OH243485   5.076   5.625  11.532  0.3165  0.6922 -0.1139
 7357TIP3    H143486   5.159   5.620  11.485  1.0628 -0.3794  1.2225
 7357TIP3    H243487   5.047   5.534  11.538 -0.6145  0.9897  0.0330
 7358TIP3   OH243488   6.130   6.497   4.186 -0.2232  0.7235  0.1047
 7358TIP3    H143489   6.042   6.523   4.160 -1.0531 -2.7277 -1.0753
 7358TIP3    H243490   6.134   6.516   4.280 -2.7689 -0.2095  0.4864
 7359TIP3   OH243491   2.290   2.782  10.840 -0.2974  0.3741  0.2046
 7359TIP3    H143492   2.292   2.793  10.745  0.2448  1.0310  0.2809
 7359TIP3    H243493   2.369   2.732  10.860  0.9971  2.4111  0.5309
 7360TIP3   OH243494   0.585   0.985   4.423 -0.5138  0.1048  0.7297
 7360TIP3    H143495   0.546   1.027   4.346  0.6357 -1.8321 -1.0136
 7360TIP3    H243496   0.631   1.056   4.468 -0.8973  1.2286 -0.5842
 7361TIP3   OH243497   2.012   6.040  11.079  0.3912  0.2782  0.2919
 7361TIP3    H143498   2.068   6.020  11.155  1.6066 -2.5224 -1.1635
 7361TIP3    H243499   1.927   6.060  11.117  0.7796 -1.6325  2.4391
 7362TIP3   OH243500   5.000   3.145  16.814 -0.3583 -0.9252 -0.2622
 7362TIP3    H143501   4.952   3.119  16.736 -0.5138 -0.4728 -0.3203
 7362TIP3    H243502   5.030   3.234  16.795  1.0055 -1.4038 -0.4701
 7363TIP3   OH243503   3.543   1.057  15.748  0.5261 -0.1953 -0.0484
 7363TIP3    H143504   3.533   0.963  15.765  0.5368 -0.5664 -1.8533
 7363TIP3    H243505   3.636   1.074  15.757  0.7536 -0.7172 -1.2260
 7364TIP3   OH243506   0.737   6.786  11.276 -0.6891  0.3116  0.2004
 7364TIP3    H143507   0.779   6.872  11.279 -0.2790  0.1164  0.1630
 7364TIP3    H243508   0.686   6.786  11.195 -1.1587  0.7323  0.4941
 7365TIP3   OH243509   6.240   4.142  12.912 -0.1371  0.4966  0.3178
 7365TIP3    H143510   6.228   4.065  12.967  1.9249  1.2417  1.9673
 7365TIP3    H243511   6.290   4.111  12.837  0.4445  0.1668  0.8375
 7366TIP3   OH243512   0.764   1.799  16.812  0.1434  0.7661 -0.3493
 7366TIP3    H143513   0.730   1.712  16.833 -0.5338  0.7582 -1.4186
 7366TIP3    H243514   0.828   1.817  16.881 -1.8756  0.7090  1.6742
 7367TIP3   OH243515   2.291   6.423  13.873  0.0727  0.0973 -0.0680
 7367TIP3    H143516   2.244   6.429  13.790  0.9703  1.2879 -0.5149
 7367TIP3    H243517   2.229   6.378  13.932 -0.8273 -0.1724 -1.1756
 7368TIP3   OH243518   2.240   2.813  14.232  0.2484  0.1496 -0.3810
 7368TIP3    H143519   2.215   2.730  14.273  1.1563 -0.4704 -1.0363
 7368TIP3    H243520   2.333   2.803  14.213  0.2454  1.1158 -0.9652
 7369TIP3   OH243521   4.410   6.421   1.781  0.3497 -0.5251  0.1121
 7369TIP3    H143522   4.408   6.517   1.774 -1.7799 -0.5970 -1.6331
 7369TIP3    H243523   4.502   6.400   1.797  1.0697  1.7657 -0.5379
 7370TIP3   OH243524   4.614   3.198  16.761 -0.1445 -0.5817 -0.1809
 7370TIP3    H143525   4.667   3.234  16.832  0.3801  0.4304 -1.0498
 7370TIP3    H243526   4.675   3.185  16.689 -1.1354  1.2268 -1.4248
 7371TIP3   OH243527   0.062   3.111  14.596 -0.4115 -0.0107  0.1800
 7371TIP3    H143528   0.048   3.163  14.675 -0.8530 -1.3291  1.0122
 7371TIP3    H243529   0.038   3.170  14.524 -1.0779  0.8678  1.0864
 7372TIP3   OH243530   0.324   1.705   2.224  0.1545 -0.1047 -0.1331
 7372TIP3    H143531   0.405   1.700   2.174  1.1058  1.2773  1.1793
 7372TIP3    H243532   0.342   1.657   2.305 -0.0086  0.8781  0.5175
 7373TIP3   OH243533   1.281   1.117  13.061 -0.5058 -0.5173  0.2743
 7373TIP3    H143534   1.274   1.160  13.146 -1.1802  0.8378 -0.4276
 7373TIP3    H243535   1.244   1.180  12.999  1.6214 -0.6883 -1.2830
 7374TIP3   OH243536   5.981   1.050   0.550  0.1893 -0.2894  0.0902
 7374TIP3    H143537   6.007   1.064   0.641  1.3026 -1.5655  0.0037
 7374TIP3    H243538   5.924   0.973   0.553 -1.5539  0.9167 -0.0690
 7375TIP3   OH243539   3.669   3.024   3.335  0.4519  0.0077  0.1889
 7375TIP3    H143540   3.575   3.016   3.350  0.4759  0.0150  0.3473
 7375TIP3    H243541   3.706   3.042   3.422  0.8113 -1.8927  0.4719
 7376TIP3   OH243542   6.528   5.053  16.189  0.2792 -0.0350  0.3709
 7376TIP3    H143543   6.593   5.122  16.176 -0.5189  0.6361 -0.1961
 7376TIP3    H243544   6.492   5.036  16.102  0.8712 -1.6122  0.3972
 7377TIP3   OH243545   2.714   3.919   0.023 -0.3198 -0.5132 -0.0415
 7377TIP3    H143546   2.698   3.932   0.116 -1.2152 -1.4447 -0.0403
 7377TIP3    H243547   2.665   3.990  -0.020 -1.7003 -1.3141  0.1289
 7378TIP3   OH243548   3.722   6.552   2.759  0.5067 -0.0300  0.0624
 7378TIP3    H143549   3.759   6.578   2.674  1.7381 -0.6815  0.3685
 7378TIP3    H243550   3.643   6.605   2.769  1.2662  1.2877 -0.7168
 7379TIP3   OH243551   3.167   5.344   2.173  0.2885 -0.1272 -0.0529
 7379TIP3    H143552   3.107   5.279   2.208 -0.9631  0.5283 -0.9074
 7379TIP3    H243553   3.215   5.298   2.104 -2.5887  0.4688 -2.6542
 7380TIP3   OH243554   4.242   4.120  14.040  0.4323  0.2504 -0.1239
 7380TIP3    H143555   4.329   4.086  14.055  0.1098  0.4630  2.5954
 7380TIP3    H243556   4.253   4.182  13.967  1.9735 -1.6703 -1.6255
 7381TIP3   OH243557   4.037   6.505   5.831  0.0795  0.0733 -0.2945
 7381TIP3    H143558   4.068   6.578   5.777 -0.8952 -0.0749 -1.0750
 7381TIP3    H243559   4.058   6.532   5.921  0.2892  1.0341 -0.6207
 7382TIP3   OH243560   2.978   5.527  16.903 -0.6146  0.0282 -0.4838
 7382TIP3    H143561   2.954   5.454  16.846  0.6152 -0.3588 -0.5364
 7382TIP3    H243562   3.041   5.489  16.965 -1.1660  0.6804  0.4955
 7383TIP3   OH243563   2.846   2.718  10.698 -0.1200  0.4455 -0.0771
 7383TIP3    H143564   2.789   2.711  10.622 -1.5512  0.1063  0.9846
 7383TIP3    H243565   2.933   2.695  10.666 -0.5481  1.0327 -1.7534
 7384TIP3   OH243566   1.776   5.834  14.681  0.0981 -0.3336  0.1992
 7384TIP3    H143567   1.777   5.739  14.674  0.5227 -0.3582  0.5197
 7384TIP3    H243568   1.868   5.858  14.694  0.3693  0.3235 -2.3885
 7385TIP3   OH243569   5.274   0.685   2.696 -0.8217 -0.1121  0.7249
 7385TIP3    H143570   5.318   0.651   2.774 -2.0031 -0.4258  1.2868
 7385TIP3    H243571   5.333   0.665   2.624 -0.1811 -0.7554  1.4083
 7386TIP3   OH243572   6.079   5.028  16.523 -0.0579 -0.2388 -0.3236
 7386TIP3    H143573   6.057   4.948  16.570 -0.4636 -0.5219 -0.9791
 7386TIP3    H243574   6.008   5.039  16.460 -0.7466  1.3908  0.6701
 7387TIP3   OH243575   6.308   6.197  15.043  0.3598 -0.1476  0.2390
 7387TIP3    H143576   6.287   6.285  15.011 -0.9785 -0.4125  0.3393
 7387TIP3    H243577   6.250   6.183  15.117 -0.2383 -1.5235 -0.4438
 7388TIP3   OH243578   2.232   6.207   6.221 -0.0434 -0.4011  0.2429
 7388TIP3    H143579   2.182   6.258   6.285 -1.8120  0.4353 -1.6706
 7388TIP3    H243580   2.317   6.250   6.216 -0.7126  0.9834  0.3397
 7389TIP3   OH243581   4.818   0.363  15.496  0.1153  0.2147 -0.2466
 7389TIP3    H143582   4.756   0.292  15.485 -0.3049  0.4084  0.7838
 7389TIP3    H243583   4.900   0.330  15.458  0.1530 -1.1427  0.9622
 7390TIP3   OH243584   4.883   2.821  11.442 -0.2827 -0.1075 -0.3857
 7390TIP3    H143585   4.939   2.751  11.475  0.0925  0.8974  1.2683
 7390TIP3    H243586   4.811   2.825  11.504 -1.9850 -1.0360 -2.2049
 7391TIP3   OH243587   4.495   5.877   3.531  0.0278 -0.1134  0.3435
 7391TIP3    H143588   4.405   5.907   3.547  0.1747  2.1555 -2.2788
 7391TIP3    H243589   4.550   5.950   3.558  1.0627 -1.2326  1.3206
 7392TIP3   OH243590   4.446   1.570   1.484 -0.6552  0.2235 -0.1830
 7392TIP3    H143591   4.465   1.621   1.406 -1.2129  1.3681  0.3978
 7392TIP3    H243592   4.484   1.621   1.556  0.6570 -1.2578  0.2388
 7393TIP3   OH243593   3.066   4.774  11.602 -0.6414  0.3705 -0.0115
 7393TIP3    H143594   2.989   4.784  11.547  0.9782  1.6745 -2.2025
 7393TIP3    H243595   3.110   4.696  11.568 -0.1674  0.5776  0.1122
 7394TIP3   OH243596   5.153   4.858   4.632 -0.1435  0.1486  0.0191
 7394TIP3    H143597   5.232   4.861   4.685 -1.6584  0.9039  2.3409
 7394TIP3    H243598   5.095   4.798   4.679 -1.2364  0.1405 -1.2781
 7395TIP3   OH243599   4.143   6.508   4.658  0.0077  0.0732 -0.4752
 7395TIP3    H143600   4.180   6.595   4.643  0.6240 -0.1916 -0.5533
 7395TIP3    H243601   4.205   6.466   4.718  0.7694 -0.9688 -1.9268
 7396TIP3   OH243602   1.633   5.707   4.212 -0.0976 -0.2353 -0.1256
 7396TIP3    H143603   1.552   5.698   4.162 -0.0768 -1.0569 -0.0365
 7396TIP3    H243604   1.702   5.694   4.148 -0.0470 -0.1224 -0.0944
 7397TIP3   OH243605   2.899   1.413   0.347 -0.6382  0.6975  0.3979
 7397TIP3    H143606   2.842   1.348   0.388 -0.1216 -0.7744 -1.0938
 7397TIP3    H243607   2.979   1.365   0.325  0.0988  2.0421 -0.0189
 7398TIP3   OH243608   3.077   2.899   2.655  0.0328 -0.4852  0.3943
 7398TIP3    H143609   3.103   2.822   2.604  0.5566  0.2134 -0.4040
 7398TIP3    H243610   2.989   2.877   2.687 -0.0069 -1.2327 -0.1877
 7399TIP3   OH243611   1.158   4.432  11.115  0.1042 -0.1138 -0.3899
 7399TIP3    H143612   1.094   4.384  11.062  0.7755  1.0570 -2.3423
 7399TIP3    H243613   1.148   4.523  11.088 -0.0353  0.6684  2.0946
 7400TIP3   OH243614   3.628   6.122   0.885  0.0226  0.0563 -0.0020
 7400TIP3    H143615   3.663   6.176   0.955  0.2258  0.6317 -0.5363
 7400TIP3    H243616   3.584   6.050   0.930 -0.3962  0.7473  0.7219
 7401TIP3   OH243617   3.458   3.721  14.193 -0.2204 -0.2797 -0.0410
 7401TIP3    H143618   3.443   3.694  14.284 -1.2909 -1.7884 -0.6381
 7401TIP3    H243619   3.536   3.777  14.198 -0.3363 -0.2097  1.8175
 7402TIP3   OH243620   0.029   4.411   4.822  0.0925 -0.2909  0.2466
 7402TIP3    H143621   0.025   4.381   4.912  0.5394  0.8591  0.6701
 7402TIP3    H243622  -0.055   4.384   4.784  0.4376 -1.9662  0.5960
 7403TIP3   OH243623   6.481   0.466  16.443 -0.5526 -0.1704 -0.3822
 7403TIP3    H143624   6.535   0.540  16.468  1.1730 -1.9045  1.3412
 7403TIP3    H243625   6.513   0.439  16.357  2.7499 -2.2209  1.2934
 7404TIP3   OH243626   2.477   0.950   6.595 -0.2252 -0.4364  0.2531
 7404TIP3    H143627   2.425   1.014   6.546 -2.0380 -0.1616  2.3603
 7404TIP3    H243628   2.414   0.906   6.652  0.8666 -4.5029 -1.3459
 7405TIP3   OH243629   5.673   5.592   3.524  0.0196 -0.7340 -0.4004
 7405TIP3    H143630   5.703   5.521   3.581 -1.7407 -0.4952  0.8913
 7405TIP3    H243631   5.726   5.582   3.444  2.9017 -0.7972  1.3767
 7406TIP3   OH243632   4.569   0.627   0.931 -0.4069 -0.2785 -0.0459
 7406TIP3    H143633   4.644   0.685   0.946 -0.9018  0.3885 -0.1325
 7406TIP3    H243634   4.493   0.679   0.955 -0.7603 -1.5342  1.7088
 7407TIP3   OH243635   5.427   4.103   2.614  0.0419  0.2310  0.5269
 7407TIP3    H143636   5.360   4.169   2.598 -0.6245 -0.5611 -0.0749
 7407TIP3    H243637   5.508   4.144   2.584 -0.4392  0.6069 -0.3106
 7408TIP3   OH243638   5.845   1.456  16.510 -0.2374 -0.1639 -0.0575
 7408TIP3    H143639   5.940   1.460  16.498 -0.2102 -1.1061 -0.2461
 7408TIP3    H243640   5.813   1.541  16.480  0.6998  0.8018  1.5421
 7409TIP3   OH243641   2.337   2.505   3.113  0.6446  0.5053 -0.4767
 7409TIP3    H143642   2.337   2.452   3.193  0.4768 -0.6890 -1.2502
 7409TIP3    H243643   2.372   2.589   3.141  2.8436 -0.6238  0.3913
 7410TIP3   OH243644   3.450   3.468  14.692  0.0887  0.0481 -0.3094
 7410TIP3    H143645   3.426   3.378  14.711  0.3579  0.0871  0.2536
 7410TIP3    H243646   3.528   3.484  14.746 -0.2970  0.7898  0.0564
 7411TIP3   OH243647   1.645   1.102   1.181 -0.6315 -0.9016  0.4780
 7411TIP3    H143648   1.673   1.193   1.182  0.5560 -1.2454  2.4017
 7411TIP3    H243649   1.678   1.067   1.098 -0.0088  0.0847  0.3003
 7412TIP3   OH243650   0.147   5.832   4.143  0.7517  0.2151  0.6055
 7412TIP3    H143651   0.106   5.746   4.134 -2.6292  1.8932 -1.9934
 7412TIP3    H243652   0.203   5.823   4.221  1.0070 -4.3914  0.1748
 7413TIP3   OH243653   1.401   1.836  12.516 -0.3963 -0.0732  0.1775
 7413TIP3    H143654   1.429   1.918  12.475 -0.1602 -1.0447 -1.7611
 7413TIP3    H243655   1.482   1.788  12.532 -0.6396 -1.1285 -1.4973
 7414TIP3   OH243656   6.641   3.676  10.705 -0.3226 -0.4485  0.2392
 7414TIP3    H143657   6.664   3.730  10.781  0.3256  1.0371 -0.9710
 7414TIP3    H243658   6.599   3.736  10.644 -0.7254 -1.5884 -0.6416
 7415TIP3   OH243659   0.977   4.047  15.459  0.7488  0.0934 -0.4007
 7415TIP3    H143660   1.040   4.072  15.391 -0.3000  0.3340 -1.3046
 7415TIP3    H243661   0.987   4.114  15.526  1.4247  0.1499 -0.5444
 7416TIP3   OH243662   0.293   1.307   1.056  0.1147  0.0593 -0.0419
 7416TIP3    H143663   0.321   1.391   1.093 -0.7654 -0.4594  1.9613
 7416TIP3    H243664   0.227   1.275   1.117 -0.3685 -1.6025 -1.3446
 7417TIP3   OH243665   4.614   0.699   3.566  0.5928 -0.0501 -0.0630
 7417TIP3    H143666   4.656   0.754   3.499 -0.9422  0.1101 -0.9254
 7417TIP3    H243667   4.677   0.697   3.638  2.9823 -1.3976 -2.0152
 7418TIP3   OH243668   5.625   4.884   0.280 -0.0357  0.5641  0.4426
 7418TIP3    H143669   5.632   4.805   0.227 -0.8364  0.8263 -0.0693
 7418TIP3    H243670   5.684   4.947   0.239  0.8313  0.1555  1.0250
 7419TIP3   OH243671   6.751   5.030   0.195 -0.4987  0.1106  0.0634
 7419TIP3    H143672   6.813   4.964   0.224  0.0491  0.8508  0.6261
 7419TIP3    H243673   6.685   4.982   0.146 -0.6311 -0.9807  1.2597
 7420TIP3   OH243674   6.280   3.177   3.165 -0.2282  0.2127  0.1596
 7420TIP3    H143675   6.316   3.099   3.207 -0.2516  0.3400  0.4192
 7420TIP3    H243676   6.196   3.191   3.209  0.1267  0.8323  0.6455
 7421TIP3   OH243677   1.268   2.867  10.867  0.6255 -0.2885  0.0274
 7421TIP3    H143678   1.299   2.813  10.940  2.3879 -0.2278 -0.6273
 7421TIP3    H243679   1.306   2.953  10.884 -0.9338  0.3950  0.2648
 7422TIP3   OH243680   3.732   5.982  16.230 -0.2998  0.3058  0.4556
 7422TIP3    H143681   3.701   5.902  16.273 -0.1742 -0.4116 -0.7177
 7422TIP3    H243682   3.817   6.000  16.270  0.0667 -0.6629  0.1452
 7423TIP3   OH243683   3.182   5.329  16.578  0.7885  0.0456  0.5362
 7423TIP3    H143684   3.096   5.369  16.592 -0.1271 -1.6061 -0.0631
 7423TIP3    H243685   3.233   5.397  16.533  0.0986  1.3467  1.6351
 7424TIP3   OH243686   4.161   2.428   3.881  0.1930 -0.0530  0.2029
 7424TIP3    H143687   4.226   2.498   3.893 -0.4956  0.4530  1.0702
 7424TIP3    H243688   4.162   2.380   3.964 -0.2033 -0.3402  0.0436
 7425TIP3   OH243689   4.867   0.284  16.929  0.5713  0.5414  0.1949
 7425TIP3    H143690   4.804   0.215  16.951  0.5029  0.7695  0.7278
 7425TIP3    H243691   4.813   0.363  16.920  0.6965  0.5983 -0.0505
 7426TIP3   OH243692   4.279   6.617   3.804  0.3071  0.6916  0.0495
 7426TIP3    H143693   4.362   6.639   3.760 -0.1189 -0.4526 -1.4191
 7426TIP3    H243694   4.233   6.700   3.812  0.4200  0.9580 -1.7149
 7427TIP3   OH243695   4.403   4.629  14.232 -0.1146  0.4620 -0.5525
 7427TIP3    H143696   4.338   4.680  14.184 -0.3429  0.6306 -0.0631
 7427TIP3    H243697   4.477   4.621  14.171  0.2042  1.9570 -0.3820
 7428TIP3   OH243698   2.549   2.371   5.567  0.0922  0.2541  0.3343
 7428TIP3    H143699   2.506   2.457   5.568 -0.0084  0.3259 -2.4229
 7428TIP3    H243700   2.535   2.338   5.478  1.5667 -1.9003  0.8169
 7429TIP3   OH243701   5.062   0.976   4.133 -0.1047  0.2915  0.0429
 7429TIP3    H143702   5.016   1.022   4.063  1.4809  1.7933 -0.0684
 7429TIP3    H243703   5.002   0.982   4.208 -0.3177  1.7935 -0.2148
 7430TIP3   OH243704   6.321   0.495   1.718  0.0737 -0.3154  0.3258
 7430TIP3    H143705   6.375   0.537   1.786  1.0228  0.8928 -1.1024
 7430TIP3    H243706   6.380   0.488   1.642 -1.8813  1.6044 -1.5067
 7431TIP3   OH243707   4.331   0.753   3.586 -0.0476  0.1099  0.0834
 7431TIP3    H143708   4.421   0.735   3.559 -0.4089 -0.7378 -0.6190
 7431TIP3    H243709   4.277   0.705   3.523 -0.9721 -0.4229  1.2362
 7432TIP3   OH243710   1.189   3.088  12.919  0.5479 -0.5579 -0.3508
 7432TIP3    H143711   1.210   3.110  12.828 -1.0377 -0.7298 -0.7818
 7432TIP3    H243712   1.139   3.163  12.951  1.4216 -0.3180  0.5361
 7433TIP3   OH243713   0.938   4.440  15.497  0.4383  0.0429  0.3876
 7433TIP3    H143714   0.885   4.392  15.434 -0.0388 -0.6904  1.3298
 7433TIP3    H243715   0.875   4.485  15.553  0.8649  1.1283  0.0371
 7434TIP3   OH243716   2.323   5.836   4.206 -0.8925 -0.9219  0.5438
 7434TIP3    H143717   2.347   5.893   4.280  0.8864 -2.6157  1.3517
 7434TIP3    H243718   2.319   5.896   4.131  0.7723  0.3416  1.3760
 7435TIP3   OH243719   2.473   2.655  13.602  0.3627  0.7069 -0.3622
 7435TIP3    H143720   2.453   2.627  13.513 -1.1894 -1.7533  0.6329
 7435TIP3    H243721   2.392   2.696  13.633  0.4176  0.3388  0.3031
 7436TIP3   OH243722   3.593   2.313  16.997 -0.3014  0.2311 -0.0197
 7436TIP3    H143723   3.545   2.231  16.998  0.8490 -0.4887 -0.5929
 7436TIP3    H243724   3.530   2.378  16.967 -1.1759 -0.4851  0.2410
 7437TIP3   OH243725   6.252   5.240  15.366  0.0011  0.0935 -0.4815
 7437TIP3    H143726   6.315   5.270  15.431 -0.5123  0.3285 -0.0871
 7437TIP3    H243727   6.304   5.189  15.304  0.6342  0.5542 -0.3432
 7438TIP3   OH243728   6.386   3.116  11.857  0.0406 -0.3503 -0.7137
 7438TIP3    H143729   6.444   3.158  11.793 -0.4668 -1.1437 -1.7239
 7438TIP3    H243730   6.348   3.042  11.810  0.7409 -1.8265  0.9750
 7439TIP3   OH243731   2.160   4.909  11.571 -0.3763 -0.9705 -0.4915
 7439TIP3    H143732   2.191   4.997  11.552 -0.6884 -0.5118  0.9922
 7439TIP3    H243733   2.069   4.920  11.599 -0.2493 -1.6747  0.2622
 7440TIP3   OH243734   6.035   4.599   3.854  0.2232  0.7058 -0.4319
 7440TIP3    H143735   6.050   4.645   3.771  1.4725 -0.0784 -0.6518
 7440TIP3    H243736   6.048   4.507   3.833 -2.5778  0.1430 -0.0702
 7441TIP3   OH243737   2.081   1.460  15.566  0.5550  1.1862 -0.4010
 7441TIP3    H143738   2.046   1.542  15.532 -0.0865  2.9592  3.9197
 7441TIP3    H243739   2.004   1.409  15.590  0.9701 -0.4268 -2.2625
 7442TIP3   OH243740   0.066   5.836  15.277  0.5242  0.1056 -0.0401
 7442TIP3    H143741   0.080   5.758  15.331 -3.0328 -1.3852 -1.0167
 7442TIP3    H243742   0.074   5.805  15.187  3.2695  1.8990 -0.5325
 7443TIP3   OH243743   1.799   6.448   2.062  0.1559  0.1339 -0.7461
 7443TIP3    H143744   1.855   6.472   2.135  0.9053 -3.0708 -0.1333
 7443TIP3    H243745   1.832   6.363   2.033 -1.2926  0.4337 -3.6423
 7444TIP3   OH243746   5.032   6.740   5.569  0.2480  0.5165 -0.5059
 7444TIP3    H143747   5.033   6.805   5.639 -1.3040  1.0681 -0.9552
 7444TIP3    H243748   5.100   6.771   5.508  2.8540 -0.9016  1.4553
 7445TIP3   OH243749   6.013   4.369   4.134 -0.1063 -0.0468  0.3499
 7445TIP3    H143750   5.980   4.452   4.170 -1.1476 -0.0920 -0.4359
 7445TIP3    H243751   6.104   4.364   4.163 -0.0145  1.4052  0.3811
 7446TIP3   OH243752   2.782   4.079   1.864 -0.1888  0.0385  0.4583
 7446TIP3    H143753   2.816   3.993   1.840 -0.4289 -0.1528  0.7921
 7446TIP3    H243754   2.693   4.062   1.896 -0.0414  0.3436  1.0435
 7447TIP3   OH243755   3.588   6.232  11.901  0.1610 -0.2326 -0.0412
 7447TIP3    H143756   3.605   6.236  11.807  0.7269 -3.5661 -0.2259
 7447TIP3    H243757   3.512   6.289  11.915 -1.1816 -1.1434 -2.9003
 7448TIP3   OH243758   0.551   6.200   6.569 -0.1441  0.4340 -0.0279
 7448TIP3    H143759   0.499   6.201   6.649  0.6208  1.1247  0.4792
 7448TIP3    H243760   0.508   6.264   6.512  0.5395  1.5729  0.6781
 7449TIP3   OH243761   2.748   4.665   3.273  0.8652 -0.6678  0.4452
 7449TIP3    H143762   2.793   4.653   3.357 -0.9666 -0.0837  1.5788
 7449TIP3    H243763   2.655   4.664   3.296  0.3417  1.2442 -1.3242
 7450TIP3   OH243764   2.084   6.680  11.880  0.3682  0.2312  0.6058
 7450TIP3    H143765   2.037   6.608  11.923  0.8711 -0.1014  0.5990
 7450TIP3    H243766   2.015   6.742  11.857  0.1042  0.5526  2.1513
 7451TIP3   OH243767   0.469   0.281   6.140  0.4133 -0.1384 -0.7546
 7451TIP3    H143768   0.488   0.187   6.142 -0.0771 -0.2341 -0.2686
 7451TIP3    H243769   0.375   0.286   6.124  0.5396  0.2876 -1.4020
 7452TIP3   OH243770   2.903   1.678  15.933 -0.3929 -0.1469  0.2657
 7452TIP3    H143771   2.861   1.764  15.936  0.6816  0.3732  1.5853
 7452TIP3    H243772   2.887   1.640  16.019  0.6511 -0.5030  0.3196
 7453TIP3   OH243773   1.599   4.923  12.285  0.0076 -0.1891  0.8586
 7453TIP3    H143774   1.646   4.987  12.232  0.3563 -0.9562  0.2151
 7453TIP3    H243775   1.508   4.954  12.286 -0.0092 -0.1655 -0.2159
 7454TIP3   OH243776   3.914   3.830  13.593  0.1012  0.4464 -0.4096
 7454TIP3    H143777   3.821   3.855  13.599 -0.2366  0.1919 -3.4020
 7454TIP3    H243778   3.912   3.735  13.588  0.3759  0.5024 -1.9365
 7455TIP3   OH243779   0.553   5.493  11.161  0.3753 -0.4625 -0.0519
 7455TIP3    H143780   0.522   5.435  11.092  0.3424 -0.5888  0.0703
 7455TIP3    H243781   0.641   5.462  11.181  1.3649  1.0538 -1.7243
 7456TIP3   OH243782   5.893   5.691  15.583  0.1782  0.7489  0.2473
 7456TIP3    H143783   5.909   5.757  15.516  2.5627  0.2260  0.2268
 7456TIP3    H243784   5.965   5.701  15.645  0.9853 -2.2078 -0.0698
 7457TIP3   OH243785   2.712   5.591   3.097 -0.2152 -0.2521  0.7148
 7457TIP3    H143786   2.648   5.608   3.028 -0.6574 -0.6127  1.0287
 7457TIP3    H243787   2.660   5.556   3.170  0.2034  0.4010  1.3407
 7458TIP3   OH243788   5.279   4.243  13.461 -0.4483  0.1212 -0.0831
 7458TIP3    H143789   5.280   4.282  13.549 -0.4047 -0.1052  0.0162
 7458TIP3    H243790   5.188   4.215  13.449 -0.4883  0.2842 -0.1699
 7459TIP3   OH243791   6.276   4.218   5.029  0.6890  0.3693  0.1609
 7459TIP3    H143792   6.280   4.310   5.058 -3.6549  0.3765  1.5103
 7459TIP3    H243793   6.304   4.168   5.105 -1.4777  0.5754  1.1490
 7460TIP3   OH243794   3.992   5.025   4.132 -0.4327 -0.6355  0.4206
 7460TIP3    H143795   3.987   4.972   4.211  0.7456 -3.0424 -0.9926
 7460TIP3    H243796   4.084   5.022   4.107 -0.6800  0.5550 -0.7229
 7461TIP3   OH243797   5.838   5.798  13.292  0.1289 -0.0597 -0.0032
 7461TIP3    H143798   5.767   5.856  13.265 -1.3052 -1.2841  0.9726
 7461TIP3    H243799   5.818   5.778  13.384  1.4874 -0.8232  0.1454
 7462TIP3   OH243800   4.968   5.026  11.644 -0.6508 -0.5380  0.2157
 7462TIP3    H143801   4.929   4.956  11.696 -0.5421 -0.3489  0.5536
 7462TIP3    H243802   5.061   5.024  11.668 -0.5267 -0.7124 -0.2708
 7463TIP3   OH243803   1.189   6.173  15.051  0.5690  0.6452 -0.7576
 7463TIP3    H143804   1.196   6.234  14.977  2.2381 -0.4163 -1.5158
 7463TIP3    H243805   1.255   6.203  15.113  0.1419  0.6725 -0.3042
 7464TIP3   OH243806   0.199   4.354   0.442 -0.4205  0.1632 -0.0682
 7464TIP3    H143807   0.208   4.372   0.536  0.2896 -0.7112  0.0475
 7464TIP3    H243808   0.253   4.277   0.428 -2.4166 -1.1992 -0.7417
 7465TIP3   OH243809   3.124   0.673   3.938 -0.5103  0.2487  0.7511
 7465TIP3    H143810   3.085   0.598   3.982  0.2197 -0.4680  0.2048
 7465TIP3    H243811   3.053   0.737   3.932 -1.1404 -0.3886  1.2218
 7466TIP3   OH243812   0.339   0.344  16.163  0.3548 -0.3980  0.4032
 7466TIP3    H143813   0.258   0.379  16.200  0.4514  1.0485 -0.6902
 7466TIP3    H243814   0.370   0.281  16.229 -0.5763  0.5213  1.7715
 7467TIP3   OH243815   5.688   4.235  12.070 -0.2103  0.0489  0.3226
 7467TIP3    H143816   5.606   4.249  12.118  0.1137  1.6725  0.4556
 7467TIP3    H243817   5.735   4.169  12.121 -0.6412  0.4318  1.2366
 7468TIP3   OH243818   5.467   6.617   3.565  0.3936 -0.9565  0.5204
 7468TIP3    H143819   5.498   6.677   3.497  1.2306 -0.9104  0.9311
 7468TIP3    H243820   5.520   6.539   3.555  1.2813 -0.5534  1.7831
 7469TIP3   OH243821   5.791   1.614   0.545 -0.7045  0.2302  0.3073
 7469TIP3    H143822   5.705   1.573   0.535 -1.0329  0.4672  1.9456
 7469TIP3    H243823   5.844   1.575   0.475 -1.3137 -2.1558  1.0848
 7470TIP3   OH243824   2.385   6.504   5.582  0.1893  0.2506 -0.0907
 7470TIP3    H143825   2.425   6.513   5.669 -0.6810  2.0707  0.1837
 7470TIP3    H243826   2.320   6.434   5.593 -0.3769  0.9065  0.9337
 7471TIP3   OH243827   4.461   0.402  16.108 -0.1020  0.4623 -0.3410
 7471TIP3    H143828   4.417   0.484  16.086 -0.3019  0.6470  0.6885
 7471TIP3    H243829   4.394   0.349  16.151  0.4077  0.3742  0.3850
 7472TIP3   OH243830   3.981   2.256   1.411  0.4753  0.3195 -0.1101
 7472TIP3    H143831   3.996   2.261   1.506  1.6684 -2.4695 -0.0468
 7472TIP3    H243832   3.886   2.250   1.402  0.3649  0.2404  0.9444
 7473TIP3   OH243833   4.502   5.190  12.929 -0.3706  0.4139  0.1426
 7473TIP3    H143834   4.558   5.162  12.856 -0.5641 -2.5692  0.9987
 7473TIP3    H243835   4.560   5.240  12.986  0.6849 -0.1608 -0.4037
 7474TIP3   OH243836   3.884   5.073  12.540 -0.4354 -0.0846 -0.1586
 7474TIP3    H143837   3.917   5.157  12.570  1.4322 -0.6938 -0.3879
 7474TIP3    H243838   3.863   5.025  12.621 -0.0529  0.0509  0.0211
 7475TIP3   OH243839   4.703   0.986   2.386  0.0782 -0.2024 -0.1477
 7475TIP3    H143840   4.774   0.935   2.348  1.6707  1.9374 -0.2000
 7475TIP3    H243841   4.742   1.029   2.462 -1.6668 -0.3614  0.8922
 7476TIP3   OH243842   5.216   6.734  12.417 -0.1203  0.5426  0.1211
 7476TIP3    H143843   5.146   6.707  12.358 -1.0996 -0.5024  1.6998
 7476TIP3    H243844   5.172   6.773  12.492  1.0254  0.6920  0.7480
 7477TIP3   OH243845   3.464   2.273  10.681  0.2286 -0.1107 -0.0663
 7477TIP3    H143846   3.454   2.288  10.587  0.3988 -2.6432 -0.5362
 7477TIP3    H243847   3.379   2.239  10.709  0.6610 -0.8715  0.3600
 7478TIP3   OH243848   4.780   5.871  12.747  0.5967  0.2541 -0.6191
 7478TIP3    H143849   4.798   5.905  12.835 -0.5085 -2.7626  0.9355
 7478TIP3    H243850   4.719   5.934  12.709 -0.7809  0.4930  1.7667
 7479TIP3   OH243851   3.052   5.526   3.059 -0.4510  0.5096 -0.1754
 7479TIP3    H143852   3.093   5.446   3.092 -1.3387 -0.3028 -0.9732
 7479TIP3    H243853   2.960   5.516   3.081 -0.3265  2.1567  1.2992
 7480TIP3   OH243854   0.365   3.165   0.487  0.4934  0.0540 -0.0000
 7480TIP3    H143855   0.352   3.123   0.572 -0.8046  1.0375  0.3309
 7480TIP3    H243856   0.309   3.243   0.491 -0.6558 -0.5953 -2.2712
 7481TIP3   OH243857   0.502   4.514   5.944  0.0316 -0.4838  0.2582
 7481TIP3    H143858   0.427   4.533   6.000  0.3059  0.5693  0.3007
 7481TIP3    H243859   0.489   4.424   5.915 -1.7996 -0.0079 -0.5649
 7482TIP3   OH243860   4.455   1.088  15.081 -0.2589  0.6997  0.0467
 7482TIP3    H143861   4.497   1.135  15.009  0.8221 -1.8176 -1.0854
 7482TIP3    H243862   4.363   1.085  15.056  0.0226  0.2928 -0.9850
 7483TIP3   OH243863   6.028   5.377  12.903 -0.2344  0.3870  0.3934
 7483TIP3    H143864   5.951   5.432  12.920 -0.3736  0.5720 -0.7424
 7483TIP3    H243865   6.010   5.337  12.818  0.4077 -0.4899  0.6581
 7484TIP3   OH243866   0.141   5.515  14.377 -0.6905  0.4666  0.6262
 7484TIP3    H143867   0.212   5.527  14.440  0.7443  0.9393 -0.9942
 7484TIP3    H243868   0.178   5.545  14.294 -3.2309  2.0047 -0.0469
 7485TIP3   OH243869   1.047   1.788   1.303 -0.0182 -0.3070 -0.2585
 7485TIP3    H143870   1.098   1.869   1.304  0.4683 -0.5865  1.9819
 7485TIP3    H243871   0.961   1.815   1.271  0.7514  0.6546 -1.6409
 7486TIP3   OH243872   4.217   6.695   2.568  0.6983 -0.0476  0.4411
 7486TIP3    H143873   4.180   6.717   2.482  1.3471 -0.0467  0.1586
 7486TIP3    H243874   4.149   6.642   2.610  0.0250  0.6471  0.2609
 7487TIP3   OH243875   3.369   5.025  13.914  0.5541 -0.0148 -0.1438
 7487TIP3    H143876   3.427   5.079  13.861 -0.3524  1.3561  0.1866
 7487TIP3    H243877   3.395   5.043  14.004 -0.5058  0.7997  0.0170
 7488TIP3   OH243878   1.673   3.220   0.631 -0.0045  0.1432 -0.0599
 7488TIP3    H143879   1.661   3.315   0.622  0.4396  0.0926 -1.5677
 7488TIP3    H243880   1.729   3.197   0.557 -0.4979 -1.3706  0.0216
 7489TIP3   OH243881   0.139   2.484   1.996 -0.4397  0.0207  0.6280
 7489TIP3    H143882   0.082   2.499   1.920  1.3048 -0.8552 -0.9649
 7489TIP3    H243883   0.126   2.392   2.018  1.3256 -0.6241 -0.7214
 7490TIP3   OH243884   5.088   2.843   4.205  0.3916 -0.3608  0.6844
 7490TIP3    H143885   5.031   2.877   4.136  0.8852  1.1031  0.9609
 7490TIP3    H243886   5.150   2.786   4.160  0.0328 -0.2790  0.0829
 7491TIP3   OH243887   4.508   1.395   5.977  0.0511 -0.1482  0.1722
 7491TIP3    H143888   4.505   1.488   5.998 -0.3982 -0.3162  0.8941
 7491TIP3    H243889   4.493   1.391   5.883  1.3980  0.5843 -0.1025
 7492TIP3   OH243890   0.213   2.192   5.681  0.2451 -0.1232 -0.0333
 7492TIP3    H143891   0.153   2.267   5.678  0.6032  0.1844  0.2815
 7492TIP3    H243892   0.188   2.145   5.761  1.7631  1.1748  1.2765
 7493TIP3   OH243893   2.254   0.067  12.061  0.1277 -0.1490  0.0190
 7493TIP3    H143894   2.333   0.084  12.009 -1.0624  0.9315 -1.5036
 7493TIP3    H243895   2.267  -0.021  12.096  2.3984  0.3307  0.5532
 7494TIP3   OH243896   1.862   6.378   5.197 -0.3729  0.6461  0.6033
 7494TIP3    H143897   1.905   6.416   5.274 -1.8128 -2.0798  2.9422
 7494TIP3    H243898   1.788   6.436   5.180  0.4433  1.7510  0.6681
 7495TIP3   OH243899   6.742   0.687   5.625  0.1797  0.5672 -0.2151
 7495TIP3    H143900   6.689   0.652   5.554 -2.6437 -0.5580  2.2181
 7495TIP3    H243901   6.791   0.612   5.658 -2.9484 -0.5257  2.5301
 7496TIP3   OH243902   3.257   4.704  11.332  0.0304  0.4054  0.1346
 7496TIP3    H143903   3.259   4.622  11.381 -1.9158  0.1014 -0.2086
 7496TIP3    H243904   3.258   4.676  11.240  1.6584  0.8906 -0.0263
 7497TIP3   OH243905   1.224   0.990   0.263  0.0618 -0.2671 -0.1880
 7497TIP3    H143906   1.184   0.921   0.211  0.2053 -1.0229  0.6912
 7497TIP3    H243907   1.269   1.045   0.198 -3.2457  1.2990 -1.3999
 7498TIP3   OH243908   4.956   5.693   5.586  0.1520 -0.3718  0.7013
 7498TIP3    H143909   4.966   5.783   5.618  0.9437 -0.3496  0.4062
 7498TIP3    H243910   5.003   5.639   5.650 -0.9743 -0.6779  1.3091
 7499TIP3   OH243911   1.449   5.790   6.020  0.5949 -0.0520  0.2231
 7499TIP3    H143912   1.531   5.743   6.002  1.6416  0.2271  3.5899
 7499TIP3    H243913   1.391   5.723   6.055  0.9512  0.4891  1.9282
 7500TIP3   OH243914   0.444   0.438   1.474  0.2589 -0.2071 -0.1126
 7500TIP3    H143915   0.403   0.447   1.388 -0.4218  0.6893  0.2930
 7500TIP3    H243916   0.380   0.472   1.535  1.0595 -0.0771  0.6790
 7501TIP3   OH243917   5.830   5.134   2.191  0.0659  0.2515 -0.3103
 7501TIP3    H143918   5.894   5.113   2.123  1.0442  2.4263 -0.1560
 7501TIP3    H243919   5.878   5.186   2.255 -1.6184  1.1781  0.2887
 7502TIP3   OH243920   0.393   4.457  13.888 -0.6559 -0.4254  0.8607
 7502TIP3    H143921   0.418   4.531  13.833  0.2220 -0.1363  1.6320
 7502TIP3    H243922   0.439   4.471  13.971 -2.9172 -0.1795  2.1560
 7503TIP3   OH243923   1.901   1.885   1.058 -0.5822  0.2583 -0.3218
 7503TIP3    H143924   1.912   1.840   1.141  1.2864  0.0593 -0.6403
 7503TIP3    H243925   1.880   1.815   0.996  3.4136 -0.5241 -1.0430
 7504TIP3   OH243926   4.755   4.924  13.638 -0.3785 -0.9888 -0.0460
 7504TIP3    H143927   4.765   5.015  13.663  0.4283 -1.5031  1.6558
 7504TIP3    H243928   4.741   4.877  13.720 -0.2143 -2.4677 -0.8124
 7505TIP3   OH243929   3.832   2.512  16.693 -0.6611  0.6042  0.4673
 7505TIP3    H143930   3.757   2.559  16.657 -1.8295  0.0167  1.9650
 7505TIP3    H243931   3.903   2.575  16.694 -1.3466  1.4055 -0.3382
 7506TIP3   OH243932   6.164   1.479  14.454 -0.3008  0.1643  0.4215
 7506TIP3    H143933   6.179   1.572  14.433 -1.9609  0.8902  2.1175
 7506TIP3    H243934   6.073   1.464  14.429 -0.8523 -0.2350  2.4803
 7507TIP3   OH243935   3.802   4.818  13.399  0.3348 -0.2511 -0.0662
 7507TIP3    H143936   3.895   4.831  13.386  0.1322  1.2441 -0.1616
 7507TIP3    H243937   3.777   4.754  13.332  1.2205 -0.3892 -0.2702
 7508TIP3   OH243938   2.479   0.357  12.793  0.0959 -0.4648  0.6133
 7508TIP3    H143939   2.498   0.287  12.855 -1.2111 -0.4461  1.0634
 7508TIP3    H243940   2.400   0.328  12.747 -0.4014  0.6415  0.7218
 7509TIP3   OH243941   3.231   0.828   2.648  0.6351 -0.6910 -0.3134
 7509TIP3    H143942   3.187   0.887   2.709 -0.7222 -1.3647 -0.5864
 7509TIP3    H243943   3.247   0.881   2.570 -2.7904 -1.1803 -1.5147
 7510TIP3   OH243944   3.031   6.139   0.459  0.8592  0.5634  0.4055
 7510TIP3    H143945   2.998   6.118   0.546 -0.9648  1.7979  0.0782
 7510TIP3    H243946   2.970   6.096   0.399  2.4503 -0.7851 -0.2926
 7511TIP3   OH243947   1.383   1.360  11.143  0.2277  0.4494  0.4422
 7511TIP3    H143948   1.332   1.365  11.224 -1.6531 -1.2021 -0.5529
 7511TIP3    H243949   1.323   1.391  11.075  0.8133 -0.7658 -0.6657
 7512TIP3   OH243950   4.458   5.909  11.626  0.1840  0.0168 -0.1632
 7512TIP3    H143951   4.485   5.831  11.577 -0.7928  0.1031 -0.8667
 7512TIP3    H243952   4.363   5.899  11.636 -0.3059  2.0586 -2.0023
 7513TIP3   OH243953   5.106   6.433   6.407 -0.2964  0.0606  0.3417
 7513TIP3    H143954   5.113   6.421   6.502 -0.3061  2.5699  0.7222
 7513TIP3    H243955   5.025   6.387   6.384 -0.6959  0.0414  1.6737
 7514TIP3   OH243956   2.142   1.408  11.752  0.8642 -0.2071 -0.1613
 7514TIP3    H143957   2.047   1.406  11.757  0.9213 -1.6162  1.3893
 7514TIP3    H243958   2.167   1.322  11.720  1.5920  0.9666 -2.9907
 7515TIP3   OH243959   0.639   3.954  15.338 -0.1917  0.7763  0.3668
 7515TIP3    H143960   0.598   4.036  15.365 -3.6253 -0.5744 -0.1058
 7515TIP3    H243961   0.701   3.979  15.270 -2.0104  2.9289 -0.6308
 7516TIP3   OH243962   0.720   0.930  16.629  0.0952  0.0474 -0.1370
 7516TIP3    H143963   0.624   0.937  16.625  0.0186 -0.9102 -0.3407
 7516TIP3    H243964   0.737   0.899  16.718  0.2603  0.7655  0.0837
 7517TIP3   OH243965   5.738   1.149  10.373  0.3466 -0.4200  0.4251
 7517TIP3    H143966   5.747   1.054  10.381 -1.9278 -0.7378 -0.0191
 7517TIP3    H243967   5.747   1.181  10.463  0.1273 -1.1819  0.7299
 7518TIP3   OH243968   2.360   5.516   5.417  0.2920  0.5836  0.3967
 7518TIP3    H143969   2.339   5.603   5.452  0.5508  0.1031  1.8339
 7518TIP3    H243970   2.327   5.456   5.483 -0.8138 -0.4795 -1.0631
 7519TIP3   OH243971   0.683   5.279  15.327  0.3533  0.1665 -0.3917
 7519TIP3    H143972   0.611   5.272  15.390 -0.7815 -1.0007 -1.7296
 7519TIP3    H243973   0.681   5.370  15.298 -0.9700  0.0446 -0.7758
 7520TIP3   OH243974   1.613   1.693  16.126  0.3034 -0.5044 -0.5831
 7520TIP3    H143975   1.658   1.734  16.052  0.3291  0.1446 -0.2119
 7520TIP3    H243976   1.665   1.718  16.202 -0.5219  0.0208 -0.1819
 7521TIP3   OH243977   0.763   2.926  14.104 -0.8849 -0.1564  0.2803
 7521TIP3    H143978   0.780   2.865  14.175 -0.4690 -0.5991 -0.1907
 7521TIP3    H243979   0.849   2.961  14.081 -1.2147  1.3729  1.1967
 7522TIP3   OH243980   5.254   1.726  13.815  0.4040  0.2349 -0.3125
 7522TIP3    H143981   5.272   1.638  13.781 -0.0765  0.6388 -1.7186
 7522TIP3    H243982   5.186   1.713  13.881  0.8680 -0.5253  0.0280
 7523TIP3   OH243983   2.206   1.496  14.252 -0.0944  0.1744 -0.2799
 7523TIP3    H143984   2.301   1.490  14.264 -0.3765 -0.1872  2.3766
 7523TIP3    H243985   2.177   1.405  14.245 -0.1906  0.3121 -1.8530
 7524TIP3   OH243986   1.734   1.717  16.625 -0.5683  0.5774  0.6157
 7524TIP3    H143987   1.817   1.764  16.632  0.0161 -0.4001  0.4788
 7524TIP3    H243988   1.693   1.727  16.711 -1.1075  2.4532  0.1957
 7525TIP3   OH243989   0.171   5.656   2.077  0.5823 -0.9663 -0.7435
 7525TIP3    H143990   0.148   5.645   2.169  1.2396 -0.8069 -0.5568
 7525TIP3    H243991   0.195   5.568   2.048 -0.4495 -1.1739 -0.9977
 7526TIP3   OH243992   0.323   1.064   3.524 -0.4476  0.4349 -0.0864
 7526TIP3    H143993   0.274   1.145   3.542 -1.0390  0.3006 -1.0517
 7526TIP3    H243994   0.322   1.056   3.429  1.0988  0.1991 -0.0982
 7527TIP3   OH243995   5.450   3.961   1.217 -0.0958 -0.2534  0.1044
 7527TIP3    H143996   5.469   3.869   1.235 -2.0664 -1.0365 -1.4331
 7527TIP3    H243997   5.371   3.980   1.268 -0.9770 -0.1163 -1.2466
 7528TIP3   OH243998   4.614   6.050  12.616 -0.0786 -0.2942 -0.4303
 7528TIP3    H143999   4.523   6.063  12.643  0.3722  0.4360  0.8490
 7528TIP3    H244000   4.653   6.137  12.620  0.6287 -0.5582 -1.2002
 7529TIP3   OH244001   2.741   1.576  13.535 -0.1464 -0.2789  0.3057
 7529TIP3    H144002   2.816   1.630  13.561 -0.7428  1.1192 -0.7575
 7529TIP3    H244003   2.680   1.584  13.608  0.7194 -1.4687  1.2028
 7530TIP3   OH244004   0.779   1.546   4.535  0.1940 -0.0546  0.7975
 7530TIP3    H144005   0.712   1.613   4.551 -1.6073 -1.4022 -0.5526
 7530TIP3    H244006   0.772   1.487   4.610  0.9401  0.5883  1.3889
 7531TIP3   OH244007   1.936   5.459   3.319 -0.2694  0.4753 -0.1484
 7531TIP3    H144008   1.937   5.402   3.242 -0.8255  2.1193 -1.4301
 7531TIP3    H244009   1.879   5.532   3.294  0.2986  1.5263  1.4827
 7532TIP3   OH244010   5.092   2.670   5.288 -0.0896 -0.2509 -0.2039
 7532TIP3    H144011   5.083   2.579   5.259 -1.6475 -0.5911  1.1573
 7532TIP3    H244012   5.048   2.672   5.373  1.3083  1.4382  0.5412
 7533TIP3   OH244013   6.280   5.520   5.178  0.6499  0.4438  0.1797
 7533TIP3    H144014   6.280   5.558   5.090  0.1826  2.2447  0.8996
 7533TIP3    H244015   6.187   5.520   5.204  0.6656 -1.0338  0.2955
 7534TIP3   OH244016   5.024   1.960  10.689 -0.1014  0.5048 -0.5824
 7534TIP3    H144017   5.082   1.924  10.756 -1.6738 -0.8367  0.1105
 7534TIP3    H244018   4.953   1.897  10.681  0.1741  0.4281 -3.7892
 7535TIP3   OH244019   4.795   4.132  15.844 -0.1575 -0.0604  0.2733
 7535TIP3    H144020   4.768   4.147  15.753 -2.2949 -0.2514  0.8330
 7535TIP3    H244021   4.730   4.179  15.896  0.3820 -0.8903  1.7328
 7536TIP3   OH244022   5.216   1.719   3.004  0.0004 -0.1567 -0.2197
 7536TIP3    H144023   5.163   1.710   3.083 -1.0155  2.1633 -0.5700
 7536TIP3    H244024   5.300   1.755   3.034  0.0737 -0.4558 -0.0661
 7537TIP3   OH244025   4.660   4.696   5.421  0.3337  0.6034  0.2212
 7537TIP3    H144026   4.681   4.607   5.450 -0.5541  0.5601  0.7491
 7537TIP3    H244027   4.628   4.685   5.331 -1.5528  0.1480  0.9111
 7538TIP3   OH244028   0.214   1.482   1.459 -0.3276  0.1638  0.2026
 7538TIP3    H144029   0.267   1.414   1.501 -1.9519 -1.3145 -0.0254
 7538TIP3    H244030   0.205   1.550   1.525 -0.0768 -0.6167  1.0521
 7539TIP3   OH244031   5.935   4.651  12.739  0.5308  0.2592  0.5222
 7539TIP3    H144032   5.999   4.588  12.705 -1.4042 -1.1051 -0.8025
 7539TIP3    H244033   5.977   4.736  12.725  1.7195 -0.5229 -1.0977
 7540TIP3   OH244034   1.650   2.558  11.603 -0.6780 -0.3515 -0.6494
 7540TIP3    H144035   1.645   2.638  11.551 -0.2855 -0.6451 -1.1519
 7540TIP3    H244036   1.589   2.498  11.561 -0.1936 -0.6666 -0.9159
 7541TIP3   OH244037   2.902   3.366   1.706 -0.5781  0.2790  0.6664
 7541TIP3    H144038   2.980   3.340   1.657 -1.7945 -0.3364 -1.0754
 7541TIP3    H244039   2.926   3.356   1.798  1.1913 -0.4534  0.1661
 7542TIP3   OH244040   4.724   1.577  16.145 -0.1617  0.3181  0.1644
 7542TIP3    H144041   4.690   1.496  16.107  1.3301  0.0456 -0.6584
 7542TIP3    H244042   4.657   1.603  16.209 -0.0828 -2.2440  1.4183
 7543TIP3   OH244043   5.829   6.508   0.530  0.3016  0.0948  0.0967
 7543TIP3    H144044   5.792   6.527   0.617  0.5796  0.2816  0.1750
 7543TIP3    H244045   5.901   6.448   0.547 -0.1347 -0.4945 -0.0848
 7544TIP3   OH244046   6.703   2.317  10.999  0.1236 -0.3729  0.1709
 7544TIP3    H144047   6.616   2.281  11.017  0.2219 -0.3383  0.7291
 7544TIP3    H244048   6.763   2.243  11.012  0.1426 -0.5125 -0.6491
 7545TIP3   OH244049   6.023   6.640  11.620 -1.0404  0.3314  0.0349
 7545TIP3    H144050   6.049   6.589  11.696 -2.2545 -0.0097  0.2324
 7545TIP3    H244051   6.069   6.600  11.547  1.4230  1.6289  0.7405
 7546TIP3   OH244052   0.197   1.814   2.650  0.0720  0.2589  0.1409
 7546TIP3    H144053   0.163   1.844   2.734  0.5451  0.4730  0.2591
 7546TIP3    H244054   0.159   1.874   2.586 -0.9088 -0.3725  0.1037
 7547TIP3   OH244055   5.052   2.479  12.399  0.3119 -0.1821 -0.2139
 7547TIP3    H144056   5.029   2.554  12.345 -2.6492  0.6011  1.9004
 7547TIP3    H244057   5.106   2.516  12.469 -0.8680 -0.0176  0.6409
 7548TIP3   OH244058   0.967   3.421  14.100  0.3301  0.2199  0.2068
 7548TIP3    H144059   0.904   3.358  14.133  0.1839  0.2420 -0.0272
 7548TIP3    H244060   0.980   3.397  14.008  0.6131  0.2538  0.2344
 7549TIP3   OH244061   5.827   2.618   2.318  0.6583 -0.5729 -0.5955
 7549TIP3    H144062   5.766   2.656   2.255  1.5070  2.1504  0.1083
 7549TIP3    H244063   5.772   2.564   2.375 -0.2673 -2.2779 -2.9333
 7550TIP3   OH244064   5.529   4.354  13.572  0.0540 -0.0313  0.0436
 7550TIP3    H144065   5.441   4.367  13.607 -0.2555  0.2592 -0.7950
 7550TIP3    H244066   5.569   4.441  13.574  0.8574 -0.4061  1.7469
 7551TIP3   OH244067   4.758   0.040  10.797 -0.2802  0.2360  0.6534
 7551TIP3    H144068   4.687   0.103  10.787  0.4793  1.0845  0.5375
 7551TIP3    H244069   4.781   0.015  10.708  0.7813  1.3568  0.5903
 7552TIP3   OH244070   6.328   2.107  10.699  0.0101 -0.5513  0.0317
 7552TIP3    H144071   6.274   2.124  10.622 -0.8837  0.4463  0.8509
 7552TIP3    H244072   6.267   2.072  10.764 -0.0633  2.1276  1.5299
 7553TIP3   OH244073   3.036   1.750  16.978 -0.0343  0.2153  0.6553
 7553TIP3    H144074   3.080   1.823  17.021  1.3121 -0.3721  0.3299
 7553TIP3    H244075   2.992   1.703  17.049 -2.1509  2.0953  0.7075
 7554TIP3   OH244076   1.047   0.060   5.664 -0.5357 -0.1605 -0.0753
 7554TIP3    H144077   1.080   0.100   5.745 -0.4368 -0.3484 -0.0225
 7554TIP3    H244078   1.126   0.041   5.614 -0.6419  2.5777 -1.4899
 7555TIP3   OH244079   4.490   4.396  14.406 -0.3430 -0.5029  0.0610
 7555TIP3    H144080   4.585   4.381  14.414 -0.4970 -1.0357  0.9407
 7555TIP3    H244081   4.483   4.468  14.342  0.7049  0.2038  0.7047
 7556TIP3   OH244082   1.178   1.946  11.308 -0.3483  0.2139 -0.0825
 7556TIP3    H144083   1.183   1.851  11.321 -0.8741  0.2691  0.6204
 7556TIP3    H244084   1.103   1.973  11.362 -1.0857  0.8380 -1.3715
 7557TIP3   OH244085   0.316   2.851  13.172  0.0336  0.8274 -0.1788
 7557TIP3    H144086   0.247   2.789  13.197 -1.0085  2.0857  0.1914
 7557TIP3    H244087   0.387   2.835  13.233 -0.4554  0.3894  0.2821
 7558TIP3   OH244088   0.322   5.391   0.512  0.0955 -0.1547 -0.4811
 7558TIP3    H144089   0.342   5.484   0.523 -1.5375  0.2150 -0.3610
 7558TIP3    H244090   0.394   5.346   0.557  1.6222  0.9839 -1.6896
 7559TIP3   OH244091   3.215   3.837  16.616  0.0425 -0.2702  0.3658
 7559TIP3    H144092   3.181   3.881  16.538 -1.2154 -0.6415  0.6807
 7559TIP3    H244093   3.310   3.833  16.602  0.3355  3.0096  0.5529
 7560TIP3   OH244094   1.654   3.540   2.767  0.0977  0.3794  0.2714
 7560TIP3    H144095   1.719   3.496   2.821  1.6331  2.4069  0.1861
 7560TIP3    H244096   1.648   3.486   2.688  0.0885 -0.9527  1.1515
 7561TIP3   OH244097   1.653   2.819   3.144  0.0945  0.2354 -0.4482
 7561TIP3    H144098   1.573   2.861   3.175  0.4253  0.7382 -0.2652
 7561TIP3    H244099   1.623   2.744   3.094 -0.4531 -0.7586  1.2852
 7562TIP3   OH244100   2.733   4.860   4.734  0.0633  0.2543  0.0400
 7562TIP3    H144101   2.740   4.920   4.809 -0.5950  0.2239  0.1286
 7562TIP3    H244102   2.758   4.913   4.659  2.4704 -0.1629  0.4474
 7563TIP3   OH244103   3.625   4.451  15.826  0.2162 -0.4525 -0.5302
 7563TIP3    H144104   3.713   4.419  15.809  0.2233 -0.7770  0.0927
 7563TIP3    H244105   3.599   4.495  15.744  0.0193 -2.4457 -1.5933
 7564TIP3   OH244106   3.620   0.880   4.274  0.2672 -0.0633  0.1105
 7564TIP3    H144107   3.572   0.851   4.351 -1.2907 -0.6510 -1.0264
 7564TIP3    H244108   3.554   0.881   4.204  2.0262 -1.4157 -1.6550
 7565TIP3   OH244109   1.148   0.469   2.505 -0.2943  0.0936  0.8561
 7565TIP3    H144110   1.208   0.411   2.551 -1.1669 -0.8838  0.8095
 7565TIP3    H244111   1.122   0.534   2.571  0.3255  0.1665  1.0392
 7566TIP3   OH244112   3.477   4.901  15.866 -0.3798  0.1306  0.3128
 7566TIP3    H144113   3.515   4.965  15.926 -1.5438  0.8096  0.3412
 7566TIP3    H244114   3.413   4.950  15.815 -2.7221 -1.3503  1.6300
 7567TIP3   OH244115   1.631   4.546   3.570 -0.4267  0.0918 -0.8159
 7567TIP3    H144116   1.616   4.542   3.664  1.0057 -0.4858 -0.5845
 7567TIP3    H244117   1.568   4.485   3.533  0.3670 -1.2522 -0.0261
 7568TIP3   OH244118   1.083   5.303  16.049  0.4451 -0.0254 -0.2013
 7568TIP3    H144119   1.178   5.293  16.043  0.3818  0.0170 -1.5151
 7568TIP3    H244120   1.071   5.378  16.107  1.2386  0.7127 -0.9721
 7569TIP3   OH244121   6.710   0.583   2.669  0.1086  0.3361  0.0153
 7569TIP3    H144122   6.634   0.639   2.654 -0.6683 -0.8490 -0.5634
 7569TIP3    H244123   6.742   0.609   2.756 -1.1666  0.6110  0.4188
 7570TIP3   OH244124   4.956   0.048  14.253  0.3185  0.1589 -0.3619
 7570TIP3    H144125   4.992  -0.035  14.222 -0.4264 -0.2437 -0.1926
 7570TIP3    H244126   4.871   0.024  14.289  0.3206  0.9213  0.1688
 7571TIP3   OH244127   3.540   2.449  11.181 -0.0793 -0.0954 -0.1061
 7571TIP3    H144128   3.601   2.521  11.162 -0.3612  0.8874  2.2963
 7571TIP3    H244129   3.596   2.373  11.196  0.5918  0.6677  1.5124
 7572TIP3   OH244130   6.494   2.276   1.152  0.0246  0.5739  0.3548
 7572TIP3    H144131   6.474   2.199   1.099  2.3057 -0.8681  1.4585
 7572TIP3    H244132   6.528   2.340   1.090 -0.8916  0.3268 -0.4305
 7573TIP3   OH244133   0.144   4.558   1.331 -0.9344 -0.6451  0.3323
 7573TIP3    H144134   0.133   4.651   1.314 -1.2187 -1.0572 -2.1535
 7573TIP3    H244135   0.203   4.553   1.406  0.5359  1.5213 -0.6094
 7574TIP3   OH244136   3.051   1.230  16.307 -0.1845  0.1825  0.2089
 7574TIP3    H144137   3.100   1.299  16.351  0.6870 -0.8584  0.9283
 7574TIP3    H244138   3.015   1.178  16.379 -0.4853 -0.3464 -0.3179
 7575TIP3   OH244139   1.986   0.365  13.476  0.3765 -0.2482 -0.7910
 7575TIP3    H144140   2.064   0.374  13.421 -0.1317 -0.9116 -1.6576
 7575TIP3    H244141   1.923   0.427  13.439  0.0412 -0.6767 -0.9468
 7576TIP3   OH244142   0.556   5.008   4.512 -0.1926 -0.1011  0.6137
 7576TIP3    H144143   0.565   4.925   4.465 -1.0726 -0.8490  1.7067
 7576TIP3    H244144   0.585   5.074   4.449  0.0674 -1.1831 -0.4534
 7577TIP3   OH244145   4.419   2.907   4.962 -0.0133 -0.3207 -0.1945
 7577TIP3    H144146   4.476   2.972   4.922  0.9484 -1.6191 -1.0384
 7577TIP3    H244147   4.476   2.857   5.021 -0.9935  0.3254  1.3580
 7578TIP3   OH244148   1.060   4.285  14.360 -0.6096  0.2671  0.3479
 7578TIP3    H144149   1.151   4.257  14.373 -0.7694 -0.5162 -0.1393
 7578TIP3    H244150   1.058   4.374  14.394 -0.2008 -0.4489  2.4282
 7579TIP3   OH244151   1.474   1.033  11.484  0.2473  0.5206  0.4798
 7579TIP3    H144152   1.495   0.940  11.479  2.5931  1.0154 -0.0894
 7579TIP3    H244153   1.554   1.075  11.515 -0.4209  2.4704 -0.2318
 7580TIP3   OH244154   5.465   4.183  16.757 -0.9033 -0.0211  0.1045
 7580TIP3    H144155   5.550   4.209  16.722 -0.2746  0.8930  2.1833
 7580TIP3    H244156   5.451   4.094  16.723  1.0122 -0.2983 -0.0526
 7581TIP3   OH244157   1.715   5.601   5.429 -0.4934 -0.1477  0.5895
 7581TIP3    H144158   1.657   5.525   5.435  0.2119 -0.7489 -0.0159
 7581TIP3    H244159   1.796   5.566   5.394  0.3211  0.6452  1.6137
 7582TIP3   OH244160   6.480   6.458   0.067 -0.3602 -0.3965  0.0349
 7582TIP3    H144161   6.454   6.412   0.147 -0.7246  1.7542  1.2389
 7582TIP3    H244162   6.566   6.423   0.046 -0.0692 -0.7346  1.6405
 7583TIP3   OH244163   0.389   3.016  12.102  0.2897  0.8040  0.1903
 7583TIP3    H144164   0.405   3.039  12.193  1.2245 -0.0728  0.2665
 7583TIP3    H244165   0.420   2.926  12.094 -2.0934 -0.0400 -0.3918
 7584TIP3   OH244166   3.514   4.866   2.548 -0.2932 -0.5753  0.2552
 7584TIP3    H144167   3.507   4.772   2.567  1.6512 -0.9750 -0.7401
 7584TIP3    H244168   3.447   4.881   2.482 -1.5754 -0.9256  1.4295
 7585TIP3   OH244169   5.280   3.319  14.432 -0.3090 -0.2833 -0.2517
 7585TIP3    H144170   5.225   3.289  14.504  0.8347 -0.2897  0.6351
 7585TIP3    H244171   5.268   3.252  14.364  0.9433 -1.9511  1.0807
 7586TIP3   OH244172   1.570   0.430   2.530  0.1073 -0.5680  0.3403
 7586TIP3    H144173   1.653   0.469   2.559 -0.4514  0.6518  0.3541
 7586TIP3    H244174   1.555   0.357   2.590  1.3331 -1.0335  0.1258
 7587TIP3   OH244175   6.566   1.192  16.238 -0.0352 -0.3634  0.4115
 7587TIP3    H144176   6.504   1.173  16.167  1.5439 -0.9903 -0.8510
 7587TIP3    H244177   6.537   1.277  16.272 -1.4727 -0.5506 -0.2498
 7588TIP3   OH244178   3.145   4.030  12.107  0.8805  0.5693  0.5790
 7588TIP3    H144179   3.052   4.008  12.107  0.5255  1.7003 -2.0435
 7588TIP3    H244180   3.155   4.088  12.182 -0.1860 -0.6506  1.7299
 7589TIP3   OH244181   4.105   6.331  14.602  0.4867 -0.0384  0.4848
 7589TIP3    H144182   4.152   6.280  14.667  1.3108  0.8619  0.6318
 7589TIP3    H244183   4.121   6.422  14.627  0.5866  0.3249 -0.7955
 7590TIP3   OH244184   4.395   3.786   4.217  0.1496 -0.1662 -0.1668
 7590TIP3    H144185   4.304   3.789   4.245  0.0854 -1.2755 -0.2255
 7590TIP3    H244186   4.398   3.841   4.138 -0.4276 -0.0122 -0.0849
 7591TIP3   OH244187   0.377   1.529   1.217  0.2648 -0.0630  0.3067
 7591TIP3    H144188   0.429   1.451   1.235  0.8740  0.6136  1.5994
 7591TIP3    H244189   0.309   1.529   1.285  0.0071  0.3026  0.0567
 7592TIP3   OH244190   0.125   1.232   0.281 -0.0764  0.1684  0.0742
 7592TIP3    H144191   0.101   1.229   0.189  1.6696  0.4657 -0.4303
 7592TIP3    H244192   0.166   1.147   0.298  2.3520  1.1647 -0.3018
 7593TIP3   OH244193   2.748   5.680  15.035 -0.0296 -0.1208  0.3748
 7593TIP3    H144194   2.664   5.721  15.056 -0.6364 -0.4710 -1.2065
 7593TIP3    H244195   2.772   5.632  15.114 -1.6580 -0.5483  0.6510
 7594TIP3   OH244196   0.390   5.368  10.980  0.3183  0.3313  0.7041
 7594TIP3    H144197   0.327   5.297  10.989  3.0379 -2.1639  1.7745
 7594TIP3    H244198   0.341   5.438  10.937 -3.4297 -0.9303  2.4788
 7595TIP3   OH244199   1.783   3.233  15.534 -0.2143 -0.4908 -0.1705
 7595TIP3    H144200   1.710   3.252  15.475  0.4540  1.1704 -0.5056
 7595TIP3    H244201   1.839   3.172  15.485 -0.1818  0.0876 -0.8649
 7596TIP3   OH244202   4.231   0.465   3.228 -0.2928  0.3834  0.0083
 7596TIP3    H144203   4.282   0.388   3.207 -0.2689  0.3524  0.1862
 7596TIP3    H244204   4.140   0.440   3.209 -0.7971 -0.9388  3.4938
 7597TIP3   OH244205   3.573   3.701  12.422  1.0564 -0.4613 -0.3590
 7597TIP3    H144206   3.563   3.785  12.467 -0.4087 -0.8497  0.0783
 7597TIP3    H244207   3.540   3.717  12.333  0.4960 -0.6413 -0.1870
 7598TIP3   OH244208   3.840   2.706   4.762 -0.2759 -0.4463  0.2201
 7598TIP3    H144209   3.924   2.713   4.809  0.6149  3.4254 -1.5309
 7598TIP3    H244210   3.859   2.739   4.674 -3.5720  0.1578 -0.3927
 7599TIP3   OH244211   2.145   2.069  14.469  0.6644 -0.5771 -0.6069
 7599TIP3    H144212   2.121   2.154  14.433  2.2512 -0.5696 -1.7448
 7599TIP3    H244213   2.092   2.006  14.421 -1.8931 -0.2042  1.4912
 7600TIP3   OH244214   1.490   6.301  12.809 -0.2854 -0.3195 -0.2053
 7600TIP3    H144215   1.563   6.273  12.865  0.1372  0.1129 -0.5310
 7600TIP3    H244216   1.451   6.375  12.855 -0.4334 -0.4652 -0.0969
 7601TIP3   OH244217   3.751   0.275   1.173  0.4168  0.0834  0.4233
 7601TIP3    H144218   3.751   0.352   1.117  1.0653  0.3578  0.7935
 7601TIP3    H244219   3.698   0.211   1.126  2.4225 -0.3414 -1.4151
 7602TIP3   OH244220   4.852   4.346   4.166 -0.3346  0.2105  0.6825
 7602TIP3    H144221   4.929   4.391   4.202 -0.0573 -0.5876  1.1079
 7602TIP3    H244222   4.877   4.254   4.164 -0.3313  0.1918 -1.5667
 7603TIP3   OH244223   5.236   3.890  13.729 -0.3640  0.1090  0.2483
 7603TIP3    H144224   5.193   3.821  13.678  2.0440 -2.0055  0.9223
 7603TIP3    H244225   5.298   3.930  13.668  0.7060 -0.7134  0.7619
 7604TIP3   OH244226   3.498   6.353   4.955 -0.0875 -0.1438  0.8275
 7604TIP3    H144227   3.562   6.412   4.916  1.5122 -2.5873 -0.4590
 7604TIP3    H244228   3.423   6.356   4.895 -0.5133  1.3570  1.3823
 7605TIP3   OH244229   0.455   2.039  16.652  0.0084  0.2284 -0.1513
 7605TIP3    H144230   0.448   1.970  16.718  0.2418  0.2888 -0.0593
 7605TIP3    H244231   0.394   2.107  16.683  0.3110  0.3685  0.1462
 7606TIP3   OH244232   4.659   5.218  14.177  0.2564  0.7791 -0.3245
 7606TIP3    H144233   4.585   5.269  14.144 -1.3749 -0.8506  0.6037
 7606TIP3    H244234   4.638   5.204  14.270  2.5175  1.5457  0.3596
 7607TIP3   OH244235   3.761   0.523  11.421 -0.2391 -0.3499  0.5414
 7607TIP3    H144236   3.716   0.605  11.402 -3.4887 -2.0480  0.1296
 7607TIP3    H244237   3.798   0.536  11.508  0.0088  1.7857  0.1691
 7608TIP3   OH244238   6.473   5.395   1.444 -0.1369 -0.5266 -0.1194
 7608TIP3    H144239   6.482   5.313   1.493 -1.2347  0.3208  1.5706
 7608TIP3    H244240   6.461   5.462   1.510 -0.2642  0.8853 -1.5124
 7609TIP3   OH244241   6.166   1.498  16.546 -0.2521  0.1487 -0.5596
 7609TIP3    H144242   6.182   1.451  16.464  0.3783 -1.4057  0.4151
 7609TIP3    H244243   6.165   1.430  16.613 -0.2001  1.4491  0.8083
 7610TIP3   OH244244   3.773   2.987  12.874  0.1666 -0.1299 -0.1978
 7610TIP3    H144245   3.847   2.928  12.856  0.2067  0.5626 -2.5578
 7610TIP3    H244246   3.815   3.070  12.898  0.1200 -0.2457  0.3012
 7611TIP3   OH244247   0.604   4.571   5.434 -0.1681  0.4187  0.3928
 7611TIP3    H144248   0.598   4.534   5.522 -0.2024 -0.5655 -0.0080
 7611TIP3    H244249   0.514   4.595   5.412 -0.5034 -1.1715 -0.1186
 7612TIP3   OH244250   5.154   3.421  12.655 -0.7327  0.3243  0.0765
 7612TIP3    H144251   5.161   3.362  12.731  0.1178 -2.1711 -1.7860
 7612TIP3    H244252   5.218   3.490  12.672  0.0020 -0.6127  1.2845
 7613TIP3   OH244253   6.811   5.854  12.240  0.6353  0.2530  0.0496
 7613TIP3    H144254   6.833   5.922  12.176 -0.4672 -0.5823 -1.2843
 7613TIP3    H244255   6.876   5.785  12.224  0.2132 -0.0580 -0.3647
 7614TIP3   OH244256   1.505   3.978  13.737  0.1968  0.6049 -0.0716
 7614TIP3    H144257   1.525   3.897  13.690  1.0605  0.4937  0.4838
 7614TIP3    H244258   1.580   4.035  13.721  1.0605  0.1603  2.0741
 7615TIP3   OH244259   1.083   4.184   1.782  0.1250  0.2012 -0.2995
 7615TIP3    H144260   1.056   4.227   1.864  0.0194  3.6911 -1.9617
 7615TIP3    H244261   1.086   4.091   1.803 -1.1233  0.8210  3.3042
 7616TIP3   OH244262   5.401   4.420   6.440  0.0292 -0.1454  0.3312
 7616TIP3    H144263   5.336   4.354   6.420  0.8580 -1.5413  1.9921
 7616TIP3    H244264   5.478   4.396   6.388 -0.0392  0.1744  0.0812
 7617TIP3   OH244265   0.606   0.270   5.852  0.3313  0.0543  0.1338
 7617TIP3    H144266   0.695   0.234   5.855  0.2154 -0.2985 -0.5508
 7617TIP3    H244267   0.602   0.330   5.927  0.5600 -1.2829  1.2651
 7618TIP3   OH244268   0.712   4.299  13.414  0.5516  0.1738  0.0465
 7618TIP3    H144269   0.645   4.366  13.432 -0.1300 -0.7477  1.0809
 7618TIP3    H244270   0.710   4.289  13.319 -0.6498  0.3196  0.0345
 7619TIP3   OH244271   6.173   6.547   3.069  0.9023  0.3016  0.1541
 7619TIP3    H144272   6.224   6.628   3.064 -0.8435  1.4495  0.0938
 7619TIP3    H244273   6.135   6.548   3.157 -0.4414  0.3923 -0.4124
 7620TIP3   OH244274   5.890   4.092  15.364  0.0575 -0.2120 -0.3196
 7620TIP3    H144275   5.983   4.084  15.348  0.3564 -0.8179  1.4707
 7620TIP3    H244276   5.851   4.102  15.278  1.8697  1.1984 -1.0388
 7621TIP3   OH244277   1.027   2.312   4.672  0.0250  0.4659 -0.1364
 7621TIP3    H144278   1.065   2.399   4.689  2.1771 -0.1572 -1.4635
 7621TIP3    H244279   1.039   2.265   4.755 -1.4431  1.4813  0.6983
 7622TIP3   OH244280   4.514   1.531   1.759 -0.2232  0.1264 -0.1263
 7622TIP3    H144281   4.526   1.534   1.854 -0.6112 -0.0315 -0.0705
 7622TIP3    H244282   4.592   1.573   1.724 -0.3639  0.7337  0.2818
 7623TIP3   OH244283   6.607   6.315   5.029 -0.0641  0.8002 -0.5673
 7623TIP3    H144284   6.695   6.282   5.051 -0.1918  1.3366  0.8726
 7623TIP3    H244285   6.622   6.404   4.998  0.0820  0.1546 -2.4854
 7624TIP3   OH244286   2.108   0.695  14.186 -0.3088 -0.2271 -1.0536
 7624TIP3    H144287   2.034   0.637  14.167  0.3144 -0.6124 -2.4584
 7624TIP3    H244288   2.122   0.685  14.280 -1.8959 -0.3006 -0.7874
 7625TIP3   OH244289   3.218   2.683   2.531 -0.2107  0.4414 -0.4685
 7625TIP3    H144290   3.283   2.662   2.463 -0.1713  1.4341 -0.7588
 7625TIP3    H244291   3.259   2.653   2.613  0.3181  0.4211 -0.7319
 7626TIP3   OH244292   2.567   6.634   0.515  0.3177  0.1332  0.4089
 7626TIP3    H144293   2.617   6.676   0.586 -0.7663  3.8124 -0.7890
 7626TIP3    H244294   2.611   6.663   0.435 -1.1073 -0.2530 -0.5424
 7627TIP3   OH244295   1.183   4.106  11.513  0.1515  0.0588  0.3272
 7627TIP3    H144296   1.143   4.130  11.597  2.4255  0.8337  1.2920
 7627TIP3    H244297   1.189   4.188  11.465  0.3682 -0.0839  0.1080
 7628TIP3   OH244298   2.202   5.973   3.086  0.0850  0.4583  0.2666
 7628TIP3    H144299   2.281   5.965   3.033  0.6885  0.6202  1.1216
 7628TIP3    H244300   2.233   5.964   3.177 -1.2522 -2.5563  0.5360
 7629TIP3   OH244301   5.956   5.249  11.778  0.2642  0.2576  0.1118
 7629TIP3    H144302   5.928   5.319  11.837 -2.4487 -0.2026 -0.4930
 7629TIP3    H244303   5.955   5.170  11.833 -1.0924  0.0204 -0.2240
 7630TIP3   OH244304   6.531   3.031  11.175 -0.2693 -0.0296 -0.1685
 7630TIP3    H144305   6.564   2.989  11.096 -2.6885  0.1342 -1.3589
 7630TIP3    H244306   6.520   3.123  11.151  0.1364  0.2706  0.7582
 7631TIP3   OH244307   2.936   2.380   2.081 -0.1444 -0.2927  0.3519
 7631TIP3    H144308   2.880   2.456   2.099  0.5271  0.6762 -1.3700
 7631TIP3    H244309   2.950   2.383   1.987 -0.5608 -2.9463  0.1456
 7632TIP3   OH244310   4.194   2.160  16.827  0.6926 -0.1092 -0.0121
 7632TIP3    H144311   4.235   2.132  16.745  0.5573 -1.7466  0.4435
 7632TIP3    H244312   4.261   2.148  16.894  1.0336  1.8727  0.0738
 7633TIP3   OH244313   5.612   3.547   0.451 -0.5161  0.5046 -0.4682
 7633TIP3    H144314   5.672   3.616   0.476  1.8047 -1.5720  0.0686
 7633TIP3    H244315   5.588   3.504   0.533  0.1471 -0.8964 -0.9711
 7634TIP3   OH244316   2.320   4.415  14.212  0.3104  0.0082 -0.0664
 7634TIP3    H144317   2.380   4.382  14.145  0.3027 -0.0418 -0.0494
 7634TIP3    H244318   2.278   4.491  14.173 -1.5417 -1.4641 -1.0686
 7635TIP3   OH244319   0.834   0.187   5.582  0.1626  0.2382  0.1465
 7635TIP3    H144320   0.848   0.281   5.591  1.0876  0.1875 -0.6002
 7635TIP3    H244321   0.915   0.147   5.614  0.0853 -0.2726 -0.2762
 7636TIP3   OH244322   2.216   1.991  15.741 -0.1327 -0.0711  0.2627
 7636TIP3    H144323   2.310   2.006  15.757 -0.1334  0.7433 -0.4091
 7636TIP3    H244324   2.172   2.063  15.786 -0.2890  0.7582 -1.1575
 7637TIP3   OH244325   2.708   2.902  14.249  0.3589 -0.0083  0.1712
 7637TIP3    H144326   2.792   2.873  14.213 -0.3243  0.1913 -1.7433
 7637TIP3    H244327   2.731   2.954  14.326  1.9933  0.0084 -0.2876
 7638TIP3   OH244328   5.380   1.981  13.808 -0.0882 -1.2274 -0.3113
 7638TIP3    H144329   5.353   1.894  13.840  0.4047 -1.7051 -1.1659
 7638TIP3    H244330   5.476   1.979  13.814 -0.0774 -0.7186 -0.3028
 7639TIP3   OH244331   3.360   3.532  11.443  0.0001  0.0405  0.0243
 7639TIP3    H144332   3.370   3.460  11.381 -1.0261  0.5447 -0.7527
 7639TIP3    H244333   3.285   3.582  11.411 -0.3339  0.5318  1.4646
 7640TIP3   OH244334   4.993   4.304   0.930  0.0133  0.3056  0.4802
 7640TIP3    H144335   4.953   4.225   0.964 -2.4595  2.5472  3.2986
 7640TIP3    H244336   4.921   4.366   0.920  2.0373  2.8220  0.3133
 7641TIP3   OH244337   4.158   2.733  14.559 -0.2046  0.0323 -0.2999
 7641TIP3    H144338   4.228   2.682  14.518 -1.2062 -1.2028 -0.5505
 7641TIP3    H244339   4.196   2.763  14.642  1.3440  1.2804 -1.3966
 7642TIP3   OH244340   3.079   2.238  15.370  0.1929  0.1395 -0.1829
 7642TIP3    H144341   3.131   2.182  15.312  0.4502  0.3239 -0.1263
 7642TIP3    H244342   3.111   2.218  15.458  1.5647  1.6937 -0.2780
 7643TIP3   OH244343   2.641   3.103   5.338  0.8376 -0.1697 -0.2504
 7643TIP3    H144344   2.729   3.139   5.339  1.4509 -1.3760  3.1581
 7643TIP3    H244345   2.653   3.009   5.351 -0.8927 -0.1738  1.9083
 7644TIP3   OH244346   1.124   0.946   3.612  0.0889 -0.2291  0.3423
 7644TIP3    H144347   1.104   1.010   3.544  1.0535  0.0632  0.3137
 7644TIP3    H244348   1.041   0.904   3.631 -0.3915  0.4220 -0.2700
 7645TIP3   OH244349   5.384   2.137   5.197  0.3922  0.3071  0.5037
 7645TIP3    H144350   5.340   2.054   5.214 -0.7592  0.8142  0.0824
 7645TIP3    H244351   5.393   2.179   5.282  0.2129  0.1201  0.6126
 7646TIP3   OH244352   1.477   2.693  14.496  0.0197  0.6579  0.1458
 7646TIP3    H144353   1.489   2.691  14.591 -2.0337 -2.1623  0.4618
 7646TIP3    H244354   1.384   2.711  14.483 -0.3040 -1.5076 -1.1433
 7647TIP3   OH244355   0.164   1.810  12.226  0.1862 -0.3689  0.0492
 7647TIP3    H144356   0.091   1.856  12.184  0.4818 -0.1549 -0.2340
 7647TIP3    H244357   0.211   1.769  12.154 -0.1688 -1.2636  0.3131
 7648TIP3   OH244358   2.476   4.005   5.598  0.7445 -0.0864  0.8034
 7648TIP3    H144359   2.538   3.941   5.634  1.0111  0.3355  1.1072
 7648TIP3    H244360   2.490   4.002   5.504  0.4042 -0.8344  0.7741
 7649TIP3   OH244361   6.105   3.425   2.645  0.0482  0.5662  0.5128
 7649TIP3    H144362   6.082   3.332   2.647  1.2383  0.2662  0.5811
 7649TIP3    H244363   6.114   3.450   2.737  0.9737  0.4240  0.4692
 7650TIP3   OH244364   0.994   0.059  12.316 -0.2921  0.5718 -0.8766
 7650TIP3    H144365   0.994  -0.014  12.254  0.8991 -1.6295  1.5277
 7650TIP3    H244366   0.901   0.072  12.336 -0.6032  0.5048 -2.1812
 7651TIP3   OH244367   3.384   1.848  13.595 -1.0165 -0.0038  0.1966
 7651TIP3    H144368   3.458   1.894  13.554 -0.5169 -1.2047 -0.2994
 7651TIP3    H244369   3.424   1.783  13.652 -1.6456 -1.3322 -0.8173
 7652TIP3   OH244370   5.902   4.048  13.433 -0.4855 -0.0398  0.2462
 7652TIP3    H144371   5.894   4.142  13.420  1.3962  0.4754  2.1503
 7652TIP3    H244372   5.839   4.028  13.502 -0.9793 -0.2171 -0.2496
 7653TIP3   OH244373   5.127   4.028   2.593  0.4065 -0.0467 -0.2845
 7653TIP3    H144374   5.082   3.946   2.569 -0.0959  0.3680 -0.8026
 7653TIP3    H244375   5.141   4.021   2.687 -0.1233 -0.5001 -0.2280
 7654TIP3   OH244376   3.642   6.108   3.093  0.2155  0.0266  0.0552
 7654TIP3    H144377   3.709   6.040   3.085  0.8705  0.6377  0.1943
 7654TIP3    H244378   3.686   6.188   3.063 -0.5305  0.3918 -0.0798
 7655TIP3   OH244379   2.361   5.318   0.797  0.1836  0.6815 -0.5961
 7655TIP3    H144380   2.415   5.345   0.871 -1.0166  0.7223  0.3154
 7655TIP3    H244381   2.348   5.397   0.746 -3.2671  2.0920  2.0238
 7656TIP3   OH244382   3.773   6.587   3.110 -0.2956 -0.4957  0.0505
 7656TIP3    H144383   3.835   6.582   3.183 -0.6083  1.5296  0.5132
 7656TIP3    H244384   3.688   6.571   3.149 -0.3497 -0.5382 -0.0824
 7657TIP3   OH244385   4.415   5.635  16.408 -0.3185 -0.4481  0.1647
 7657TIP3    H144386   4.495   5.586  16.428 -0.5803  0.3067  3.7840
 7657TIP3    H244387   4.445   5.725  16.395 -0.3776 -0.5871 -1.0382
 7658TIP3   OH244388   6.161   5.815  12.362 -0.4952  0.3710 -0.2257
 7658TIP3    H144389   6.069   5.823  12.335 -0.4548 -0.0437 -0.4941
 7658TIP3    H244390   6.174   5.721  12.375  0.6542  0.0554 -2.9676
 7659TIP3   OH244391   4.661   3.208   0.812 -0.0680 -0.1959  0.0511
 7659TIP3    H144392   4.749   3.227   0.782 -0.1751 -1.0953 -0.8810
 7659TIP3    H244393   4.656   3.112   0.814 -1.6997 -0.2492 -2.1294
 7660TIP3   OH244394   2.091   4.514   3.054 -0.1216 -0.1285 -0.6909
 7660TIP3    H144395   2.068   4.558   3.136 -0.0561 -1.3916  0.0196
 7660TIP3    H244396   2.180   4.481   3.068  0.0800  0.0685 -1.4560
 7661TIP3   OH244397   2.061   3.519   4.348 -0.4229 -0.8664  0.3581
 7661TIP3    H144398   2.079   3.448   4.409  2.1555 -1.5705 -1.0735
 7661TIP3    H244399   2.146   3.542   4.311 -1.5003  1.3848 -0.9680
 7662TIP3   OH244400   5.420   2.566  15.031  0.3372  0.3433  0.1302
 7662TIP3    H144401   5.385   2.590  14.945 -1.4576  1.9182  1.2277
 7662TIP3    H244402   5.460   2.647  15.063 -0.0508  0.1013  1.2449
 7663TIP3   OH244403   3.977   5.731  10.735  0.0061  0.3255  0.0857
 7663TIP3    H144404   3.895   5.767  10.702 -0.1421 -0.3209 -0.2615
 7663TIP3    H244405   4.002   5.791  10.806 -2.9839 -1.6901  3.2249
 7664TIP3   OH244406   6.597   2.432  16.309  0.3766  0.2931 -0.0685
 7664TIP3    H144407   6.588   2.342  16.276  0.5199  0.0750  0.4683
 7664TIP3    H244408   6.621   2.421  16.401 -2.2405  0.8529  0.7722
 7665TIP3   OH244409   3.063   0.417   1.090 -0.4532 -0.2174  1.2053
 7665TIP3    H144410   3.158   0.424   1.091 -0.4381 -0.3870  1.0109
 7665TIP3    H244411   3.034   0.470   1.165 -0.1107 -1.5021  2.2987
 7666TIP3   OH244412   3.218   1.123  16.120 -0.0250 -0.2312 -0.1306
 7666TIP3    H144413   3.191   1.185  16.188 -0.8273 -0.0049 -0.6434
 7666TIP3    H244414   3.158   1.140  16.047 -1.0992 -2.4713  0.1759
 7667TIP3   OH244415   0.748   0.209   5.312 -0.4867 -0.1748 -0.8457
 7667TIP3    H144416   0.762   0.183   5.402 -3.1373  1.2803  0.1089
 7667TIP3    H244417   0.694   0.139   5.274  1.7840 -1.4961 -1.8338
 7668TIP3   OH244418   5.963   0.965   1.100 -0.3427 -0.3404  0.2914
 7668TIP3    H144419   6.009   0.904   1.157 -0.3518 -0.3455  0.2934
 7668TIP3    H244420   5.870   0.953   1.122 -0.4049 -0.8368 -0.2106
 7669TIP3   OH244421   6.657   5.700   6.124  0.4836 -0.4291  0.0645
 7669TIP3    H144422   6.747   5.666   6.116  0.7725  0.3058  0.1488
 7669TIP3    H244423   6.656   5.744   6.209  0.4237  0.6638 -0.4870
 7670TIP3   OH244424   5.010   2.547   3.864 -0.0632  0.4391  0.1317
 7670TIP3    H144425   4.977   2.637   3.870  2.1575  1.4038 -0.8386
 7670TIP3    H244426   5.088   2.547   3.919 -0.3222 -1.0752  0.5330
 7671TIP3   OH244427   5.627   1.584   3.628 -0.3322  0.3438 -0.1591
 7671TIP3    H144428   5.647   1.675   3.607  0.1038  0.0444 -1.0613
 7671TIP3    H244429   5.534   1.574   3.608  0.0159  0.1311 -1.7404
 7672TIP3   OH244430   2.020   0.027  15.507 -0.6055  0.1767  0.2607
 7672TIP3    H144431   2.080   0.016  15.580  0.0730 -1.0504 -0.4554
 7672TIP3    H244432   2.057   0.099  15.456  0.1873 -0.4716 -0.0925
 7673TIP3   OH244433   2.682   3.030  15.009  0.1851 -0.0009 -0.2561
 7673TIP3    H144434   2.697   2.942  14.975  1.6954 -0.0728  0.5020
 7673TIP3    H244435   2.671   3.085  14.931 -0.2844 -0.7767 -0.7417
 7674TIP3   OH244436   0.216   5.628   1.530 -0.8971 -0.3856  0.3232
 7674TIP3    H144437   0.220   5.564   1.459  0.7234 -1.7516  1.5722
 7674TIP3    H244438   0.189   5.710   1.487  2.2733 -0.5322 -2.3193
 7675TIP3   OH244439   3.609   2.649  11.709 -0.0524  0.0705 -0.0229
 7675TIP3    H144440   3.622   2.723  11.650  1.0883 -0.2631 -0.1955
 7675TIP3    H244441   3.649   2.676  11.792  1.7121 -0.9069 -0.5199
 7676TIP3   OH244442   3.166   2.774   5.017 -0.6298  0.0497  0.3171
 7676TIP3    H144443   3.253   2.797   4.986 -0.4648  1.2797  1.6022
 7676TIP3    H244444   3.117   2.856   5.013 -0.5930  0.3123  3.2150
 7677TIP3   OH244445   0.761   6.107  16.534 -0.2351 -0.2204 -0.3414
 7677TIP3    H144446   0.714   6.038  16.487 -1.1712  0.9271 -1.1501
 7677TIP3    H244447   0.790   6.167  16.466 -2.0610  1.7534  0.5014
 7678TIP3   OH244448   2.045   3.195   5.643 -0.7585  0.3044 -0.3503
 7678TIP3    H144449   2.031   3.161   5.731  2.3862 -0.0490  0.1277
 7678TIP3    H244450   2.116   3.258   5.652 -1.7479  1.8784 -2.3646
 7679TIP3   OH244451   6.143   3.397  14.646  0.0747 -0.3526 -0.2282
 7679TIP3    H144452   6.115   3.311  14.615  1.4394 -1.4314  1.3154
 7679TIP3    H244453   6.098   3.409  14.730 -0.0694  0.4159 -0.4097
 7680TIP3   OH244454   2.188   3.913  10.917 -0.2112  0.1506 -0.4349
 7680TIP3    H144455   2.168   4.006  10.903 -1.7620  0.0645  0.8684
 7680TIP3    H244456   2.168   3.871  10.834 -2.3506  0.6069 -0.2051
 7681TIP3   OH244457   2.136   2.656  12.045  0.4048  0.0395 -0.3569
 7681TIP3    H144458   2.199   2.668  12.115 -2.1246 -3.1467  2.8709
 7681TIP3    H244459   2.054   2.693  12.079 -1.6797 -4.2497  0.0033
 7682TIP3   OH244460   0.601   3.064   1.690  0.1083 -0.0497 -0.0809
 7682TIP3    H144461   0.507   3.085   1.689 -0.6491 -2.7523  1.3535
 7682TIP3    H244462   0.610   2.994   1.625  0.6766 -1.2258  1.2202
 7683TIP3   OH244463   3.502   2.602   5.817 -0.7453 -0.6925  0.2807
 7683TIP3    H144464   3.485   2.634   5.905 -1.9814  0.2339 -0.2663
 7683TIP3    H244465   3.417   2.571   5.785  0.0454 -2.8391  0.0893
 7684TIP3   OH244466   4.072   5.157  14.467  0.1398  0.0480  0.2087
 7684TIP3    H144467   4.010   5.153  14.394  0.1090 -0.6571  0.2700
 7684TIP3    H244468   4.071   5.249  14.494  0.7576  0.5054 -1.2056
 7685TIP3   OH244469   6.072   5.101  12.595 -0.0231  0.6241 -0.0934
 7685TIP3    H144470   5.990   5.145  12.617 -0.5234  0.2262 -1.0997
 7685TIP3    H244471   6.099   5.140  12.512  0.4119  0.2162 -0.1499
 7686TIP3   OH244472   3.743   5.959   1.384  0.5201  0.2711  0.4211
 7686TIP3    H144473   3.719   5.887   1.326 -1.2502  1.3374 -0.2473
 7686TIP3    H244474   3.765   5.917   1.467  1.7845 -1.1761 -0.5930
 7687TIP3   OH244475   4.828   0.010  12.740  0.5716 -0.6583 -0.6920
 7687TIP3    H144476   4.761  -0.058  12.744  0.0254 -0.1173 -0.3469
 7687TIP3    H244477   4.903  -0.032  12.698 -0.1087 -1.1674 -1.4221
 7688TIP3   OH244478   4.672   0.445   4.237 -0.0635 -0.6555  0.0969
 7688TIP3    H144479   4.678   0.539   4.258 -1.9016 -0.5048  0.1150
 7688TIP3    H244480   4.584   0.421   4.265 -0.3466 -1.9232 -1.7854
 7689TIP3   OH244481   0.637   5.177  11.990 -0.4949  0.1541  0.0583
 7689TIP3    H144482   0.583   5.102  12.015 -1.6238  0.7616 -0.4913
 7689TIP3    H244483   0.724   5.140  11.976 -1.0931 -1.1224 -0.5065
 7690TIP3   OH244484   6.163   5.176   0.201  1.0315  0.0478  0.3758
 7690TIP3    H144485   6.215   5.113   0.250  1.8595 -0.1169 -0.6680
 7690TIP3    H244486   6.212   5.257   0.206  1.8542 -0.2925 -1.2531
 7691TIP3   OH244487   1.802   6.222   3.102 -0.1804 -0.8458 -0.3248
 7691TIP3    H144488   1.713   6.194   3.123 -0.4120  0.1712  0.1287
 7691TIP3    H244489   1.791   6.309   3.064  0.5891 -0.9047 -0.6912
 7692TIP3   OH244490   3.865   3.641   5.815 -0.3055 -0.4443  0.2006
 7692TIP3    H144491   3.858   3.723   5.864  0.5028  1.0248 -1.9993
 7692TIP3    H244492   3.954   3.610   5.831 -0.2212 -0.2560  0.0927
 7693TIP3   OH244493   3.815   2.527   0.083 -0.3725 -0.1037  0.0863
 7693TIP3    H144494   3.845   2.503   0.170 -0.9547 -3.0447 -0.4236
 7693TIP3    H244495   3.762   2.453   0.054  0.9270  0.1075 -3.3186
 7694TIP3   OH244496   0.588   1.666   5.465  0.3706 -0.2953 -1.0131
 7694TIP3    H144497   0.570   1.757   5.491  0.6284 -0.0973 -1.5179
 7694TIP3    H244498   0.553   1.659   5.377 -2.0483 -1.4611 -0.0307
 7695TIP3   OH244499   2.438   2.708  15.284  0.3263  0.5658 -0.3730
 7695TIP3    H144500   2.377   2.753  15.225  1.7527  0.3172 -2.1245
 7695TIP3    H244501   2.515   2.764  15.288  0.9161 -0.2356 -0.0989
 7696TIP3   OH244502   4.143   1.010   5.572  0.5806  0.4414  0.0513
 7696TIP3    H144503   4.198   1.014   5.494  0.4052 -0.8123 -0.1687
 7696TIP3    H244504   4.205   1.007   5.645  0.7587  0.8659 -0.0793
 7697TIP3   OH244505   4.534   1.400   4.599 -0.0562 -0.3384  0.1721
 7697TIP3    H144506   4.442   1.378   4.583 -1.0042  3.0746  0.1274
 7697TIP3    H244507   4.576   1.391   4.514 -1.0078  0.5811 -0.4248
 7698TIP3   OH244508   4.416   1.653  10.758 -0.1069  0.2957  0.0773
 7698TIP3    H144509   4.333   1.685  10.791 -0.2562 -2.0332  2.2784
 7698TIP3    H244510   4.482   1.698  10.810 -0.2002 -0.6769  1.0771
 7699TIP3   OH244511   6.098   6.630   0.760 -0.1172  0.1807 -0.2063
 7699TIP3    H144512   6.129   6.572   0.830  0.2525  0.4466 -0.1506
 7699TIP3    H244513   6.022   6.674   0.798  0.4162  0.7426  0.2333
 7700TIP3   OH244514   2.840   6.593   2.106 -0.2046  0.1700 -0.0300
 7700TIP3    H144515   2.923   6.573   2.148 -0.0892 -0.6580 -0.6249
 7700TIP3    H244516   2.826   6.521   2.044 -2.3551 -0.8338  1.4846
 7701TIP3   OH244517   0.040   5.176   3.075 -0.0813  0.1253 -0.3539
 7701TIP3    H144518   0.039   5.232   3.152 -0.6565  0.0213 -0.2834
 7701TIP3    H244519   0.080   5.094   3.105 -2.0034 -0.6017  0.3258
 7702TIP3   OH244520   5.153   4.657  13.848 -0.8454  0.2977 -0.1206
 7702TIP3    H144521   5.195   4.634  13.931 -2.2042  1.2642  0.8675
 7702TIP3    H244522   5.200   4.734  13.817  0.2425 -0.5810 -0.7360
 7703TIP3   OH244523   3.700   1.310   5.242  0.1234  0.8491  0.0120
 7703TIP3    H144524   3.705   1.239   5.307 -1.2458  1.0648  0.3861
 7703TIP3    H244525   3.610   1.342   5.249  0.2933  1.6414 -1.2054
 7704TIP3   OH244526   0.701   2.881   3.852 -0.3428  0.1359  1.0313
 7704TIP3    H144527   0.606   2.884   3.836 -0.2783 -0.1444  0.5659
 7704TIP3    H244528   0.740   2.888   3.766  0.0960  1.1273  1.2982
 7705TIP3   OH244529   6.461   5.219  11.192 -0.2285 -0.0500  0.3854
 7705TIP3    H144530   6.479   5.185  11.105 -0.5544  0.4162  0.1310
 7705TIP3    H244531   6.500   5.155  11.252  1.4808  0.4921 -0.1242
 7706TIP3   OH244532   4.196   3.387   3.240  0.5535 -0.3305 -0.0877
 7706TIP3    H144533   4.273   3.367   3.187  0.8006  0.5132 -0.0681
 7706TIP3    H244534   4.142   3.308   3.236  0.0924  0.0496 -2.3983
 7707TIP3   OH244535   0.941   2.757  16.636  0.2965  0.8911  0.3969
 7707TIP3    H144536   0.954   2.751  16.542  0.6754 -0.2301  0.5071
 7707TIP3    H244537   0.851   2.789  16.646  0.1440  0.7173 -0.3451
 7708TIP3   OH244538   2.824   4.504  13.572 -0.3046  0.6472 -0.1106
 7708TIP3    H144539   2.740   4.531  13.608 -0.2991  0.1484  0.2705
 7708TIP3    H244540   2.806   4.421  13.529  0.4151 -0.5604  1.8013
 7709TIP3   OH244541   6.619   5.058  12.531 -0.2004 -0.1692 -0.2469
 7709TIP3    H144542   6.657   5.133  12.576 -0.6064 -1.1736  1.8743
 7709TIP3    H244543   6.550   5.096  12.477 -0.6831  0.9678  1.0945
 7710TIP3   OH244544   2.605   5.437  12.152 -0.1210  0.2446  0.5658
 7710TIP3    H144545   2.624   5.523  12.189 -0.4499  0.7384 -0.3897
 7710TIP3    H244546   2.602   5.451  12.057  0.3004 -0.9119  0.3600
 7711TIP3   OH244547   5.911   5.448  16.485 -0.3201  0.1215  0.0101
 7711TIP3    H144548   5.894   5.518  16.422 -0.8074 -1.3975 -1.6224
 7711TIP3    H244549   5.986   5.401  16.449 -1.2794 -1.4255 -0.0382
 7712TIP3   OH244550   0.725   3.990   4.033  0.3442 -0.1720  0.2942
 7712TIP3    H144551   0.755   4.006   3.944 -0.3717  1.0320  0.2561
 7712TIP3    H244552   0.645   4.041   4.042 -0.4146 -1.4472  1.1621
 7713TIP3   OH244553   6.304   4.041  16.829 -0.2110 -0.2093 -0.9848
 7713TIP3    H144554   6.342   4.072  16.911 -0.0502 -2.7763 -0.0229
 7713TIP3    H244555   6.227   4.098  16.816  0.2959  0.8695  0.4037
 7714TIP3   OH244556   4.337   5.488   0.184 -0.4896  0.0610 -0.1741
 7714TIP3    H144557   4.265   5.538   0.222 -1.3504 -0.9978 -0.3535
 7714TIP3    H244558   4.395   5.468   0.258 -2.3274 -2.2955  0.7560
 7715TIP3   OH244559   2.164   3.068   4.149  0.2185  0.2721 -0.3245
 7715TIP3    H144560   2.121   2.983   4.145 -1.6054  1.1831 -1.0282
 7715TIP3    H244561   2.159   3.093   4.241  0.1954 -0.0978 -0.2225
 7716TIP3   OH244562   1.054   5.045  15.538 -0.2116 -0.3412  0.8572
 7716TIP3    H144563   1.024   5.116  15.482 -0.4896 -1.1591 -0.0602
 7716TIP3    H244564   1.117   5.087  15.598  1.0098  0.3676 -0.8275
 7717TIP3   OH244565   6.302   1.041   0.169 -0.1150  0.6271 -0.3087
 7717TIP3    H144566   6.254   1.069   0.247  0.6244  1.6942 -0.2140
 7717TIP3    H244567   6.323   0.949   0.186  0.5664  0.9992  1.0408
 7718TIP3   OH244568   0.020   2.515   2.475  0.2669  0.0392 -0.1276
 7718TIP3    H144569   0.095   2.475   2.519 -0.0373 -0.7299 -0.2820
 7718TIP3    H244570   0.050   2.531   2.386  0.0156 -0.9742 -0.4017
 7719TIP3   OH244571   2.774   0.649   5.683 -0.1388  0.1432  0.1433
 7719TIP3    H144572   2.861   0.651   5.641  0.0612 -2.2894  0.3125
 7719TIP3    H244573   2.793   0.652   5.777 -0.0103 -2.6138  0.2797
 7720TIP3   OH244574   5.951   0.282   2.356  0.2382  0.0227 -0.2701
 7720TIP3    H144575   5.965   0.193   2.324  0.6482  0.4486 -1.3300
 7720TIP3    H244576   6.028   0.331   2.326 -0.0954  0.7838  0.0782
 7721TIP3   OH244577   5.216   1.213  12.425 -0.1996 -0.1978  0.3077
 7721TIP3    H144578   5.175   1.126  12.422 -1.2209  0.2212  1.2638
 7721TIP3    H244579   5.236   1.233  12.334  2.0321 -2.3185  0.2352
 7722TIP3   OH244580   2.667   0.923   0.141 -0.2416 -0.2234  0.2774
 7722TIP3    H144581   2.620   0.980   0.080 -1.3513  0.7896  1.9905
 7722TIP3    H244582   2.758   0.952   0.135 -0.2407 -0.4440 -1.1797
 7723TIP3   OH244583   0.797   5.130   2.245 -0.1485  0.1286  0.4415
 7723TIP3    H144584   0.867   5.121   2.310  2.5530 -0.9637 -2.3726
 7723TIP3    H244585   0.838   5.177   2.172 -1.9520 -1.6557 -1.8656
 7724TIP3   OH244586   6.601   2.189  16.831 -0.2430  0.0210 -0.3591
 7724TIP3    H144587   6.514   2.217  16.861 -0.2326 -0.4480  0.1256
 7724TIP3    H244588   6.659   2.262  16.854 -0.5491  0.4504 -0.9278
 7725TIP3   OH244589   6.720   0.372  14.257  0.2144  0.2982 -0.0908
 7725TIP3    H144590   6.747   0.386  14.167  0.2585  0.5752 -0.0355
 7725TIP3    H244591   6.667   0.292  14.255  0.2059  0.3116 -0.3604
 7726TIP3   OH244592   3.923   1.835  15.430 -0.0489 -0.1826 -0.8164
 7726TIP3    H144593   3.841   1.786  15.440  0.4300 -0.6611  1.2439
 7726TIP3    H244594   3.929   1.853  15.336 -2.2373 -0.5904 -1.0939
 7727TIP3   OH244595   1.910   3.848  16.796 -0.3517 -0.4929 -0.7886
 7727TIP3    H144596   1.875   3.764  16.827 -0.0481 -0.4118 -0.1986
 7727TIP3    H244597   1.882   3.911  16.863 -1.7969  0.1452 -1.9460
 7728TIP3   OH244598   5.027   5.747  16.585 -0.1111  0.9509  0.6479
 7728TIP3    H144599   5.058   5.659  16.563  1.1119  0.8659  2.4928
 7728TIP3    H244600   5.087   5.805  16.538 -1.9688  0.9195 -2.0045
 7729TIP3   OH244601   2.906   5.215  15.164  1.0968  0.2151 -0.1965
 7729TIP3    H144602   2.986   5.184  15.205  0.8677 -0.3902 -0.2041
 7729TIP3    H244603   2.857   5.136  15.143  0.7797  0.5576 -0.7708
 7730TIP3   OH244604   2.526   5.306   3.259 -0.4048 -0.2627 -0.4438
 7730TIP3    H144605   2.495   5.324   3.348 -1.2837 -2.2415 -0.2958
 7730TIP3    H244606   2.539   5.392   3.220 -4.5015  0.8044  0.0791
 7731TIP3   OH244607   2.209   3.505   6.396 -0.5362 -0.1605  0.4238
 7731TIP3    H144608   2.270   3.454   6.343  1.0860 -0.9487  2.8755
 7731TIP3    H244609   2.128   3.453   6.397  0.2210 -1.3803  0.6959
 7732TIP3   OH244610   3.785   5.681  14.878  0.2625  0.1705  0.6621
 7732TIP3    H144611   3.819   5.768  14.901 -0.6388  0.3439  1.3813
 7732TIP3    H244612   3.698   5.678  14.918  0.1721 -0.9598  0.4018
 7733TIP3   OH244613   5.222   6.060  16.777 -0.2388 -0.0760 -0.3432
 7733TIP3    H144614   5.172   5.985  16.808  0.2509 -1.1474 -2.0253
 7733TIP3    H244615   5.257   6.032  16.693 -0.6740  2.3287 -1.3884
 7734TIP3   OH244616   6.542   1.992   4.758  0.0173 -0.1033  0.6731
 7734TIP3    H144617   6.490   2.048   4.700  2.7018  2.0600  0.1559
 7734TIP3    H244618   6.585   2.054   4.818  0.5476 -1.9438  2.2851
 7735TIP3   OH244619   1.511   2.057  15.989 -0.4154 -0.2321  0.3096
 7735TIP3    H144620   1.479   2.085  16.074 -0.2241  0.4531  0.1642
 7735TIP3    H244621   1.463   2.112  15.926  1.4859  1.3396  0.1116
 7736TIP3   OH244622   1.804   0.473  17.020 -0.2589  0.1216 -0.3670
 7736TIP3    H144623   1.779   0.381  17.020 -1.3635  0.3558  2.3038
 7736TIP3    H244624   1.764   0.509  16.940 -0.1358 -1.5813 -1.2453
 7737TIP3   OH244625   6.221   0.624   1.455 -0.3083 -0.0963  0.5998
 7737TIP3    H144626   6.179   0.598   1.537  0.2733 -2.9581  0.0806
 7737TIP3    H244627   6.183   0.710   1.435 -1.8165 -0.1437  2.8997
 7738TIP3   OH244628   4.244   4.811  12.233  0.0254  0.1903  0.2625
 7738TIP3    H144629   4.281   4.880  12.178 -2.3303  1.3482 -0.0038
 7738TIP3    H244630   4.190   4.759  12.173  0.4496 -0.8924  0.7892
 7739TIP3   OH244631   6.343   4.360  16.855  0.4757  0.4456 -0.2942
 7739TIP3    H144632   6.309   4.448  16.869 -2.7788 -0.6831 -0.2998
 7739TIP3    H244633   6.315   4.336  16.767 -1.3223 -1.5710  0.7253
 7740TIP3   OH244634   6.098   0.064  13.037  0.0274 -0.4004 -0.1229
 7740TIP3    H144635   6.080   0.157  13.028  1.9229 -0.0644 -0.9726
 7740TIP3    H244636   6.123   0.053  13.129  0.3415  0.0292 -0.1567
 7741TIP3   OH244637   0.734   2.861   0.994  0.0391 -0.6576  0.1939
 7741TIP3    H144638   0.727   2.773   1.030  0.8430 -0.5053  0.7254
 7741TIP3    H244639   0.714   2.919   1.067  1.8605 -0.3409  0.4791
 7742TIP3   OH244640   5.846   4.842   4.838 -0.0713 -0.0748  0.2784
 7742TIP3    H144641   5.839   4.749   4.818  0.7956  0.0196 -0.5400
 7742TIP3    H244642   5.815   4.850   4.928  0.7484 -1.3025  0.6931
 7743TIP3   OH244643   3.515   6.141   5.306 -0.6384 -0.1240  0.3353
 7743TIP3    H144644   3.589   6.200   5.321 -1.9900  1.5005  0.8658
 7743TIP3    H244645   3.447   6.196   5.268 -1.2279 -1.8283 -1.2383
 7744TIP3   OH244646   1.948   1.629   3.853 -0.4306  0.0587  0.2539
 7744TIP3    H144647   2.002   1.593   3.922 -0.9653 -1.6022 -0.1517
 7744TIP3    H244648   1.927   1.554   3.797  0.1848  1.3744 -1.8576
 7745TIP3   OH244649   4.919   3.304  12.363  0.6449  0.1373 -0.2426
 7745TIP3    H144650   4.914   3.392  12.325  1.7257  0.3150 -0.0017
 7745TIP3    H244651   4.870   3.249  12.302  3.8631  0.0526 -3.0295
 7746TIP3   OH244652   2.900   0.747   6.710  0.1818  0.0097  0.4251
 7746TIP3    H144653   2.894   0.657   6.677 -2.5997 -0.1708  1.0941
 7746TIP3    H244654   2.858   0.800   6.642 -2.2982  0.1100  1.9018
 7747TIP3   OH244655   2.701   2.280  14.954 -0.3934 -0.0024 -0.2362
 7747TIP3    H144656   2.636   2.267  15.022  0.5498  0.6941  0.8452
 7747TIP3    H244657   2.760   2.348  14.989  1.1722 -0.9199 -0.9542
 7748TIP3   OH244658   3.385   6.266  12.153 -0.2989 -0.0892  0.2851
 7748TIP3    H144659   3.367   6.179  12.190 -1.7781  0.1424  0.1819
 7748TIP3    H244660   3.376   6.253  12.058 -0.0414  0.0765  0.2378
 7749TIP3   OH244661   1.522   2.840  11.572 -0.7342  0.4029 -0.2143
 7749TIP3    H144662   1.460   2.909  11.549  2.1153  2.7554 -1.3560
 7749TIP3    H244663   1.564   2.871  11.652 -2.0644 -1.9904  1.5574
 7750TIP3   OH244664   4.112   3.025  16.924 -0.2531  0.2907  0.9813
 7750TIP3    H144665   4.155   3.097  16.878 -1.1365  0.5209  0.4873
 7750TIP3    H244666   4.035   3.004  16.870  0.4695 -1.6470  0.6003
 7751TIP3   OH244667   5.023   3.219  15.035 -0.5478  0.1172 -0.1276
 7751TIP3    H144668   5.082   3.194  15.106  0.4302  0.6872 -0.7218
 7751TIP3    H244669   4.949   3.159  15.044  0.5454 -1.2668  0.0680
 7752TIP3   OH244670   3.456   6.056  15.353  0.7192 -0.1108 -0.4939
 7752TIP3    H144671   3.421   6.009  15.429 -2.1794  0.2068 -1.5097
 7752TIP3    H244672   3.470   6.145  15.384 -0.0854 -0.0718 -0.2137
 7753TIP3   OH244673   0.405   0.980   4.775  0.2389  0.1875  0.2200
 7753TIP3    H144674   0.313   0.981   4.801  0.0864 -1.5283 -0.1134
 7753TIP3    H244675   0.411   1.043   4.703 -0.7757 -0.0091 -0.0475
 7754TIP3   OH244676   3.474   4.541   0.204  0.3708 -0.0017 -0.2637
 7754TIP3    H144677   3.399   4.493   0.169  0.8097 -0.1445 -1.0314
 7754TIP3    H244678   3.435   4.613   0.254 -0.3153 -1.2650  1.1307
 7755TIP3   OH244679   6.669   3.232   0.913 -0.2090  0.6113 -0.1746
 7755TIP3    H144680   6.750   3.248   0.865 -0.0102  1.7971  0.5139
 7755TIP3    H244681   6.685   3.150   0.960  1.0375  1.3920  0.8334
 7756TIP3   OH244682   0.780   5.867  13.959 -0.4001  0.4586  0.6153
 7756TIP3    H144683   0.764   5.862  13.865 -0.4276  1.1757  0.5718
 7756TIP3    H244684   0.800   5.777  13.985  0.9553  0.4596 -0.3184
 7757TIP3   OH244685   0.185   4.598  16.183  0.0684  0.0768  0.2692
 7757TIP3    H144686   0.182   4.633  16.094  1.8884 -0.3851  0.0042
 7757TIP3    H244687   0.097   4.564  16.198  0.1337 -1.2287 -1.9285
 7758TIP3   OH244688   0.783   5.371  10.948  0.2861  0.7293  0.8526
 7758TIP3    H144689   0.757   5.453  10.905 -1.8620 -1.1379 -1.7345
 7758TIP3    H244690   0.867   5.348  10.907  0.1507  0.8929  0.4778
 7759TIP3   OH244691   4.956   0.899   0.926 -0.2174 -0.0680  0.6445
 7759TIP3    H144692   4.948   0.988   0.892 -0.1095  0.5069  2.0480
 7759TIP3    H244693   5.006   0.852   0.859 -1.8209  0.4295 -0.9570
 7760TIP3   OH244694   3.944   0.598  13.679 -0.2862 -0.5761 -0.0504
 7760TIP3    H144695   3.911   0.641  13.600  0.0138  0.6712  0.4714
 7760TIP3    H244696   3.866   0.578  13.730 -0.3725  1.0294  0.5109
 7761TIP3   OH244697   3.504   4.101  12.176  0.3006  0.7125 -0.0093
 7761TIP3    H144698   3.458   4.035  12.228 -0.1709 -0.3991 -1.7578
 7761TIP3    H244699   3.575   4.131  12.233  0.9846 -1.8487  0.5875
 7762TIP3   OH244700   6.070   1.113   5.719 -0.1361 -0.4643  0.0930
 7762TIP3    H144701   6.017   1.066   5.655 -1.0640  1.1102 -0.3546
 7762TIP3    H244702   6.011   1.179   5.756  1.0662  0.2937  0.7597
 7763TIP3   OH244703   2.802   1.118   4.596  0.2856 -0.3404  0.0412
 7763TIP3    H144704   2.712   1.102   4.625  0.0074  0.6775 -0.2121
 7763TIP3    H244705   2.804   1.086   4.506  0.0135  0.1231 -0.1349
 7764TIP3   OH244706   0.412   5.820  15.992 -0.8393  0.5689  0.4435
 7764TIP3    H144707   0.477   5.763  16.033 -0.7505 -0.2811 -0.8196
 7764TIP3    H244708   0.349   5.839  16.061 -0.4847 -0.4870  1.0726
 7765TIP3   OH244709   1.640   4.393   4.323  0.4636  0.3035 -0.1513
 7765TIP3    H144710   1.586   4.444   4.384 -0.7093 -1.9028  0.7437
 7765TIP3    H244711   1.700   4.344   4.379 -0.6580 -1.7994 -0.6680
 7766TIP3   OH244712   4.824   5.356  16.678 -0.1822 -0.1938 -0.3511
 7766TIP3    H144713   4.771   5.289  16.636  1.4908 -1.0683 -1.1951
 7766TIP3    H244714   4.762   5.407  16.730 -1.8088 -1.1515 -1.2634
 7767TIP3   OH244715   3.483   4.855  13.146 -0.3002 -0.0442 -0.0687
 7767TIP3    H144716   3.525   4.899  13.220 -1.0182  1.3623 -0.4816
 7767TIP3    H244717   3.478   4.921  13.078 -2.2972 -0.4703 -0.3814
 7768TIP3   OH244718   2.215   4.198   3.193 -0.0871  0.2076 -0.2067
 7768TIP3    H144719   2.174   4.132   3.249  2.1075 -1.7213 -0.7105
 7768TIP3    H244720   2.203   4.281   3.241 -0.5779 -0.9600  1.7929
 7769TIP3   OH244721   1.836   4.618  16.757  0.1128  0.3405 -0.6321
 7769TIP3    H144722   1.756   4.666  16.774 -0.0598 -0.0864 -0.1920
 7769TIP3    H244723   1.807   4.529  16.738  0.2115  0.9502 -4.2163
 7770TIP3   OH244724   3.587   1.431  16.371  0.4937  0.4457 -0.7565
 7770TIP3    H144725   3.535   1.357  16.339  0.1781  0.8912 -1.2859
 7770TIP3    H244726   3.647   1.450  16.299  2.0121 -0.6137  0.1667
 7771TIP3   OH244727   2.171   2.786   0.370  0.1074 -0.0827  0.5371
 7771TIP3    H144728   2.201   2.869   0.407 -0.7471 -0.2359  1.5936
 7771TIP3    H244729   2.200   2.789   0.279  1.1224  0.8536  0.8739
 7772TIP3   OH244730   5.130   0.394   2.847 -0.6424 -0.2304  0.3392
 7772TIP3    H144731   5.053   0.373   2.794  1.2760 -0.8964 -2.4221
 7772TIP3    H244732   5.155   0.482   2.819  0.0617 -0.3429  0.6065
 7773TIP3   OH244733   5.890   6.760   0.935 -0.3148 -0.1909  0.4147
 7773TIP3    H144734   5.877   6.854   0.920 -0.5149  0.0078  1.7334
 7773TIP3    H244735   5.966   6.756   0.993  0.0081 -0.8794 -0.0518
 7774TIP3   OH244736   6.636   1.655  15.694  0.6600 -0.0067 -0.0922
 7774TIP3    H144737   6.647   1.589  15.626 -0.9155 -0.1798 -0.2068
 7774TIP3    H244738   6.675   1.616  15.773  0.6872 -0.6186 -0.4067
 7775TIP3   OH244739   3.331   4.390  11.242  0.5173  0.0853  0.5487
 7775TIP3    H144740   3.236   4.376  11.243  0.4346  0.2941 -1.1718
 7775TIP3    H244741   3.364   4.341  11.318 -1.1108  1.2623  2.1104
 7776TIP3   OH244742   4.412   3.129   3.893 -0.1364 -0.3093 -0.0784
 7776TIP3    H144743   4.491   3.179   3.872 -0.1162  0.0832  0.8855
 7776TIP3    H244744   4.394   3.150   3.984 -1.9189  0.3761 -0.5451
 7777TIP3   OH244745   0.483   1.963  11.398  0.5307 -0.1969  0.3421
 7777TIP3    H144746   0.514   1.889  11.347  2.3610  0.7090  0.0664
 7777TIP3    H244747   0.558   2.023  11.402 -0.8644  1.6237  0.5862
 7778TIP3   OH244748   3.335   5.315   1.093  0.5546 -0.3791  0.2088
 7778TIP3    H144749   3.344   5.312   1.189 -2.2506 -1.0051  0.5332
 7778TIP3    H244750   3.415   5.274   1.061  2.6163  1.7967  2.1610
 7779TIP3   OH244751   6.639   1.407   2.579 -0.3186  0.4832  0.6159
 7779TIP3    H144752   6.669   1.331   2.630  0.3607 -0.5596 -1.2400
 7779TIP3    H244753   6.716   1.463   2.574  0.2574 -0.3798 -0.9047
 7780TIP3   OH244754   5.468   3.973  11.622  0.3961 -0.5752 -0.2455
 7780TIP3    H144755   5.550   3.984  11.575  0.5489  0.3472  0.2154
 7780TIP3    H244756   5.494   3.961  11.713  0.0618 -1.4602 -0.2530
 7781TIP3   OH244757   5.671   5.716  13.916 -0.3549 -0.2269 -0.6765
 7781TIP3    H144758   5.743   5.654  13.915  0.6727  0.9052 -0.2710
 7781TIP3    H244759   5.649   5.730  13.824  0.6050  0.1259 -0.8661
 7782TIP3   OH244760   5.212   1.538   2.817 -0.5196  0.0138 -0.2420
 7782TIP3    H144761   5.220   1.619   2.867 -2.4584 -0.5768  1.1561
 7782TIP3    H244762   5.213   1.469   2.883 -1.3223 -0.9267 -1.1780
 7783TIP3   OH244763   6.771   0.812   2.905  0.1341  0.8074 -0.1686
 7783TIP3    H144764   6.767   0.908   2.910 -0.2616  0.7378  1.3266
 7783TIP3    H244765   6.748   0.783   2.993  2.7800 -0.6107  0.1517
 7784TIP3   OH244766   6.545   6.462  13.223 -0.6237 -0.0089  0.1604
 7784TIP3    H144767   6.494   6.543  13.222  2.4451  2.2299  2.6525
 7784TIP3    H244768   6.516   6.417  13.302 -0.8530 -0.3028 -0.0888
 7785TIP3   OH244769   3.153   0.593  14.622  0.2730 -0.4483 -0.1472
 7785TIP3    H144770   3.182   0.545  14.699 -0.0215 -0.8902 -0.3075
 7785TIP3    H244771   3.070   0.633  14.649  1.5894  1.9026  0.7503
 7786TIP3   OH244772   2.433   4.409   2.347 -0.4966 -0.0792 -0.0462
 7786TIP3    H144773   2.484   4.332   2.322  0.5657  0.9046 -1.0274
 7786TIP3    H244774   2.459   4.427   2.438  0.5058  0.0690 -0.3463
 7787TIP3   OH244775   4.696   6.258  15.135  0.4116 -0.3658  0.3411
 7787TIP3    H144776   4.664   6.321  15.199  0.0948 -0.1233 -0.0470
 7787TIP3    H244777   4.617   6.216  15.100  0.4826  0.3708 -0.7561
 7788TIP3   OH244778   5.079   1.291   6.502 -0.3562 -0.0875 -0.3791
 7788TIP3    H144779   5.057   1.296   6.409 -1.9098 -0.5532 -0.0513
 7788TIP3    H244780   5.090   1.383   6.529  0.1933  0.0463 -1.0220
 7789TIP3   OH244781   5.873   5.813   6.536  0.4768 -0.1732 -0.2103
 7789TIP3    H144782   5.953   5.851   6.572  0.3700  0.6499 -0.8278
 7789TIP3    H244783   5.822   5.888   6.507 -1.3733 -0.5308  1.8790
 7790TIP3   OH244784   5.834   6.226  10.859 -0.8222 -0.0036 -0.3737
 7790TIP3    H144785   5.830   6.276  10.778  2.2707  0.6493 -0.2522
 7790TIP3    H244786   5.879   6.145  10.835  2.2084  1.1411  0.9511
 7791TIP3   OH244787   2.389   2.165  14.781 -0.0178  0.1310 -0.0547
 7791TIP3    H144788   2.391   2.175  14.877 -0.5126 -1.8985  0.2148
 7791TIP3    H244789   2.302   2.196  14.756  0.2115  0.9222  0.1167
 7792TIP3   OH244790   6.619   1.486   0.420  0.1276  0.4651 -0.4409
 7792TIP3    H144791   6.665   1.563   0.455 -0.7501  1.7602 -1.9708
 7792TIP3    H244792   6.527   1.501   0.442  0.1085 -0.8635  0.4500
 7793TIP3   OH244793   2.728   4.141   3.285  0.0563  0.1767  0.1743
 7793TIP3    H144794   2.757   4.182   3.367  1.1123  1.2141 -0.6699
 7793TIP3    H244795   2.648   4.188   3.262 -0.4618 -0.3782  0.7765
 7794TIP3   OH244796   3.717   1.745   0.324  0.0677  0.1803  0.2772
 7794TIP3    H144797   3.802   1.725   0.284 -0.1231 -1.3333  0.5898
 7794TIP3    H244798   3.686   1.662   0.358 -2.8217  0.0758 -2.2110
 7795TIP3   OH244799   2.593   6.453  13.196 -0.0057 -0.2401  0.1409
 7795TIP3    H144800   2.591   6.375  13.142  0.8731  0.3938 -0.8639
 7795TIP3    H244801   2.503   6.465  13.226 -0.5249 -0.6215 -1.1975
 7796TIP3   OH244802   5.665   5.991  12.299  0.6050  0.4165 -0.4211
 7796TIP3    H144803   5.683   5.975  12.207  1.2937 -0.0769 -0.2069
 7796TIP3    H244804   5.744   6.032  12.333  0.6655 -0.1338  0.1270
 7797TIP3   OH244805   1.253   6.517  16.069  0.0116  0.0782 -0.1987
 7797TIP3    H144806   1.323   6.569  16.029  2.1290  0.7779  3.8410
 7797TIP3    H244807   1.287   6.427  16.069  0.0551  0.0937  0.0487
 7798TIP3   OH244808   4.976   4.930   5.615  0.2156  0.2967 -0.3870
 7798TIP3    H144809   4.936   4.995   5.672  1.9633  1.2738 -0.1897
 7798TIP3    H244810   4.916   4.856   5.616  0.5117 -0.0795  3.4085
 7799TIP3   OH244811   5.239   3.957   0.972 -0.1148  0.1016 -0.6695
 7799TIP3    H144812   5.226   3.971   0.878  0.5045 -1.0957 -0.9630
 7799TIP3    H244813   5.315   3.898   0.976  0.1645  0.5290  0.6066
 7800TIP3   OH244814   6.026   5.824  10.579  0.0312 -0.3284  0.2499
 7800TIP3    H144815   6.110   5.782  10.596  0.9408  0.9335 -0.9142
 7800TIP3    H244816   5.965   5.751  10.569  1.4844 -1.4096 -1.3604
 7801TIP3   OH244817   2.207   0.992   4.710  0.6145  0.0538  0.6858
 7801TIP3    H144818   2.250   0.928   4.653 -0.9610 -0.3242 -0.1425
 7801TIP3    H244819   2.193   1.068   4.654 -0.6130 -0.1810  0.6472
 7802TIP3   OH244820   2.214   0.141  16.499  0.3993 -0.0977 -0.3012
 7802TIP3    H144821   2.119   0.137  16.494  0.4274  0.7838 -2.1807
 7802TIP3    H244822   2.241   0.185  16.419  2.4597 -1.1187 -0.2332
 7803TIP3   OH244823   6.388   1.039  15.048 -0.4151  0.5866  0.1834
 7803TIP3    H144824   6.413   1.076  14.964  1.3561  2.6210  1.5258
 7803TIP3    H244825   6.390   0.944  15.034  2.0427  0.8112 -1.5011
 7804TIP3   OH244826   6.444   6.365  15.246 -0.4032 -0.2786 -1.2481
 7804TIP3    H144827   6.410   6.446  15.284 -1.2249 -0.0847 -2.3348
 7804TIP3    H244828   6.418   6.297  15.308  0.1414  0.2494 -0.4132
 7805TIP3   OH244829   2.804   3.285   5.083  0.3145 -0.2747 -0.2788
 7805TIP3    H144830   2.845   3.247   5.161  0.2609 -0.1352 -0.1828
 7805TIP3    H244831   2.877   3.326   5.035  0.0710  1.3428  0.6779
 7806TIP3   OH244832   3.483   2.015   5.713  0.0197  0.1733 -0.1115
 7806TIP3    H144833   3.412   1.967   5.756  0.1242  0.4256  0.3519
 7806TIP3    H244834   3.552   2.018   5.779  0.5924 -0.3638 -0.6772
 7807TIP3   OH244835   3.481   4.512   4.130  0.1758 -0.5641  0.2015
 7807TIP3    H144836   3.561   4.514   4.182  0.6996  0.0050 -0.6100
 7807TIP3    H244837   3.473   4.601   4.095  0.3080 -1.1626 -1.4012
 7808TIP3   OH244838   0.459   0.433  15.946  0.4363 -0.0781  0.4302
 7808TIP3    H144839   0.415   0.400  16.024 -1.8963 -0.1262 -0.8353
 7808TIP3    H244840   0.518   0.362  15.920 -0.3278 -0.9256  0.9500
 7809TIP3   OH244841   2.646   0.388   0.114 -0.0584  0.4790 -0.5367
 7809TIP3    H144842   2.666   0.359   0.202 -2.5954 -0.5807 -0.2048
 7809TIP3    H244843   2.615   0.478   0.124 -2.6220 -0.3861  0.1083
 7810TIP3   OH244844   4.021   1.243   2.358 -0.0225 -0.1776  0.2226
 7810TIP3    H144845   4.020   1.196   2.274  0.7704 -0.4641  0.3675
 7810TIP3    H244846   4.081   1.316   2.343 -2.2501  1.6211 -0.4228
 7811TIP3   OH244847   5.337   1.624  15.359  0.0754 -0.0613  0.3403
 7811TIP3    H144848   5.303   1.713  15.369  1.1397  0.3579  0.3239
 7811TIP3    H244849   5.266   1.568  15.391  0.2318  0.8827  2.4869
 7812TIP3   OH244850   6.744   1.579   1.280  0.2720 -0.2771 -0.3912
 7812TIP3    H144851   6.802   1.624   1.341  0.3182 -0.9414  0.0670
 7812TIP3    H244852   6.769   1.487   1.286  0.5772 -0.2942 -1.7587
 7813TIP3   OH244853   4.590   2.015  12.063  0.1073  0.0350 -0.1305
 7813TIP3    H144854   4.625   2.090  12.015  0.9118 -0.3113 -0.0988
 7813TIP3    H244855   4.565   2.051  12.148  0.3905  0.2946 -0.1534
 7814TIP3   OH244856   5.498   4.549  14.386 -0.6777  0.3706  0.2849
 7814TIP3    H144857   5.578   4.554  14.439 -0.9312 -0.6609  0.7971
 7814TIP3    H244858   5.509   4.615  14.319  0.5042  0.4083  0.4998
 7815TIP3   OH244859   0.601   5.864  15.717 -0.2307  0.0977  0.8398
 7815TIP3    H144860   0.520   5.878  15.766  0.0961  3.8539  0.6301
 7815TIP3    H244861   0.610   5.943  15.664  3.1980 -0.5191  0.2804
 7816TIP3   OH244862   5.729   2.027   1.860  0.5709 -0.0426  0.7847
 7816TIP3    H144863   5.714   2.082   1.783 -1.6384  0.0886  1.2504
 7816TIP3    H244864   5.825   2.025   1.870  0.8708  0.5413 -1.4910
 7817TIP3   OH244865   3.984   6.027  13.884 -0.0545  0.9696 -0.3023
 7817TIP3    H144866   3.892   6.035  13.859  0.1762  0.8673 -1.2103
 7817TIP3    H244867   4.021   6.114  13.871 -0.0040  0.9965  0.0076
 7818TIP3   OH244868   3.925   5.653  16.781 -0.5090  0.1946 -0.4950
 7818TIP3    H144869   3.955   5.700  16.703  0.5776  1.2285  0.4882
 7818TIP3    H244870   3.883   5.721  16.835  0.0376 -0.1808  0.4353
 7819TIP3   OH244871   2.885   3.549  11.265  0.1438  0.3922  0.3273
 7819TIP3    H144872   2.851   3.602  11.337 -1.9063 -0.2414 -0.1142
 7819TIP3    H244873   2.888   3.610  11.191 -0.6632  0.3273  0.2251
 7820TIP3   OH244874   1.139   0.535   5.182 -0.3669 -0.5498  0.8223
 7820TIP3    H144875   1.172   0.460   5.232  0.2694 -0.5801  0.3754
 7820TIP3    H244876   1.119   0.498   5.096  0.5697 -0.0908  0.3937
 7821TIP3   OH244877   4.464   2.897  15.284  0.0443 -0.2417  0.8027
 7821TIP3    H144878   4.453   2.840  15.208 -0.2411  0.9132 -0.0360
 7821TIP3    H244879   4.480   2.984  15.248  1.4238  0.0669  2.0648
 7822TIP3   OH244880   3.248   4.939  16.153 -0.0638  0.9632  0.3364
 7822TIP3    H144881   3.253   4.986  16.070 -1.9189 -2.0156 -1.7002
 7822TIP3    H244882   3.339   4.920  16.176  0.4857  0.4966 -1.9525
 7823TIP3   OH244883   2.064   2.208   3.229  0.0356  0.5089  0.0233
 7823TIP3    H144884   2.007   2.219   3.306  0.0544  1.7450 -0.1138
 7823TIP3    H244885   2.116   2.131   3.249 -0.5281  0.3346  0.8940
 7824TIP3   OH244886   1.800   1.056   2.661  0.3828 -0.1944 -0.0222
 7824TIP3    H144887   1.772   1.126   2.721 -0.2784  0.7406 -1.3795
 7824TIP3    H244888   1.877   1.017   2.704 -0.9545 -0.5992  2.1794
 7825TIP3   OH244889   1.351   4.742  15.107 -0.1068  0.2633  0.5298
 7825TIP3    H144890   1.377   4.783  15.024 -0.5978 -1.0431 -0.3162
 7825TIP3    H244891   1.409   4.780  15.172  1.7818 -0.2226 -0.7788
 7826TIP3   OH244892   2.108   2.621  16.283  0.2481  0.4208  0.3918
 7826TIP3    H144893   2.199   2.628  16.252 -0.0299  0.5712 -0.4184
 7826TIP3    H244894   2.082   2.532  16.260  0.2062  0.3572  0.6796
 7827TIP3   OH244895   0.767   0.827   0.940  0.1410 -0.1254  0.1427
 7827TIP3    H144896   0.828   0.830   0.866 -0.6383  0.1402 -0.4940
 7827TIP3    H244897   0.796   0.898   0.997  0.5554 -0.1311 -0.0565
 7828TIP3   OH244898   1.150   3.100   5.514 -0.2713 -0.2055  0.1790
 7828TIP3    H144899   1.068   3.148   5.500 -0.2253 -0.3063 -0.4444
 7828TIP3    H244900   1.176   3.124   5.603 -0.5388  0.4973  0.0794
 7829TIP3   OH244901   4.989   4.203   2.110 -0.2597 -0.8214 -0.1286
 7829TIP3    H144902   4.948   4.287   2.133  0.1966 -0.3786 -0.8752
 7829TIP3    H244903   5.064   4.197   2.168  0.4981 -0.0333 -0.9909
 7830TIP3   OH244904   3.543   3.925   1.227 -0.1108 -0.8921  0.5950
 7830TIP3    H144905   3.615   3.983   1.205 -0.5782  0.1033  1.5910
 7830TIP3    H244906   3.517   3.950   1.316 -1.8346 -1.0516  0.1825
 7831TIP3   OH244907   3.781   4.745  12.374 -0.0518 -0.1993  0.7730
 7831TIP3    H144908   3.827   4.829  12.377 -0.6796  0.1336  1.4218
 7831TIP3    H244909   3.844   4.684  12.335 -0.2037  0.9457 -1.4462
 7832TIP3   OH244910   1.815   5.924  11.427  0.1162  0.6189 -0.3854
 7832TIP3    H144911   1.807   5.959  11.338 -0.8216  0.5350 -0.3441
 7832TIP3    H244912   1.865   5.843  11.417  0.7428  1.0397 -0.7202
 7833TIP3   OH244913   5.493   6.396   3.265  0.2442 -0.0903 -0.1162
 7833TIP3    H144914   5.564   6.333   3.255  0.4614  0.1103  0.1766
 7833TIP3    H244915   5.530   6.479   3.235 -0.2077 -0.2030 -1.0314
 7834TIP3   OH244916   2.080   4.149  14.089 -0.0161  0.3257 -0.3847
 7834TIP3    H144917   2.016   4.078  14.080  1.4021 -0.8344 -1.9336
 7834TIP3    H244918   2.049   4.199  14.164 -2.6453 -0.2675 -0.9559
 7835TIP3   OH244919   3.083   0.582   5.806  0.4608 -0.8656 -0.0410
 7835TIP3    H144920   3.138   0.506   5.826  1.4303 -0.1188  0.2137
 7835TIP3    H244921   3.102   0.601   5.714  0.5016 -0.7140 -0.0014
 7836TIP3   OH244922   6.396   2.552   3.862  0.4815 -0.1146  0.0810
 7836TIP3    H144923   6.456   2.492   3.818  0.7768  1.0359 -1.1499
 7836TIP3    H244924   6.412   2.637   3.821  0.1895  0.8569  1.8898
 7837TIP3   OH244925   5.422   6.480   4.394  0.2794  0.2733  0.1838
 7837TIP3    H144926   5.439   6.390   4.422 -0.5295  0.2241  0.5467
 7837TIP3    H244927   5.452   6.534   4.467  0.7996  0.3054 -0.0496
 7838TIP3   OH244928   5.672   6.665  16.350 -0.3406  0.9722 -0.3828
 7838TIP3    H144929   5.666   6.758  16.372 -3.7950  0.7644  0.0683
 7838TIP3    H244930   5.691   6.664  16.256  5.0416  1.9160  0.3453
 7839TIP3   OH244931   3.809   2.453   1.187  0.3859  0.9760 -0.0781
 7839TIP3    H144932   3.895   2.420   1.160  0.3275  1.6736 -1.2007
 7839TIP3    H244933   3.814   2.548   1.173 -1.1720  0.8336 -2.0402
 7840TIP3   OH244934   4.758   0.250   5.115 -0.2473 -0.0627  0.3857
 7840TIP3    H144935   4.785   0.328   5.164  1.8547  0.1937 -1.0480
 7840TIP3    H244936   4.829   0.187   5.129 -0.4679 -0.6129 -0.8857
 7841TIP3   OH244937   3.229   3.185   5.913  0.0145 -0.3344  0.4904
 7841TIP3    H144938   3.216   3.150   6.001 -1.6747 -0.9559  0.0137
 7841TIP3    H244939   3.143   3.217   5.886  1.1784  3.2093  0.4359
 7842TIP3   OH244940   2.258   0.703   2.724 -0.2385  0.3828 -0.5202
 7842TIP3    H144941   2.292   0.773   2.669  0.8977  0.5097  0.3159
 7842TIP3    H244942   2.280   0.729   2.814  1.3544 -1.6231 -0.2662
 7843TIP3   OH244943   0.026   5.654   0.766 -0.0716  0.5636 -0.5077
 7843TIP3    H144944   0.072   5.640   0.683 -1.7441  0.1343 -1.4037
 7843TIP3    H244945  -0.067   5.645   0.744 -0.5144 -0.8498  1.6471
 7844TIP3   OH244946   5.191   0.174  12.254 -0.1570  0.4140  0.2191
 7844TIP3    H144947   5.257   0.118  12.294  0.2138  1.1836  0.7029
 7844TIP3    H244948   5.180   0.138  12.165  0.6793  0.0890  0.2376
 7845TIP3   OH244949   5.762   5.154  13.266 -0.7105  0.9710  0.0103
 7845TIP3    H144950   5.848   5.154  13.225 -0.2174 -0.8684  0.9630
 7845TIP3    H244951   5.701   5.136  13.194 -0.1977  1.1558 -0.4779
 7846TIP3   OH244952   6.697   4.899   0.514 -0.0313  0.2970 -0.5532
 7846TIP3    H144953   6.718   4.928   0.603  1.3405  0.5326 -0.9241
 7846TIP3    H244954   6.782   4.897   0.469 -0.6595 -0.1323 -1.7666
 7847TIP3   OH244955   2.769   4.527   0.717 -0.2184 -0.3308  0.2108
 7847TIP3    H144956   2.826   4.468   0.766  0.4636  0.7442  0.7572
 7847TIP3    H244957   2.686   4.480   0.711  0.2185 -1.2259  0.8715
 7848TIP3   OH244958   5.430   2.647   1.554 -0.3933 -0.6414 -0.1102
 7848TIP3    H144959   5.343   2.652   1.516  0.1141 -1.5552 -1.4882
 7848TIP3    H244960   5.415   2.631   1.647 -1.6881  0.0925 -0.1764
 7849TIP3   OH244961   5.802   5.825   1.775  0.4310  0.6142 -0.0796
 7849TIP3    H144962   5.853   5.904   1.792  1.7415  0.4099 -2.6832
 7849TIP3    H244963   5.866   5.759   1.748 -0.6505 -1.3574  1.8131
 7850TIP3   OH244964   5.863   1.750  13.770  0.5124 -0.2374  0.0459
 7850TIP3    H144965   5.937   1.805  13.793 -1.2016  2.0664  0.4335
 7850TIP3    H244966   5.817   1.798  13.701 -0.9795 -1.2364  0.2773
 7851TIP3   OH244967   0.544   6.421  14.353  0.4564 -0.4272  0.0338
 7851TIP3    H144968   0.633   6.387  14.361  0.8004 -0.1714 -2.0269
 7851TIP3    H244969   0.509   6.378  14.275 -1.0856 -0.1964  0.5654
 7852TIP3   OH244970   1.319   4.672  15.618 -0.4446  0.1470 -0.2942
 7852TIP3    H144971   1.272   4.646  15.539 -0.7540  0.6399 -0.2740
 7852TIP3    H244972   1.386   4.604  15.629  1.1114  1.2525 -2.2691
 7853TIP3   OH244973   3.962   4.687  12.090  0.4994 -0.5637 -0.7939
 7853TIP3    H144974   3.996   4.751  12.027  0.9488  0.2745  0.2658
 7853TIP3    H244975   3.868   4.685  12.074  0.1942  1.7372  0.3233
 7854TIP3   OH244976   1.731   1.700   4.007 -0.8230 -0.8314 -0.2393
 7854TIP3    H144977   1.671   1.721   3.935 -0.2540 -0.8648 -0.7337
 7854TIP3    H244978   1.815   1.683   3.964 -0.0455  0.7794  0.5414
 7855TIP3   OH244979   6.119   0.160   0.694 -0.2320 -0.3403  0.4329
 7855TIP3    H144980   6.081   0.097   0.633 -0.2405  0.2558 -0.1827
 7855TIP3    H244981   6.156   0.228   0.638  0.2805 -0.0830  1.0756
 7856TIP3   OH244982   5.560   2.531   0.315 -0.1405 -0.1463 -0.1473
 7856TIP3    H144983   5.493   2.599   0.308  1.4966  1.4358 -1.0323
 7856TIP3    H244984   5.515   2.459   0.359 -2.0812  1.2834  0.3658
 7857TIP3   OH244985   4.047   0.359   4.081 -0.2472 -0.2359 -0.1271
 7857TIP3    H144986   4.130   0.407   4.090 -0.7389  0.9130 -1.4621
 7857TIP3    H244987   3.997   0.409   4.017 -0.8517 -2.4780 -1.5236
 7858TIP3   OH244988   6.734   4.227   4.593 -0.1010 -0.3441  0.1979
 7858TIP3    H144989   6.673   4.196   4.526  0.4449 -0.7362 -0.1241
 7858TIP3    H244990   6.803   4.271   4.545  1.4420 -2.5109  0.2874
 7859TIP3   OH244991   2.913   4.332   4.361 -0.4869  0.0988  0.2170
 7859TIP3    H144992   2.914   4.248   4.314  0.4695  0.9245 -1.3252
 7859TIP3    H244993   2.998   4.338   4.403  1.1955  1.9704 -3.0082
 7860TIP3   OH244994   2.937   5.058  16.309  0.2102  0.0846 -0.7567
 7860TIP3    H144995   2.934   5.051  16.214  1.5310 -0.3426 -0.7898
 7860TIP3    H244996   3.014   5.006  16.335  0.3567  0.8553  0.4632
 7861TIP3   OH244997   3.273   1.601   3.362  0.1238  0.4581 -0.0172
 7861TIP3    H144998   3.334   1.626   3.432  1.1113 -0.1165 -0.6607
 7861TIP3    H244999   3.311   1.639   3.283  0.3727 -1.0228 -0.6338
 7862TIP3   OH245000   1.847   6.326   2.532  0.3592 -0.2111  0.9002
 7862TIP3    H145001   1.850   6.283   2.617  0.5103 -0.2474  0.8767
 7862TIP3    H245002   1.754   6.323   2.507  0.4307 -0.9101  0.6995
 7863TIP3   OH245003   5.823   2.565   0.381  0.3867 -0.0916 -0.3069
 7863TIP3    H145004   5.732   2.574   0.353 -0.4051  1.3032  2.3907
 7863TIP3    H245005   5.840   2.471   0.378 -0.6174 -0.2631 -2.2355
 7864TIP3   OH245006   4.991   5.776   0.489  0.3399 -0.4006 -0.4279
 7864TIP3    H145007   4.982   5.706   0.554  1.2609  0.8595  1.1480
 7864TIP3    H245008   4.952   5.853   0.532  2.7339  0.9463 -0.4801
 7865TIP3   OH245009   3.415   4.390  14.260  0.1338 -0.4682 -0.0661
 7865TIP3    H145010   3.405   4.466  14.319  1.2146  0.2024 -0.7115
 7865TIP3    H245011   3.442   4.319  14.318 -2.2952 -0.8068  0.7879
 7866TIP3   OH245012   3.489   0.870   5.223  0.3598 -0.6172 -0.0582
 7866TIP3    H145013   3.431   0.921   5.280  0.4747  2.6963 -2.5898
 7866TIP3    H245014   3.562   0.845   5.281 -0.2176  1.2853  1.6403
 7867TIP3   OH245015   6.098   6.512   5.434 -0.2969 -0.1809 -0.4562
 7867TIP3    H145016   6.106   6.500   5.529 -1.2081 -0.4524 -0.4014
 7867TIP3    H245017   6.166   6.457   5.397 -0.2480 -0.4566  0.0334
 7868TIP3   OH245018   5.095   3.357  10.725 -0.1967 -0.0865 -0.3321
 7868TIP3    H145019   5.187   3.369  10.701 -0.9426 -0.7959 -4.1219
 7868TIP3    H245020   5.052   3.438  10.696 -0.8204  0.3570  1.6416
 7869TIP3   OH245021   0.004   3.660   3.544 -0.4535 -0.6679  0.4977
 7869TIP3    H145022   0.035   3.639   3.632  2.2683 -0.0010 -0.2035
 7869TIP3    H245023   0.030   3.751   3.531 -0.9708 -0.6996 -0.9409
 7870TIP3   OH245024   4.859   4.611  11.362 -0.2525  0.1759 -0.2776
 7870TIP3    H145025   4.945   4.599  11.403 -1.3076 -2.2520  1.4186
 7870TIP3    H245026   4.833   4.523  11.336 -0.8794  1.2583 -3.8212
 7871TIP3   OH245027   1.999   5.793   5.370 -0.1408  0.2661 -0.5855
 7871TIP3    H145028   1.943   5.716   5.383  1.9975 -1.1989  0.6240
 7871TIP3    H245029   2.038   5.779   5.284  0.2249  0.0112 -0.3786
 7872TIP3   OH245030   5.594   4.017   5.595  0.2763  0.0700 -0.2836
 7872TIP3    H145031   5.674   3.974   5.567  0.0667 -0.1248 -0.5770
 7872TIP3    H245032   5.526   3.950   5.589  0.2740 -0.0663  0.9537
 7873TIP3   OH245033   1.027   2.707  15.291 -0.7790 -0.0347 -0.3816
 7873TIP3    H145034   1.119   2.732  15.280 -0.9360 -0.0093 -1.8766
 7873TIP3    H245035   0.997   2.756  15.367 -0.0382  1.3529 -0.9624
 7874TIP3   OH245036   6.363   4.358  13.369 -0.1212 -0.1300  0.1703
 7874TIP3    H145037   6.392   4.396  13.452  0.9247 -1.3069  0.3734
 7874TIP3    H245038   6.368   4.263  13.382 -0.1464 -0.3450 -1.1551
 7875TIP3   OH245039   1.039   4.470  12.389  0.1741 -0.3149 -0.0419
 7875TIP3    H145040   1.066   4.537  12.451 -0.0549 -1.2543  1.1193
 7875TIP3    H245041   1.059   4.387  12.433  0.8408 -1.0250 -1.6009
 7876TIP3   OH245042   2.285   3.873  12.170  0.0876  0.5337 -0.2669
 7876TIP3    H145043   2.263   3.959  12.134 -1.7737 -0.7179 -2.3700
 7876TIP3    H245044   2.282   3.814  12.095 -0.1630 -1.6434  1.3561
 7877TIP3   OH245045   3.113   3.406  11.252 -0.1160 -0.5313  0.2514
 7877TIP3    H145046   3.150   3.428  11.166  0.9248  0.4126  0.9152
 7877TIP3    H245047   3.028   3.449  11.254  0.3830  0.4837  0.1512
 7878TIP3   OH245048   1.411   6.373   4.990 -0.0433  0.3014 -0.2466
 7878TIP3    H145049   1.384   6.292   4.947  0.1096 -0.8268  1.6733
 7878TIP3    H245050   1.353   6.381   5.065 -0.3767  2.2722 -0.6521
 7879TIP3   OH245051   5.840   6.764  13.256  0.0135 -0.2677  0.1864
 7879TIP3    H145052   5.877   6.690  13.208 -0.7017 -1.5858  1.5955
 7879TIP3    H245053   5.908   6.789  13.319 -0.2871 -0.6715  0.6778
 7880TIP3   OH245054   3.836   4.146   1.096  0.0185 -0.1285  0.2697
 7880TIP3    H145055   3.846   4.241   1.084 -1.6733 -0.1652 -2.0775
 7880TIP3    H245056   3.782   4.137   1.174  2.1838  0.6587  1.9913
 7881TIP3   OH245057   4.651   2.554  11.095  0.0103 -0.0995 -0.1184
 7881TIP3    H145058   4.681   2.475  11.050 -0.4414  0.3445 -1.2444
 7881TIP3    H245059   4.652   2.622  11.027 -0.2256  0.7091  0.6719
 7882TIP3   OH245060   1.427   6.662  15.243  0.4394 -0.0276 -0.4706
 7882TIP3    H145061   1.509   6.618  15.222  1.2350  1.0438  0.2887
 7882TIP3    H245062   1.444   6.755  15.227 -0.5509  0.2422 -0.0722
 7883TIP3   OH245063   2.088   4.084  13.156  0.0217 -0.7672 -0.2193
 7883TIP3    H145064   2.124   4.159  13.203  1.0253 -0.5891 -1.2172
 7883TIP3    H245065   2.165   4.037  13.124 -0.5903 -0.3939 -2.3947
 7884TIP3   OH245066   5.342   1.425  16.243  0.3267  0.4219  0.1947
 7884TIP3    H145067   5.418   1.412  16.300 -0.1554 -0.0535  0.7409
 7884TIP3    H245068   5.268   1.436  16.303 -0.1244  0.3116 -0.3356
 7885TIP3   OH245069   6.222   1.098   1.110  0.3300 -0.0852  0.1874
 7885TIP3    H145070   6.147   1.052   1.073  0.4771  1.1958 -1.8181
 7885TIP3    H245071   6.265   1.139   1.035  0.4627  2.9815  1.7865
 7886TIP3   OH245072   2.751   3.922  11.028  0.3754  0.2104  0.3733
 7886TIP3    H145073   2.835   3.877  11.025  0.2609 -0.0035  0.3960
 7886TIP3    H245074   2.769   4.010  10.993  0.4379 -0.0963 -0.3747
 7887TIP3   OH245075   1.721   2.445   5.487  0.2681 -0.2344 -0.1676
 7887TIP3    H145076   1.776   2.518   5.515  0.4255 -0.2195 -0.5169
 7887TIP3    H245077   1.779   2.389   5.436  0.2898 -0.8869  0.5549
 7888TIP3   OH245078   0.643   6.163   2.147  0.4381  0.1681  0.2277
 7888TIP3    H145079   0.666   6.070   2.149  1.7676  0.4967  2.2078
 7888TIP3    H245080   0.604   6.181   2.232 -0.1421  1.3664 -0.2612
 7889TIP3   OH245081   5.044   4.450   3.110 -0.0369 -0.2851  0.1945
 7889TIP3    H145082   4.977   4.513   3.083 -0.4981 -0.7548  0.2274
 7889TIP3    H245083   5.037   4.379   3.047  1.9911  0.6570 -1.2174
 7890TIP3   OH245084   3.385   1.476   2.680  0.0355  0.1047  0.0077
 7890TIP3    H145085   3.401   1.500   2.771 -0.6413 -1.0102  0.4470
 7890TIP3    H245086   3.351   1.387   2.685 -2.5849  0.9681 -1.1392
 7891TIP3   OH245087   2.669   0.429   4.450  0.4161 -0.3242  0.1838
 7891TIP3    H145088   2.623   0.347   4.466  1.3450 -1.0679 -0.8054
 7891TIP3    H245089   2.705   0.454   4.535 -2.0743  0.4995  1.0898
 7892TIP3   OH245090   2.041   4.845   5.705 -0.1029 -0.4944  0.5512
 7892TIP3    H145091   2.133   4.855   5.732  0.5204 -0.4247 -1.3929
 7892TIP3    H245092   1.995   4.913   5.753  0.3663 -2.0180  3.4129
 7893TIP3   OH245093   3.526   5.782   2.498  0.2259 -0.1440 -0.1029
 7893TIP3    H145094   3.435   5.807   2.511  0.6108  1.2435  0.0606
 7893TIP3    H245095   3.524   5.687   2.486 -1.2434 -0.1104 -0.2004
 7894TIP3   OH245096   4.902   1.008   6.328  0.0762  0.0028  0.2370
 7894TIP3    H145097   4.828   0.949   6.343 -0.9429  1.3974  1.0083
 7894TIP3    H245098   4.942   0.977   6.248 -1.8270 -0.3649 -0.6280
 7895TIP3   OH245099   5.459   5.338  14.101  0.9456  0.0354 -0.0510
 7895TIP3    H145100   5.538   5.386  14.126  1.1331  0.2851 -1.0589
 7895TIP3    H245101   5.389   5.381  14.150  1.1105  1.3617 -0.9055
 7896TIP3   OH245102   2.324   1.754   4.730 -0.2393  0.0764  0.0306
 7896TIP3    H145103   2.369   1.693   4.788  0.8841  1.0626  0.2422
 7896TIP3    H245104   2.263   1.699   4.681  1.0302 -1.3082 -0.1006
 7897TIP3   OH245105   2.208   6.744  14.829  0.1781 -0.0051 -0.4342
 7897TIP3    H145106   2.242   6.811  14.888 -0.4515  0.6263 -0.7806
 7897TIP3    H245107   2.199   6.666  14.884  1.0206  0.1495 -0.0573
 7898TIP3   OH245108   5.209   3.772   5.821 -0.2594  0.5682 -0.1184
 7898TIP3    H145109   5.120   3.743   5.802  0.6553 -1.3323 -1.8467
 7898TIP3    H245110   5.237   3.717   5.895 -0.4085  1.0168  0.2832
 7899TIP3   OH245111   3.759   0.346   0.545  0.1586  0.0753  0.3560
 7899TIP3    H145112   3.716   0.354   0.460 -0.1534  0.0732  0.5079
 7899TIP3    H245113   3.687   0.356   0.608 -0.1060 -2.5911  0.6073
 7900TIP3   OH245114   5.916   5.837  15.323  0.1677 -0.6932 -0.0457
 7900TIP3    H145115   5.905   5.752  15.278 -1.8626  0.3545 -1.7436
 7900TIP3    H245116   5.968   5.889  15.262  0.6626 -0.4316  0.5969
 7901TIP3   OH245117   4.347   1.981  16.661 -0.0675 -0.2216 -0.3142
 7901TIP3    H145118   4.290   1.982  16.583  0.9685 -0.1473 -1.0919
 7901TIP3    H245119   4.435   1.989  16.626  0.4594 -0.7100  0.8558
 7902TIP3   OH245120   1.492   3.790   5.489 -0.4019 -0.4807  0.6183
 7902TIP3    H145121   1.553   3.717   5.491 -0.1002 -0.2146  2.2469
 7902TIP3    H245122   1.531   3.856   5.547 -1.7840  0.0454  0.9955
 7903TIP3   OH245123   6.698   4.552   0.127  0.3068  0.5036  0.3803
 7903TIP3    H145124   6.669   4.498   0.053  0.6834  1.3792 -0.4184
 7903TIP3    H245125   6.769   4.503   0.167  2.5262  1.5769 -1.9902
 7904TIP3   OH245126   1.813   2.642  11.254 -0.3799  0.0320 -0.1331
 7904TIP3    H145127   1.802   2.644  11.159 -0.9298  0.2412 -0.0654
 7904TIP3    H245128   1.728   2.667  11.289 -0.3725 -0.7000  0.4261
 7905TIP3   OH245129   1.898   6.629  12.767  0.1784  0.0401 -0.0980
 7905TIP3    H145130   1.897   6.724  12.776 -0.0554  0.0455 -0.1636
 7905TIP3    H245131   1.987   6.603  12.792 -0.0026  0.1950  0.7339
 7906TIP3   OH245132   3.990   3.172   6.075 -0.4339  0.5756 -0.0569
 7906TIP3    H145133   3.944   3.203   6.153  0.8268  2.3226  0.0425
 7906TIP3    H245134   4.059   3.114   6.108 -1.8493 -1.2673 -0.1462
 7907TIP3   OH245135   4.049   0.532   1.201 -0.1343 -0.2587  0.6823
 7907TIP3    H145136   3.960   0.529   1.166 -0.1437  1.8638  0.3704
 7907TIP3    H245137   4.050   0.609   1.258  1.2401 -0.8436  1.5188
 7908TIP3   OH245138   5.705   4.610   1.611 -0.0724  0.6421 -0.2360
 7908TIP3    H145139   5.766   4.557   1.560 -1.6735  1.6376 -3.3853
 7908TIP3    H245140   5.656   4.547   1.663  0.5512 -0.5839 -1.0800
 7909TIP3   OH245141   5.912   3.626   3.289  0.0158 -0.0488  0.5068
 7909TIP3    H145142   5.840   3.688   3.295 -0.0189 -0.1109  0.7474
 7909TIP3    H245143   5.922   3.593   3.378 -1.0071 -1.5577  0.1074
 7910TIP3   OH245144   4.899   0.816  14.876 -0.6758  0.5871 -0.7150
 7910TIP3    H145145   4.892   0.831  14.782  2.1165 -0.0200 -1.1028
 7910TIP3    H245146   4.922   0.902  14.912  0.1077  0.4331 -0.8454
 7911TIP3   OH245147   5.719   4.097  12.425 -0.1321  0.4640  0.5242
 7911TIP3    H145148   5.756   4.012  12.402 -0.8263  0.0950  0.7429
 7911TIP3    H245149   5.739   4.153  12.350 -1.2650 -0.3797 -0.4604
 7912TIP3   OH245150   3.449   0.846   0.446 -1.0120 -0.0136 -0.2680
 7912TIP3    H145151   3.375   0.804   0.402  1.1936 -3.5905 -1.0443
 7912TIP3    H245152   3.521   0.839   0.383  0.7142  0.5662  1.5425
 7913TIP3   OH245153   2.697   1.605  14.529  0.0613  0.2059  0.3323
 7913TIP3    H145154   2.610   1.617  14.567  0.5106  2.8401  0.7151
 7913TIP3    H245155   2.682   1.607  14.435 -0.1997  2.4741  0.3509
 7914TIP3   OH245156   3.086   1.067   2.997 -0.3516  0.2102  0.1069
 7914TIP3    H145157   3.047   0.988   3.036 -1.1924  0.1003 -0.9220
 7914TIP3    H245158   3.078   1.053   2.903  1.4456  0.5719 -0.1277
 7915TIP3   OH245159   0.111   6.804  10.611 -0.6589  0.0200 -0.1611
 7915TIP3    H145160   0.034   6.797  10.554 -0.5685 -0.7040 -0.1921
 7915TIP3    H245161   0.144   6.715  10.620  0.3669  0.3650 -0.3972
 7916TIP3   OH245162   4.442   6.299  11.125  0.1411  0.4827 -0.0457
 7916TIP3    H145163   4.497   6.271  11.052  0.5855 -1.5423  1.0201
 7916TIP3    H245164   4.353   6.280  11.096 -0.0598  3.0009 -1.4324
 7917TIP3   OH245165   2.679   2.659   2.539 -0.2116 -0.7973 -0.3301
 7917TIP3    H145166   2.647   2.625   2.623 -1.1811 -1.2934 -0.8940
 7917TIP3    H245167   2.619   2.731   2.519  0.4855 -0.1807 -0.2310
 7918TIP3   OH245168   3.706   5.342  13.841 -0.4553  0.0693 -0.2286
 7918TIP3    H145169   3.759   5.407  13.794  1.8443  0.7082  2.9218
 7918TIP3    H245170   3.654   5.394  13.902 -0.5472 -0.8600  0.5099
 7919TIP3   OH245171   0.145   1.432  11.635 -0.0870  0.4627  0.4859
 7919TIP3    H145172   0.105   1.354  11.675 -2.2895  1.1276 -0.2350
 7919TIP3    H245173   0.176   1.401  11.550 -3.1490  0.7252 -0.8846
 7920TIP3   OH245174   4.259   0.884  11.320 -0.5610 -0.1881 -0.3667
 7920TIP3    H145175   4.190   0.951  11.315  0.1831  0.6306 -0.0596
 7920TIP3    H245176   4.335   0.932  11.353  1.2748 -0.1768 -4.0920
 7921TIP3   OH245177   6.119   4.590  16.435 -0.0971  0.0635 -0.8870
 7921TIP3    H145178   6.186   4.603  16.502 -0.2147 -1.5988 -0.4052
 7921TIP3    H245179   6.105   4.677  16.397 -0.0645  1.0780  1.2856
 7922TIP3   OH245180   2.970   3.439   3.803 -0.2273  0.4013  0.1261
 7922TIP3    H145181   3.026   3.391   3.864 -0.8675  0.7025  0.9741
 7922TIP3    H245182   2.917   3.495   3.859 -2.9364 -1.4274 -0.4372
 7923TIP3   OH245183   2.875   5.967  10.782 -0.6425 -0.7019 -0.6299
 7923TIP3    H145184   2.875   6.058  10.812  1.2349 -1.2111  1.0816
 7923TIP3    H245185   2.838   5.971  10.694  1.4270  2.0554 -1.5024
 7924TIP3   OH245186   4.927   2.791  13.093  0.8871 -0.4876  0.2471
 7924TIP3    H145187   4.837   2.759  13.093  0.7916 -0.2228  1.0575
 7924TIP3    H245188   4.941   2.825  13.181  0.8053  2.1763 -0.6652
 7925TIP3   OH245189   6.510   0.734  16.230  0.3835 -0.4506  0.6477
 7925TIP3    H145190   6.567   0.665  16.196  1.8063  1.0336 -0.1473
 7925TIP3    H245191   6.531   0.739  16.323 -1.1257 -2.3234  1.1380
 7926TIP3   OH245192   3.590   2.929  16.013  0.3421 -0.1444 -0.0446
 7926TIP3    H145193   3.595   2.878  15.933  2.3932  0.7415 -0.5539
 7926TIP3    H245194   3.588   2.864  16.083 -1.3325 -0.9190 -0.7698
 7927TIP3   OH245195   3.816   1.671   4.487  0.3149  0.1536 -0.5531
 7927TIP3    H145196   3.851   1.688   4.574  0.7930 -1.4338 -0.4086
 7927TIP3    H245197   3.722   1.669   4.498  0.3601  0.3703 -0.1457
 7928TIP3   OH245198   4.545   1.111  12.356 -0.1445  0.0271  0.4008
 7928TIP3    H145199   4.594   1.191  12.336 -0.5190  0.0649 -0.4445
 7928TIP3    H245200   4.460   1.125  12.314  0.3119 -1.4568 -1.1267
 7929TIP3   OH245201   0.917   1.551  12.099  0.1104  0.4121 -0.5543
 7929TIP3    H145202   0.829   1.571  12.132  0.5650  1.4915  0.0388
 7929TIP3    H245203   0.924   1.456  12.106 -0.2687  0.4917  1.2872
 7930TIP3   OH245204   3.486   0.165   3.929  0.2420 -0.5241 -0.1688
 7930TIP3    H145205   3.554   0.122   3.980 -1.8087 -0.7641  2.5596
 7930TIP3    H245206   3.413   0.174   3.989 -1.5275  1.3893 -2.4253
 7931TIP3   OH245207   4.480   5.644   3.191  0.0171  0.2167 -0.0001
 7931TIP3    H145208   4.560   5.592   3.179 -0.8820 -0.7705 -2.0717
 7931TIP3    H245209   4.507   5.734   3.175  0.6210 -0.1701 -1.2290
 7932TIP3   OH245210   2.778   1.493  15.270  0.1371  0.1160 -0.0031
 7932TIP3    H145211   2.719   1.566  15.249  0.6397  0.7618  0.7476
 7932TIP3    H245212   2.790   1.499  15.365  0.4160 -0.7791  0.0195
 7933TIP3   OH245213   0.763   6.647   0.502  0.4875 -0.1507 -0.3266
 7933TIP3    H145214   0.685   6.606   0.541  0.2872  2.4421  2.4525
 7933TIP3    H245215   0.733   6.679   0.417 -0.7865 -1.2099 -0.3184
 7934TIP3   OH245216   6.350   2.706   0.252 -0.5744  0.2613  0.7756
 7934TIP3    H145217   6.300   2.672   0.178  1.0400 -0.2900 -0.1130
 7934TIP3    H245218   6.327   2.799   0.257  0.3188  0.6378 -1.3289
 7935TIP3   OH245219   3.573   5.896  12.365  0.1113 -0.2921  0.0941
 7935TIP3    H145220   3.577   5.944  12.282 -0.3484  0.1438  0.3208
 7935TIP3    H245221   3.631   5.820  12.351  1.2548  0.5891 -0.0833
 7936TIP3   OH245222   3.508   0.286  13.575  0.1526  0.0822 -0.3988
 7936TIP3    H145223   3.432   0.227  13.578  0.4058 -0.2171  0.9085
 7936TIP3    H245224   3.583   0.229  13.592  0.6837  0.3820 -1.6642
 7937TIP3   OH245225   1.667   3.964  16.058  0.6711  0.2190 -0.4426
 7937TIP3    H145226   1.675   4.058  16.068  0.3332  0.1477  0.5350
 7937TIP3    H245227   1.742   3.928  16.104 -1.1747 -0.1260  2.5711
 7938TIP3   OH245228   4.381   4.636   0.546  0.5582 -0.2312  0.2334
 7938TIP3    H145229   4.339   4.560   0.587  1.7383 -2.0594 -1.6986
 7938TIP3    H245230   4.364   4.625   0.452  1.8988  1.1563 -0.2192
 7939TIP3   OH245231   6.146   1.945  16.231  0.1473  0.6932 -0.6489
 7939TIP3    H145232   6.087   2.019  16.219 -0.9469 -0.2323 -1.1646
 7939TIP3    H245233   6.134   1.891  16.153  0.2536 -0.4838  0.1165
 7940TIP3   OH245234   1.137   0.975  13.462  0.4973 -0.0616 -0.1090
 7940TIP3    H145235   1.097   1.056  13.429  1.5962  0.7992  0.6350
 7940TIP3    H245236   1.172   0.932  13.383  1.0083  0.8055 -0.3606
 7941TIP3   OH245237   6.436   2.545  16.632 -0.4399 -0.1265 -0.2894
 7941TIP3    H145238   6.358   2.494  16.653  0.0706 -1.0973 -0.7047
 7941TIP3    H245239   6.489   2.542  16.712 -0.6122  0.1304 -0.1654
 7942TIP3   OH245240   1.313   0.859   3.434 -0.0969  0.8565 -0.1814
 7942TIP3    H145241   1.386   0.921   3.424  1.5340 -0.6769  1.4958
 7942TIP3    H245242   1.251   0.904   3.491  0.8983  1.0944  0.7384
 7943TIP3   OH245243   1.565   6.489   2.996 -0.2755  0.7807 -0.1144
 7943TIP3    H145244   1.643   6.458   2.951  0.8817 -0.4647  2.5548
 7943TIP3    H245245   1.493   6.443   2.954  0.8910 -1.4540  0.1804
 7944TIP3   OH245246   3.786   2.714  13.170  0.2718  0.4559  0.0126
 7944TIP3    H145247   3.820   2.796  13.207 -0.6073  0.3993  1.0200
 7944TIP3    H245248   3.767   2.735  13.079  1.1304  1.0430 -0.0437
 7945TIP3   OH245249   0.039   3.807  11.502  0.3551 -0.0746 -0.6868
 7945TIP3    H145250   0.109   3.742  11.494 -0.8686 -1.5121 -0.1119
 7945TIP3    H245251   0.012   3.824  11.412  0.9586 -0.0496 -0.8672
 7946TIP3   OH245252   5.133   5.038   0.383 -0.5008  0.2882  0.3995
 7946TIP3    H145253   5.107   5.018   0.293 -0.3026  1.8464 -0.0333
 7946TIP3    H245254   5.188   4.963   0.409  1.6215  0.9761 -1.7120
 7947TIP3   OH245255   4.967   3.736  15.734 -0.0838 -0.4982  0.3693
 7947TIP3    H145256   5.037   3.794  15.704  0.1975 -0.2762  1.3982
 7947TIP3    H245257   4.893   3.754  15.676  0.7596 -0.8704 -0.8552
 7948TIP3   OH245258   6.672   2.375   4.161 -0.2029  0.0440  0.1065
 7948TIP3    H145259   6.591   2.325   4.147 -0.4821  0.8614 -1.3431
 7948TIP3    H245260   6.741   2.318   4.126 -0.2954 -0.1174  0.1833
 7949TIP3   OH245261   2.535   0.773   0.864 -1.0301 -0.5653 -0.3512
 7949TIP3    H145262   2.519   0.681   0.844 -0.5307 -1.1315  1.6350
 7949TIP3    H245263   2.494   0.787   0.949 -1.1945  1.1042 -0.6554
 7950TIP3   OH245264   5.491   6.484  15.933 -0.2423  0.0885  0.1742
 7950TIP3    H145265   5.582   6.515  15.936 -0.6571  1.4371 -0.2947
 7950TIP3    H245266   5.493   6.406  15.878  0.5759  0.3300 -0.1462
 7951TIP3   OH245267   4.172   4.674   3.372  0.3596  0.0481 -0.2490
 7951TIP3    H145268   4.144   4.748   3.318  0.9616  0.0940 -0.5000
 7951TIP3    H245269   4.182   4.712   3.460 -0.7072 -0.0470 -0.0657
 7952TIP3   OH245270   3.647   0.919  14.010  0.4220  0.1545 -0.4282
 7952TIP3    H145271   3.697   0.979  13.955  0.9273 -0.5853 -0.7867
 7952TIP3    H245272   3.652   0.957  14.098  0.1337  1.0082 -0.7672
 7953TIP3   OH245273   1.993   0.245   2.243  0.0935 -0.3429 -0.0425
 7953TIP3    H145274   1.900   0.223   2.253 -0.2604  0.2732 -1.6511
 7953TIP3    H245275   1.992   0.330   2.198  1.4480 -0.0791  0.3868
 7954TIP3   OH245276   0.914   5.131  13.978  0.0210  0.5780 -0.3180
 7954TIP3    H145277   0.951   5.109  14.064  0.5985  0.3756 -0.6127
 7954TIP3    H245278   0.820   5.117  13.989  0.0279  1.0376  0.4261
 7955TIP3   OH245279   1.323   6.187  13.615 -0.3662 -0.0901  0.3443
 7955TIP3    H145280   1.337   6.123  13.685 -0.4943  0.8809  1.2681
 7955TIP3    H245281   1.298   6.133  13.539  0.4011 -1.2027  0.8525
 7956TIP3   OH245282   4.053   6.276   0.373 -0.1809  0.1724  0.3362
 7956TIP3    H145283   3.972   6.326   0.384 -0.0837 -0.0250  2.4074
 7956TIP3    H245284   4.112   6.312   0.440  0.4175 -1.6447  0.8413
 7957TIP3   OH245285   2.276   0.076   3.947 -0.0424 -0.2437 -0.0123
 7957TIP3    H145286   2.197   0.129   3.943  0.9030  1.1607 -0.8109
 7957TIP3    H245287   2.320   0.092   3.863  2.6010  1.4618  1.5889
 7958TIP3   OH245288   2.314   4.820   4.514  0.2729  0.1091 -0.0784
 7958TIP3    H145289   2.336   4.757   4.445 -0.0446  0.6207 -0.6609
 7958TIP3    H245290   2.337   4.776   4.596  1.8708 -0.0125 -0.5775
 7959TIP3   OH245291   4.299   5.035   2.172  0.0512 -0.5240  0.5551
 7959TIP3    H145292   4.382   4.992   2.152 -0.0966 -0.8413  0.6088
 7959TIP3    H245293   4.235   4.990   2.116 -0.1034 -0.3563  0.5944
 7960TIP3   OH245294   2.516   1.968  12.620  0.8455 -0.2383 -0.1051
 7960TIP3    H145295   2.579   1.937  12.555  0.1346 -1.9926 -0.0017
 7960TIP3    H245296   2.570   1.987  12.697  1.3397 -1.0943 -0.2280
 7961TIP3   OH245297   4.198   5.746  13.163 -0.6129 -0.2101  0.4119
 7961TIP3    H145298   4.257   5.774  13.233 -0.0660  1.3338 -0.6139
 7961TIP3    H245299   4.110   5.755  13.201 -0.3695  1.3873  0.6697
 7962TIP3   OH245300   5.921   6.248  16.944 -0.0017 -0.2592 -0.1623
 7962TIP3    H145301   5.846   6.275  16.997  0.2949  0.6790 -0.2070
 7962TIP3    H245302   5.979   6.202  17.004  0.1207  0.3999  0.2286
 7963TIP3   OH245303   4.178   5.877  12.306 -0.4601 -0.4683 -0.4652
 7963TIP3    H145304   4.155   5.809  12.243  0.5636 -0.2453 -1.1098
 7963TIP3    H245305   4.217   5.947  12.253  0.8954 -0.4902  0.4496
 7964TIP3   OH245306   2.245   1.848  13.743 -0.1025  0.4567 -0.1690
 7964TIP3    H145307   2.210   1.936  13.756 -2.2063 -0.2019 -0.9726
 7964TIP3    H245308   2.180   1.791  13.784  0.5138 -0.8055 -0.9126
 7965TIP3   OH245309   4.959   0.284  13.585  0.7434 -0.0694 -0.0116
 7965TIP3    H145310   4.966   0.233  13.505 -3.1284 -1.0861  0.1019
 7965TIP3    H245311   4.977   0.374  13.558 -2.9742  0.0735 -2.8149
 7966TIP3   OH245312   3.110   6.321  10.947 -0.2975 -0.3850  0.0672
 7966TIP3    H145313   3.203   6.304  10.962 -0.5306 -0.2647  1.9014
 7966TIP3    H245314   3.066   6.266  11.012 -1.4417  0.4936  0.0504
 7967TIP3   OH245315   1.391   0.788   4.413  0.2488  0.2337  0.4299
 7967TIP3    H145316   1.338   0.732   4.356  0.7944 -1.2587  1.3213
 7967TIP3    H245317   1.367   0.877   4.388 -0.6976 -0.3811 -1.0115
 7968TIP3   OH245318   6.207   3.171   0.449  0.0273  0.0067 -0.2423
 7968TIP3    H145319   6.249   3.257   0.451 -0.5891  0.2971  1.5070
 7968TIP3    H245320   6.137   3.179   0.384 -2.3606  2.0336  2.3396
 7969TIP3   OH245321   1.255   2.196  11.191 -0.2879 -0.4764  0.1252
 7969TIP3    H145322   1.243   2.101  11.200  0.6070 -0.5478  0.7224
 7969TIP3    H245323   1.348   2.209  11.207 -0.7396  0.7243  1.9933
 7970TIP3   OH245324   3.226   1.299  13.109 -0.2957  0.0036 -0.4826
 7970TIP3    H145325   3.208   1.272  13.199 -0.2653  1.2956 -0.0618
 7970TIP3    H245326   3.160   1.367  13.091  1.3077  1.6424 -0.4773
 7971TIP3   OH245327   4.521   3.882   3.897 -0.2488 -0.3240  0.3987
 7971TIP3    H145328   4.574   3.953   3.933  1.5786 -1.1037 -0.6036
 7971TIP3    H245329   4.460   3.925   3.837 -0.5809  0.5746  1.3674
 7972TIP3   OH245330   3.689   2.058  15.940  0.0732 -0.3012  0.2662
 7972TIP3    H145331   3.742   2.007  16.001 -0.2822 -0.3487  0.5396
 7972TIP3    H245332   3.624   1.995  15.907 -2.1972  0.5532  2.7081
 7973TIP3   OH245333   0.864   5.680   0.250  0.7848 -0.3575  0.5324
 7973TIP3    H145334   0.860   5.620   0.324  2.8065 -0.0779  0.9302
 7973TIP3    H245335   0.882   5.624   0.174 -1.3191 -0.6475  0.1982
 7974TIP3   OH245336   6.690   4.794   3.478 -0.0793  0.3474 -0.0727
 7974TIP3    H145337   6.649   4.793   3.391 -2.3406  0.9801  0.8878
 7974TIP3    H245338   6.675   4.706   3.513  0.0157  0.3604 -0.0010
 7975TIP3   OH245339   4.802   1.251  14.552 -0.1733 -0.1817 -0.1219
 7975TIP3    H145340   4.747   1.206  14.488  0.7226  0.5959 -1.4768
 7975TIP3    H245341   4.884   1.202  14.551  0.1273  0.3224 -0.1602
 7976TIP3   OH245342   3.187   5.238   3.564 -0.2180  0.3481  0.1335
 7976TIP3    H145343   3.259   5.276   3.615  1.1747  0.6912 -1.9538
 7976TIP3    H245344   3.184   5.146   3.593 -0.1270  0.7500  1.4931
 7977TIP3   OH245345   1.277   4.392  11.680 -0.0415 -0.2789  0.4382
 7977TIP3    H145346   1.275   4.418  11.588  0.2377 -0.6633  0.3175
 7977TIP3    H245347   1.235   4.464  11.727  0.7254  0.3798  0.1223
 7978TIP3   OH245348   0.981   2.144   0.146  0.2163  0.5350 -0.0916
 7978TIP3    H145349   0.946   2.077   0.205  1.8655  0.1654  0.5257
 7978TIP3    H245350   1.011   2.214   0.204 -0.9292  1.5503 -0.6980
 7979TIP3   OH245351   0.446   0.783  16.850 -0.2970 -0.3122 -0.0228
 7979TIP3    H145352   0.375   0.846  16.856  1.0958  1.2874  0.4528
 7979TIP3    H245353   0.483   0.780  16.938  0.8944 -0.2707 -0.5028
 7980TIP3   OH245354   6.602   2.626  11.340  0.7703 -0.1638  0.3361
 7980TIP3    H145355   6.604   2.625  11.244 -1.5092  0.8452  0.1957
 7980TIP3    H245356   6.579   2.536  11.365 -0.9539  0.0652 -0.2536
 7981TIP3   OH245357   2.182   3.659   4.629 -0.0654  0.7215 -0.3576
 7981TIP3    H145358   2.226   3.742   4.651 -0.4558  0.8123  0.1153
 7981TIP3    H245359   2.244   3.613   4.573 -0.3336  1.8451 -1.6167
 7982TIP3   OH245360   6.146   2.770  11.849  0.3100  0.1288  0.2683
 7982TIP3    H145361   6.208   2.697  11.847  0.2720  0.0850  0.5780
 7982TIP3    H245362   6.173   2.827  11.777  1.6127  0.8370  1.2779
 7983TIP3   OH245363   1.763   0.422   5.410  0.0709 -0.6204 -0.1444
 7983TIP3    H145364   1.693   0.483   5.386 -0.0341 -0.7209 -0.0934
 7983TIP3    H245365   1.782   0.443   5.502 -1.7219 -2.3593  0.6765
 7984TIP3   OH245366   6.575   6.012   4.008  0.0806  0.6165  0.2307
 7984TIP3    H145367   6.497   6.036   3.957  0.8988 -0.9876 -1.9476
 7984TIP3    H245368   6.648   6.021   3.946  1.2473 -0.6932  1.3320
 7985TIP3   OH245369   2.731   3.043   2.004 -0.2343 -0.0654  0.0770
 7985TIP3    H145370   2.699   3.088   1.926  1.5435 -0.8839 -1.1877
 7985TIP3    H245371   2.708   3.101   2.076 -0.5994  1.4471 -1.2042
 7986TIP3   OH245372   5.924   2.309  15.228  0.5277  0.5850  0.0989
 7986TIP3    H145373   5.926   2.218  15.202  0.7511  0.5676  0.1687
 7986TIP3    H245374   5.871   2.353  15.162  0.7718  0.4772 -0.1670
 7987TIP3   OH245375   5.017   5.958   2.660  0.4413 -0.7895 -0.2823
 7987TIP3    H145376   5.106   5.928   2.640  0.5941  0.3682 -1.5031
 7987TIP3    H245377   5.028   6.020   2.732  0.7572 -0.0130 -0.9800
 7988TIP3   OH245378   1.668   1.549  13.149 -0.0194  0.3633 -0.2764
 7988TIP3    H145379   1.741   1.610  13.140  1.4402 -1.1135  1.0441
 7988TIP3    H245380   1.596   1.603  13.183  1.5453  1.1949  1.9627
 7989TIP3   OH245381   3.768   1.547   5.514 -0.1133 -0.0054  0.4527
 7989TIP3    H145382   3.815   1.592   5.583 -0.4709  1.0414  0.0309
 7989TIP3    H245383   3.833   1.536   5.444  0.0790 -0.5144  0.7031
 7990TIP3   OH245384   1.869   0.318   3.551  0.2897  0.2342 -0.0628
 7990TIP3    H145385   1.833   0.229   3.560  1.6652 -0.4137 -0.6539
 7990TIP3    H245386   1.822   0.356   3.478  0.8086 -0.6307 -0.8784
 7991TIP3   OH245387   4.430   6.697   0.519  0.3159 -0.0446 -0.0283
 7991TIP3    H145388   4.435   6.604   0.501  1.9444 -0.3419  1.6818
 7991TIP3    H245389   4.379   6.733   0.446  1.5496 -1.9089 -1.9030
 7992TIP3   OH245390   1.436   6.711  15.980 -0.0622  0.2525  0.1387
 7992TIP3    H145391   1.524   6.740  16.005  0.1039  0.1038 -0.2605
 7992TIP3    H245392   1.405   6.779  15.920 -1.1400  1.5041  2.0295
 7993TIP3   OH245393   0.739   4.555   1.204  0.0467 -0.7313  0.2452
 7993TIP3    H145394   0.814   4.507   1.239  0.3708  0.1599  0.8187
 7993TIP3    H245395   0.760   4.568   1.112  1.4832  1.0460  0.7496
 7994TIP3   OH245396   0.433   5.989  12.739 -0.5240  0.7507  0.3890
 7994TIP3    H145397   0.368   6.017  12.803 -1.7772  1.2682 -1.0496
 7994TIP3    H245398   0.415   6.042  12.662  1.1589  0.3858 -0.2954
 7995TIP3   OH245399   6.591   5.074   3.061  0.0380  0.2199  0.6723
 7995TIP3    H145400   6.579   5.012   2.989  1.2929  0.2004  0.4512
 7995TIP3    H245401   6.631   5.150   3.020  0.0322  0.5204  1.2208
 7996TIP3   OH245402   0.322   3.488   2.359  0.1021  0.3259 -0.1712
 7996TIP3    H145403   0.363   3.557   2.411 -0.5228  1.7350 -1.4815
 7996TIP3    H245404   0.395   3.446   2.314  0.6437 -0.8562  1.7005
 7997TIP3   OH245405   6.131   5.533  13.491  0.3033  0.5599 -0.3429
 7997TIP3    H145406   6.192   5.559  13.421  3.7969  0.0294  2.2406
 7997TIP3    H245407   6.177   5.555  13.572 -1.4293 -3.1124  1.8708
 7998TIP3   OH245408   5.392   4.313   3.854  0.1074  0.1430  0.1821
 7998TIP3    H145409   5.426   4.332   3.942 -0.5069  1.9696  0.0697
 7998TIP3    H245410   5.303   4.281   3.869 -0.1529  0.8722  0.2146
 7999TIP3   OH245411   0.245   4.911  14.666 -0.1283 -0.1851  0.3330
 7999TIP3    H145412   0.309   4.913  14.737  2.0650 -0.0373 -1.5540
 7999TIP3    H245413   0.240   5.002  14.636  1.4536 -0.7152 -1.7351
 8000TIP3   OH245414   2.576   4.634  13.696  0.0119  0.4468  0.1045
 8000TIP3    H145415   2.549   4.564  13.757 -0.7773  0.6119 -0.0507
 8000TIP3    H245416   2.509   4.701  13.706  0.8488  1.2661  0.3636
 8001TIP3   OH245417   3.391   0.252   0.589  0.5647 -0.3348  0.1048
 8001TIP3    H145418   3.313   0.216   0.545  0.5226  0.4646 -0.4904
 8001TIP3    H245419   3.355   0.302   0.663  0.3469  1.7247 -1.3331
 8002TIP3   OH245420   3.757   3.044   3.603 -0.2745  0.3890  0.5581
 8002TIP3    H145421   3.826   2.982   3.629  0.7805 -0.3050 -3.2564
 8002TIP3    H245422   3.774   3.122   3.655  4.5571  0.8417 -1.1729
 8003TIP3   OH245423   2.082   1.202   3.975 -0.0701 -0.0262 -0.0413
 8003TIP3    H145424   2.094   1.176   3.883 -0.0039 -1.9196  0.4831
 8003TIP3    H245425   2.023   1.137   4.012 -0.0794  0.6999  1.2877
 8004TIP3   OH245426   0.228   2.147   3.531  0.8363  0.0039  0.1766
 8004TIP3    H145427   0.238   2.240   3.551  1.8653 -0.1041  0.2246
 8004TIP3    H245428   0.317   2.117   3.513  0.5209 -0.9814  0.2060
 8005TIP3   OH245429   6.056   2.227   5.153 -0.3524 -0.2654 -0.2186
 8005TIP3    H145430   6.002   2.303   5.133 -1.0589 -0.9107 -0.8693
 8005TIP3    H245431   6.007   2.179   5.220  0.3311  0.0959  0.5604
 8006TIP3   OH245432   3.043   2.858  14.481 -0.1135 -0.6171  0.7033
 8006TIP3    H145433   3.139   2.856  14.483  0.0814  0.7576 -2.1164
 8006TIP3    H245434   3.018   2.892  14.568  2.1140  1.3814  0.6675
 8007TIP3   OH245435   1.117   2.178  14.087 -0.4438 -0.1352 -0.0768
 8007TIP3    H145436   1.122   2.101  14.144 -1.9563 -0.2748 -0.1085
 8007TIP3    H245437   1.209   2.203  14.074 -0.0341 -0.2147  2.2521
 8008TIP3   OH245438   4.688   1.072   0.642  0.7624  0.2257  0.2930
 8008TIP3    H145439   4.605   1.028   0.653  1.2830 -0.7480  0.3863
 8008TIP3    H245440   4.750   1.022   0.695  1.3684  1.0600  0.4017
 8009TIP3   OH245441   0.953   1.137  11.106 -0.0066 -0.3115  0.0627
 8009TIP3    H145442   0.957   1.224  11.066 -0.4477  0.6302  1.9264
 8009TIP3    H245443   1.007   1.144  11.185  0.4025 -1.9159 -0.0329
 8010TIP3   OH245444   1.471   0.103  12.827  0.4591  0.2999 -0.1073
 8010TIP3    H145445   1.544   0.066  12.877  1.8621  2.3274 -0.5342
 8010TIP3    H245446   1.394   0.088  12.881  1.3037 -1.1161  0.7680
 8011TIP3   OH245447   5.936   1.667   3.660 -0.1954 -0.7902  0.1579
 8011TIP3    H145448   5.997   1.593   3.654  0.4912 -0.2164  0.0043
 8011TIP3    H245449   5.988   1.739   3.695 -0.2766  0.2698 -1.7908
 8012TIP3   OH245450   6.588   5.227   3.309  0.5401 -0.0777  0.3567
 8012TIP3    H145451   6.633   5.180   3.379 -0.1628 -0.8685  0.2776
 8012TIP3    H245452   6.611   5.179   3.229 -0.0148 -0.1667  0.2511
 8013TIP3   OH245453   6.667   3.447  11.661  0.1790  0.4756  0.5766
 8013TIP3    H145454   6.695   3.536  11.641 -1.9870  0.8272 -1.2970
 8013TIP3    H245455   6.683   3.398  11.580 -0.4663 -0.3402  0.9305
 8014TIP3   OH245456   5.724   4.015  14.734 -0.3571  0.1921  0.2335
 8014TIP3    H145457   5.751   4.018  14.642 -0.5164  1.3577  0.2115
 8014TIP3    H245458   5.651   3.954  14.736  0.2761 -0.6046 -0.2381
 8015TIP3   OH245459   5.967   2.882   2.772  0.3135  0.5580 -0.9150
 8015TIP3    H145460   6.018   2.805   2.796  1.8908  1.5304 -0.9666
 8015TIP3    H245461   5.984   2.945   2.842 -1.1057  0.7929 -0.7673
 8016TIP3   OH245462   0.678   5.019  12.522 -0.1015 -0.0826 -0.2532
 8016TIP3    H145463   0.768   4.991  12.506 -0.8710 -2.3616 -0.9498
 8016TIP3    H245464   0.674   5.033  12.617  0.8819 -0.3160 -0.1636
 8017TIP3   OH245465   4.011   5.303  11.853 -0.0811  0.1222 -0.2666
 8017TIP3    H145466   4.022   5.232  11.789 -0.4577 -1.0393  0.9164
 8017TIP3    H245467   3.950   5.268  11.918  2.4953  0.1069  2.3429
 8018TIP3   OH245468   4.928   0.676   1.270 -0.0695  0.9236  0.5404
 8018TIP3    H145469   4.983   0.743   1.230 -0.2833  0.8778  0.1685
 8018TIP3    H245470   4.848   0.721   1.296 -0.8415  0.5508 -1.0426
 8019TIP3   OH245471   6.284   0.628   3.921 -0.0194 -0.1538 -0.1551
 8019TIP3    H145472   6.248   0.713   3.899 -0.7638 -0.6387 -0.8490
 8019TIP3    H245473   6.324   0.640   4.007  0.0112  0.9248 -0.3162
 8020TIP3   OH245474   3.286   5.124  12.271 -0.1829 -0.0830  0.7203
 8020TIP3    H145475   3.281   5.117  12.367 -0.7442 -0.9115  0.6425
 8020TIP3    H245476   3.321   5.040  12.243  0.0036  0.1691  0.1900
 8021TIP3   OH245477   4.762   4.757   5.677  0.3633 -0.1042  0.3607
 8021TIP3    H145478   4.716   4.743   5.594  1.2527  0.4939 -0.2574
 8021TIP3    H245479   4.776   4.670   5.712 -0.6248 -0.3310  0.2236
 8022TIP3   OH245480   4.208   3.960   4.081  0.0808  0.2334 -0.1488
 8022TIP3    H145481   4.198   4.055   4.072  1.0179  0.3371 -0.1337
 8022TIP3    H245482   4.148   3.924   4.016 -0.1286  0.8393 -0.3013
 8023TIP3   OH245483   5.706   1.209  13.970  0.7198  1.2057  0.7262
 8023TIP3    H145484   5.643   1.153  14.016  1.4102 -0.1190  0.1175
 8023TIP3    H245485   5.651   1.271  13.922 -0.2233 -0.4028 -0.4069
 8024TIP3   OH245486   0.665   5.030  16.639 -0.2020 -0.2179 -0.0431
 8024TIP3    H145487   0.577   4.997  16.660  0.5087 -1.6130  0.9100
 8024TIP3    H245488   0.677   5.105  16.697 -0.4576 -0.5219  0.4085
 8025TIP3   OH245489   2.453   6.612  13.618  0.1328  0.2440  0.1946
 8025TIP3    H145490   2.432   6.697  13.579 -0.4934 -0.3498 -0.8291
 8025TIP3    H245491   2.372   6.561  13.609  0.7462 -0.7323  0.0099
 8026TIP3   OH245492   0.649   4.772  11.087  0.7941 -0.4105 -0.1068
 8026TIP3    H145493   0.633   4.851  11.139  1.6501 -0.1189 -0.2672
 8026TIP3    H245494   0.726   4.732  11.128  1.0948 -0.5127 -0.7653
 8027TIP3   OH245495   0.483   4.302  12.456  0.1546 -0.0308  0.2472
 8027TIP3    H145496   0.433   4.305  12.375  1.2964 -0.4577 -0.4837
 8027TIP3    H245497   0.573   4.322  12.431  0.5233 -0.1145  1.4147
 8028TIP3   OH245498   0.333   2.679  10.653 -0.3019  0.1912 -0.2130
 8028TIP3    H145499   0.331   2.755  10.594  0.8787  0.0007 -0.5291
 8028TIP3    H245500   0.376   2.610  10.602  3.5318  0.8561  1.7598
 8029TIP3   OH245501   2.581   2.312   0.991  1.0672 -0.0631  0.4182
 8029TIP3    H145502   2.589   2.357   1.075  1.9850  0.8921 -0.1578
 8029TIP3    H245503   2.664   2.266   0.980  1.2258  0.3712 -0.2674
 8030TIP3   OH245504   0.382   1.301   4.876 -0.5261  0.0823  0.2039
 8030TIP3    H145505   0.293   1.270   4.859 -0.2153 -0.4328 -0.5132
 8030TIP3    H245506   0.409   1.342   4.794  0.2218 -0.5417  0.1310
 8031TIP3   OH245507   5.378   0.520  15.542  0.0426 -0.1182 -0.3546
 8031TIP3    H145508   5.392   0.530  15.637  1.0856 -0.2165 -0.4890
 8031TIP3    H245509   5.382   0.610  15.508 -0.7216 -0.0438 -0.2632
 8032TIP3   OH245510   4.903   2.289  16.145  0.3425 -0.1045  0.4560
 8032TIP3    H145511   4.839   2.310  16.077  0.7379  0.9902  0.3910
 8032TIP3    H245512   4.911   2.194  16.143 -0.3974 -0.1592 -0.3409
 8033TIP3   OH245513   5.342   3.475   2.038 -0.4918  0.3012  0.3753
 8033TIP3    H145514   5.355   3.479   1.943 -0.6517  0.2350  0.3500
 8033TIP3    H245515   5.431   3.469   2.074 -0.4571 -0.3057  0.2000
 8034TIP3   OH245516   6.792   2.230   1.687  0.3643 -0.0042  0.3076
 8034TIP3    H145517   6.733   2.188   1.750  0.9083 -1.1033  0.1106
 8034TIP3    H245518   6.768   2.192   1.603 -0.7578  1.8886 -0.2970
 8035TIP3   OH245519   0.614   5.657   6.354 -0.1389  0.0861  0.2603
 8035TIP3    H145520   0.683   5.722   6.362  0.4529 -0.5259  0.2676
 8035TIP3    H245521   0.597   5.628   6.443  0.3090 -0.4744  0.1743
 8036TIP3   OH245522   3.440   2.149  14.861  0.1150  0.6498 -0.2236
 8036TIP3    H145523   3.350   2.139  14.892 -0.2236  0.6547 -1.1773
 8036TIP3    H245524   3.476   2.221  14.914 -0.3432  0.4610  0.3563
 8037TIP3   OH245525   6.630   5.273   2.865 -0.0463  0.5208  0.4030
 8037TIP3    H145526   6.703   5.301   2.920  0.1106  1.4156 -0.2399
 8037TIP3    H245527   6.587   5.354   2.839 -1.5476 -0.0056  1.1087
 8038TIP3   OH245528   0.591   2.637  14.813 -0.1325 -0.4920 -0.1973
 8038TIP3    H145529   0.518   2.603  14.865 -0.3485 -0.6981 -0.6257
 8038TIP3    H245530   0.646   2.684  14.876 -0.5977 -0.3940  0.1412
 8039TIP3   OH245531   4.874   4.641   3.017  0.7157  0.1725  0.5539
 8039TIP3    H145532   4.839   4.591   2.944 -0.6589  0.2670  1.1091
 8039TIP3    H245533   4.812   4.714   3.028  0.6141 -0.1115  2.0971
 8040TIP3   OH245534   4.870   0.926  16.138 -0.2194 -0.4573 -0.2061
 8040TIP3    H145535   4.792   0.875  16.117 -0.7456 -0.5169  1.7283
 8040TIP3    H245536   4.839   0.995  16.197  1.2662 -0.8879  1.1399
 8041TIP3   OH245537   2.629   4.673  12.076  0.5001 -0.0474  1.0571
 8041TIP3    H145538   2.675   4.694  11.995 -0.8159  0.4845  0.4069
 8041TIP3    H245539   2.580   4.753  12.097  0.3782 -0.3720  2.0662
 8042TIP3   OH245540   2.332   2.876   3.611 -0.0382  0.2477  0.5761
 8042TIP3    H145541   2.307   2.931   3.536 -1.7682  0.4761  1.2780
 8042TIP3    H245542   2.285   2.914   3.685 -2.4712 -2.9377  0.8693
 8043TIP3   OH245543   5.430   1.596   6.168  0.2315  0.7124 -0.5590
 8043TIP3    H145544   5.471   1.607   6.254  0.1496 -0.3824 -0.3662
 8043TIP3    H245545   5.466   1.667   6.115  1.8154  0.2313 -0.1797
 8044TIP3   OH245546   1.510   3.500  15.027 -0.1165 -0.2626 -0.0907
 8044TIP3    H145547   1.456   3.426  15.055 -0.4740  0.4293  1.1077
 8044TIP3    H245548   1.598   3.478  15.057 -0.2910 -0.0499  0.6087
 8045TIP3   OH245549   0.539   2.667  16.665  0.0628  0.2394 -0.0760
 8045TIP3    H145550   0.485   2.710  16.599 -0.3929  1.3520  0.9622
 8045TIP3    H245551   0.629   2.684  16.638 -0.0913  2.2067  0.4523
 8046TIP3   OH245552   0.330   0.299   1.832  0.9292  0.2320 -0.3500
 8046TIP3    H145553   0.236   0.309   1.821  0.7901 -0.2416  0.3679
 8046TIP3    H245554   0.360   0.383   1.866  0.2383 -0.6342  2.6569
 8047TIP3   OH245555   0.255   6.313  15.376 -0.3608 -0.3540 -0.7073
 8047TIP3    H145556   0.335   6.266  15.398  0.7526  0.6422 -2.3481
 8047TIP3    H245557   0.184   6.251  15.393  0.7537 -1.3037  0.6568
 8048TIP3   OH245558   6.285   5.531  10.398  0.0814 -0.8280 -0.1957
 8048TIP3    H145559   6.249   5.582  10.470  1.8592 -2.9770  2.4303
 8048TIP3    H245560   6.319   5.596  10.337  1.1720  1.1853  2.3762
 8049TIP3   OH245561   1.291   4.628   1.912 -0.4098 -0.3421 -0.4389
 8049TIP3    H145562   1.285   4.721   1.888  1.7920 -0.4950 -1.8476
 8049TIP3    H245563   1.205   4.592   1.890 -0.9107  1.1219 -1.0138
 8050TIP3   OH245564   5.540   1.523  14.010  0.5412 -0.7364 -0.5042
 8050TIP3    H145565   5.524   1.613  14.036  2.0790 -0.8339  0.9757
 8050TIP3    H245566   5.505   1.470  14.082  2.6094 -1.1193  0.3207
 8051TIP3   OH245567   6.018   4.797   2.584  0.7409 -0.0191 -0.0807
 8051TIP3    H145568   6.033   4.874   2.639  0.7980  1.5971 -2.1993
 8051TIP3    H245569   6.098   4.788   2.533  0.5419 -1.1967 -0.2009
 8052TIP3   OH245570   0.314   5.447  12.595  0.1539  1.1531  0.5781
 8052TIP3    H145571   0.259   5.525  12.581 -2.7527 -0.3140  2.7366
 8052TIP3    H245572   0.256   5.373  12.577  2.2049 -0.5481  0.6270
 8053TIP3   OH245573   1.800   4.190   0.479  0.4130  0.1326 -0.0678
 8053TIP3    H145574   1.886   4.149   0.491  0.5752  0.1701 -1.0247
 8053TIP3    H245575   1.737   4.120   0.493  0.5774  0.1733  0.9556
 8054TIP3   OH245576   5.993   4.922  13.190 -0.3372 -0.0497 -0.6880
 8054TIP3    H145577   6.057   4.913  13.119 -0.5018 -0.2892 -0.8076
 8054TIP3    H245578   5.936   4.845  13.181 -0.6965  0.2053 -0.6371
 8055TIP3   OH245579   4.131   1.418   1.757 -0.0704  0.1691  0.1898
 8055TIP3    H145580   4.161   1.487   1.697 -0.2904  0.0373 -0.0737
 8055TIP3    H245581   4.186   1.342   1.736 -0.1411  0.1256  0.1617
 8056TIP3   OH245582   0.741   6.212  11.347 -0.1376 -0.4924 -0.0903
 8056TIP3    H145583   0.783   6.148  11.406 -1.6116 -0.6266  0.8487
 8056TIP3    H245584   0.678   6.258  11.402 -0.2699  0.6437 -1.1599
 8057TIP3   OH245585   1.855   3.046   3.927  0.3669 -0.0148  0.5246
 8057TIP3    H145586   1.898   3.129   3.951  1.7578 -1.0970  2.0498
 8057TIP3    H245587   1.767   3.071   3.899  0.8271  1.9890  0.7417
 8058TIP3   OH245588   6.394   3.916   1.145  0.2455 -0.3911  0.1586
 8058TIP3    H145589   6.452   3.940   1.217  0.0312  0.5527  0.0276
 8058TIP3    H245590   6.307   3.942   1.174 -0.2900 -2.5769  0.7110
 8059TIP3   OH245591   1.596   4.699   3.831 -0.5754 -0.0735  0.0045
 8059TIP3    H145592   1.585   4.607   3.856 -0.3667 -0.4489 -1.1938
 8059TIP3    H245593   1.661   4.734   3.891  0.8000 -1.2548 -0.7451
 8060TIP3   OH245594   3.015   5.990  14.625 -0.1910  0.3361 -0.2130
 8060TIP3    H145595   2.982   5.911  14.667  0.7829  0.0893  0.1179
 8060TIP3    H245596   3.050   6.042  14.697  1.8429 -0.2583 -0.6981
 8061TIP3   OH245597   4.131   3.729  11.964  0.0565  0.1860  0.3482
 8061TIP3    H145598   4.062   3.722  12.029 -0.7804  1.2868 -0.3793
 8061TIP3    H245599   4.124   3.648  11.913 -1.0222  0.4961 -0.0177
 8062TIP3   OH245600   3.963   2.420   5.291 -0.2277  0.2710 -0.1800
 8062TIP3    H145601   3.908   2.398   5.365 -1.6803  1.1819 -0.9328
 8062TIP3    H245602   4.028   2.350   5.287 -2.4356 -1.9058 -0.3441
 8063TIP3   OH245603   2.184   3.218  11.289  0.6657  0.3584 -0.4008
 8063TIP3    H145604   2.267   3.197  11.330  0.0246  1.2238  1.4359
 8063TIP3    H245605   2.153   3.296  11.335 -1.7752 -0.6946 -0.0868
 8064TIP3   OH245606   4.633   1.218   2.275  0.0431 -0.6384  0.4281
 8064TIP3    H145607   4.672   1.132   2.289 -0.6844 -0.7562  1.9942
 8064TIP3    H245608   4.563   1.223   2.341 -2.6492 -0.4855 -2.2100
 8065TIP3   OH245609   0.720   0.333   4.774 -0.1628 -0.0307 -0.5641
 8065TIP3    H145610   0.652   0.391   4.808  1.9145  2.3285 -0.1390
 8065TIP3    H245611   0.795   0.390   4.758  1.6431 -2.4279 -1.3198
 8066TIP3   OH245612   1.901   1.447  14.624  0.2044  0.1172  0.2710
 8066TIP3    H145613   1.843   1.512  14.663 -0.5987  0.1509 -0.9380
 8066TIP3    H245614   1.843   1.388  14.576  1.0160 -0.8960  0.4962
 8067TIP3   OH245615   6.122   3.258  12.578 -0.4514  0.1767 -0.1149
 8067TIP3    H145616   6.197   3.227  12.527 -0.3992 -0.5967  0.4085
 8067TIP3    H245617   6.157   3.330  12.630 -0.7671  1.7201 -1.9430
 8068TIP3   OH245618   6.163   3.772  13.557  0.2748 -0.4294 -0.5710
 8068TIP3    H145619   6.070   3.756  13.571  0.6960 -2.0526  0.6988
 8068TIP3    H245620   6.168   3.806  13.467 -1.7767  2.5146  0.2605
 8069TIP3   OH245621   5.762   0.324   5.096 -0.1332 -0.1308 -0.0011
 8069TIP3    H145622   5.718   0.383   5.034  0.3034  0.5454  0.3211
 8069TIP3    H245623   5.714   0.335   5.178 -1.2800 -1.7008 -0.4204
 8070TIP3   OH245624   0.160   2.152   4.321 -0.3365 -0.4077  0.2628
 8070TIP3    H145625   0.119   2.070   4.296  1.3406 -0.7989 -1.4699
 8070TIP3    H245626   0.242   2.125   4.363 -0.0028  0.3510  0.1162
 8071TIP3   OH245627   0.959   2.019  10.591  0.5760 -0.6006  0.6516
 8071TIP3    H145628   0.964   1.942  10.648 -0.5627 -0.6397  0.7186
 8071TIP3    H245629   1.016   1.998  10.517  0.5266 -1.3731  0.8279
 8072TIP3   OH245630   4.776   0.643   5.961  0.1418  0.0768 -0.1303
 8072TIP3    H145631   4.810   0.679   5.879  1.0825 -1.6000 -0.5202
 8072TIP3    H245632   4.852   0.599   6.001 -0.7618 -0.7966  0.6776
 8073TIP3   OH245633   5.317   6.390   6.285  0.1135 -0.0579 -0.0998
 8073TIP3    H145634   5.229   6.418   6.310 -0.9165 -2.6998 -0.4898
 8073TIP3    H245635   5.366   6.472   6.278 -2.0282  1.4391  1.0835
 8074TIP3   OH245636   0.716   0.552  11.933  0.2412  0.3000 -0.0812
 8074TIP3    H145637   0.755   0.561  12.020  0.5199 -0.0185 -0.1704
 8074TIP3    H245638   0.695   0.641  11.907 -0.5107  0.3414  0.6132
 8075TIP3   OH245639   3.405   0.316   3.260 -0.3393 -0.0328 -0.1190
 8075TIP3    H145640   3.498   0.332   3.278 -0.1439  0.0266 -1.1325
 8075TIP3    H245641   3.385   0.234   3.306 -0.0838  0.5164  1.0238
 8076TIP3   OH245642   1.585   0.573  13.897  0.2485 -0.4454 -0.0036
 8076TIP3    H145643   1.643   0.648  13.906 -0.4051  0.5373 -2.7941
 8076TIP3    H245644   1.566   0.546  13.987  3.9328 -0.0660  1.0729
 8077TIP3   OH245645   5.698   2.235  10.667 -0.2956 -0.4822 -0.0498
 8077TIP3    H145646   5.671   2.323  10.640 -1.0357 -0.7502 -0.2061
 8077TIP3    H245647   5.696   2.238  10.763  0.2820 -0.1509 -0.0446
 8078TIP3   OH245648   6.566   5.722  16.274 -0.5131  0.4545  0.0594
 8078TIP3    H145649   6.650   5.731  16.319 -0.1712 -0.4305 -0.3668
 8078TIP3    H245650   6.501   5.746  16.340 -0.0163 -0.5995  0.9693
 8079TIP3   OH245651   3.958   0.253   0.152  0.1875 -0.1199  0.6917
 8079TIP3    H145652   3.932   0.234   0.062  0.9846  0.7283  0.2577
 8079TIP3    H245653   4.052   0.236   0.154 -0.1473 -2.0415  1.9224
 8080TIP3   OH245654   0.889   3.642  16.406 -0.0489 -0.6736  0.4272
 8080TIP3    H145655   0.809   3.689  16.388  0.5196 -0.3355 -1.3915
 8080TIP3    H245656   0.865   3.549  16.397 -0.0101 -0.5456 -1.2779
 8081TIP3   OH245657   0.209   2.886   5.222  0.0397 -0.4243 -0.6907
 8081TIP3    H145658   0.265   2.933   5.286 -2.8552  0.1332  1.6444
 8081TIP3    H245659   0.184   2.805   5.267  0.0576 -1.3270 -2.2527
 8082TIP3   OH245660   1.471   2.307  17.040  0.4600  0.0081 -0.1988
 8082TIP3    H145661   1.384   2.294  17.002  0.1450 -2.4312  1.1520
 8082TIP3    H245662   1.531   2.271  16.974  0.1722 -1.1555  0.1500
 8083TIP3   OH245663   4.782   5.202  13.370  0.1880  0.2268  0.1141
 8083TIP3    H145664   4.735   5.159  13.298  1.1303  1.0492 -1.0471
 8083TIP3    H245665   4.871   5.167  13.365  0.0508 -0.3196  1.4206
 8084TIP3   OH245666   1.378   5.840  13.276  0.1126 -0.6920 -0.3354
 8084TIP3    H145667   1.316   5.770  13.251  0.1386 -0.4861 -0.9955
 8084TIP3    H245668   1.327   5.898  13.332 -0.8585  0.4554 -2.3131
 8085TIP3   OH245669   1.400   6.763   0.083  0.6024 -0.2389  0.0958
 8085TIP3    H145670   1.310   6.739   0.105 -0.0182  1.5877 -0.2781
 8085TIP3    H245671   1.401   6.771  -0.012  0.8259  0.8871  0.1745
 8086TIP3   OH245672   2.221   2.202  14.022  0.2031 -0.0544 -0.0959
 8086TIP3    H145673   2.191   2.289  13.996 -0.9747 -0.4270 -0.0719
 8086TIP3    H245674   2.199   2.197  14.115 -1.9312 -1.1972 -0.5904
 8087TIP3   OH245675   1.922   5.087  11.977 -0.2806 -0.1542  0.1535
 8087TIP3    H145676   1.957   5.005  12.012  0.1454  0.4036  1.0768
 8087TIP3    H245677   1.966   5.098  11.893  1.7547  0.4949  1.2514
 8088TIP3   OH245678   4.211   1.425   2.428  0.3690 -0.5005  0.1199
 8088TIP3    H145679   4.218   1.492   2.359  0.1148 -0.2767  0.3060
 8088TIP3    H245680   4.146   1.461   2.488 -0.6007 -1.4189 -0.3436
 8089TIP3   OH245681   5.181   6.380  15.714 -0.7413  0.6607  0.3155
 8089TIP3    H145682   5.228   6.460  15.688 -1.5724  0.8816 -0.5489
 8089TIP3    H245683   5.244   6.332  15.767  0.0280  1.5456  0.2349
 8090TIP3   OH245684   4.733   3.802   4.268  0.0836  0.0517  0.0856
 8090TIP3    H145685   4.743   3.774   4.177 -1.2192  0.6420 -0.2605
 8090TIP3    H245686   4.644   3.777   4.292  0.4437 -0.2060  1.2510
 8091TIP3   OH245687   2.007   2.244   0.183 -0.1103 -0.1718 -0.2197
 8091TIP3    H145688   1.977   2.158   0.155  0.0430 -0.8104  1.4564
 8091TIP3    H245689   2.094   2.228   0.221 -0.4520  0.5447  0.9319
 8092TIP3   OH245690   1.093   4.174  16.228  0.1138  0.0540  0.1054
 8092TIP3    H145691   1.010   4.167  16.275  0.1030  0.6771  0.1946
 8092TIP3    H245692   1.069   4.186  16.136  0.1281 -0.7961 -0.0140
 8093TIP3   OH245693   1.260   4.561  11.451 -0.1049 -0.2468  0.1883
 8093TIP3    H145694   1.310   4.587  11.374 -0.9395 -0.6903 -0.5275
 8093TIP3    H245695   1.171   4.594  11.434 -0.1481  0.2139  1.2600
 8094TIP3   OH245696   5.709   2.248  17.035  0.6018 -0.3578 -0.4396
 8094TIP3    H145697   5.793   2.269  16.995 -0.1440  1.0159 -1.3602
 8094TIP3    H245698   5.658   2.209  16.964 -0.0844  0.3319 -0.3388
 8095TIP3   OH245699   1.727   0.786  13.938 -0.1360  0.5293 -0.0896
 8095TIP3    H145700   1.810   0.739  13.943 -1.1547 -1.3942 -0.3034
 8095TIP3    H245701   1.702   0.800  14.029 -0.1985 -0.0627 -0.0129
 8096TIP3   OH245702   5.416   6.291   0.564 -0.5515 -0.1178  0.5489
 8096TIP3    H145703   5.358   6.343   0.508 -2.5953 -0.4413  2.2505
 8096TIP3    H245704   5.429   6.344   0.642  0.7492 -0.4454  0.5773
 8097TIP3   OH245705   1.641   5.244   4.729 -0.1230 -0.3281  0.3021
 8097TIP3    H145706   1.696   5.321   4.742 -0.8843  0.5992 -1.5329
 8097TIP3    H245707   1.696   5.182   4.680 -0.6814  0.6835 -1.7241
 8098TIP3   OH245708   5.895   3.744  14.304  0.2393  0.1891 -0.6729
 8098TIP3    H145709   5.925   3.810  14.240  0.5012  1.0688  0.3336
 8098TIP3    H245710   5.975   3.703  14.335  0.6361  2.8678  2.3744
 8099TIP3   OH245711   4.646   1.439   4.160  0.6965  0.0820  0.4973
 8099TIP3    H145712   4.613   1.526   4.185 -2.7643 -0.9568  0.0998
 8099TIP3    H245713   4.727   1.457   4.113  0.2004  3.1001  0.5785
 8100TIP3   OH245714   4.703   4.322  13.714  0.4460 -1.1184  0.0069
 8100TIP3    H145715   4.716   4.311  13.808 -2.3729 -0.6194  0.5628
 8100TIP3    H245716   4.608   4.319  13.703  0.5332  1.3264 -2.5117
 8101TIP3   OH245717   0.815   2.545  15.900  0.0393 -0.3082 -0.1484
 8101TIP3    H145718   0.791   2.613  15.963 -0.7906 -1.0297  0.3451
 8101TIP3    H245719   0.736   2.491  15.893 -0.2636  0.3560 -2.6441
 8102TIP3   OH245720   2.017   5.573   5.827  0.0309 -0.2019  0.0588
 8102TIP3    H145721   2.102   5.544   5.859 -0.1576 -2.7888 -1.4875
 8102TIP3    H245722   2.012   5.541   5.737 -1.5105  2.3036 -0.8652
 8103TIP3   OH245723   1.971   5.647   4.770  0.7735 -0.1918 -0.6899
 8103TIP3    H145724   1.930   5.571   4.729  0.7586 -0.4818 -0.1448
 8103TIP3    H245725   2.052   5.613   4.809  0.1356 -0.2069  0.6849
 8104TIP3   OH245726   2.091   6.356   4.871  0.7324  0.6270  0.3890
 8104TIP3    H145727   2.092   6.424   4.805 -0.6758  1.6976  1.4018
 8104TIP3    H245728   2.169   6.372   4.924  1.7326 -0.0918 -0.8061
 8105TIP3   OH245729   0.947   6.615   1.210  0.3558 -0.1428  0.1396
 8105TIP3    H145730   0.940   6.537   1.265  2.5675 -0.2509  0.3586
 8105TIP3    H245731   0.992   6.584   1.131 -1.3537  0.3403 -1.0667
 8106TIP3   OH245732   6.746   4.119  12.470  0.1401 -0.6228  0.4799
 8106TIP3    H145733   6.670   4.167  12.501 -0.4839 -0.0427 -1.8146
 8106TIP3    H245734   6.746   4.132  12.375  3.0039 -0.7310  0.3818
 8107TIP3   OH245735   5.677   0.306  12.745  0.4095  0.5556  0.1889
 8107TIP3    H145736   5.638   0.353  12.819 -0.3473  1.5035 -0.7857
 8107TIP3    H245737   5.634   0.221  12.746  1.7208 -0.1455  1.9070
 8108TIP3   OH245738   3.853   6.482  10.935 -0.1100 -0.3217  0.0094
 8108TIP3    H145739   3.795   6.417  10.895  0.4342 -0.5647 -0.3981
 8108TIP3    H245740   3.794   6.553  10.963 -0.4396  0.2767 -2.0236
 8109TIP3   OH245741   6.484   2.773  14.020  0.2818 -0.6395  0.3533
 8109TIP3    H145742   6.462   2.785  14.113  2.3491 -2.7186  1.2241
 8109TIP3    H245743   6.418   2.711  13.988  0.5251 -1.1902  0.8988
 8110TIP3   OH245744   0.812   5.463  16.910 -0.5471 -0.4844  0.1491
 8110TIP3    H145745   0.857   5.538  16.870  0.5112 -0.8044  0.6762
 8110TIP3    H245746   0.724   5.495  16.930 -0.4116  0.3189 -0.4986
 8111TIP3   OH245747   2.412   6.539   4.834  0.1550  0.1122  0.1457
 8111TIP3    H145748   2.432   6.462   4.781 -1.3339 -1.3712  1.5873
 8111TIP3    H245749   2.486   6.545   4.895 -0.0326 -0.5991  0.4534
 8112TIP3   OH245750   6.568   2.774   3.833 -0.1337  0.0511 -1.0457
 8112TIP3    H145751   6.604   2.855   3.867 -1.1231 -0.0403  0.3056
 8112TIP3    H245752   6.598   2.771   3.742  1.7400  0.8179 -0.5086
 8113TIP3   OH245753   2.795   1.228  10.762  0.4993  1.2211  0.2566
 8113TIP3    H145754   2.759   1.298  10.816  1.7524  2.7912 -0.8561
 8113TIP3    H245755   2.740   1.227  10.684 -0.7432 -0.4314  1.0950
 8114TIP3   OH245756   2.269   2.753   0.771 -0.0427 -0.3650 -0.3299
 8114TIP3    H145757   2.310   2.738   0.857 -0.3832  0.7491  0.0426
 8114TIP3    H245758   2.259   2.666   0.734  2.4119 -0.7154 -0.3272
 8115TIP3   OH245759   5.310   4.108   3.300  0.4992  0.3782  0.3274
 8115TIP3    H145760   5.373   4.154   3.243  2.5833  0.2054  2.3286
 8115TIP3    H245761   5.280   4.175   3.361 -0.8685  0.3084 -0.2333
 8116TIP3   OH245762   2.125   4.422   0.546 -0.5648  0.2158  0.3071
 8116TIP3    H145763   2.094   4.374   0.470 -1.0811  0.5919  0.2737
 8116TIP3    H245764   2.215   4.447   0.524 -0.9316  0.8954 -0.4551
 8117TIP3   OH245765   4.813   3.057  14.694 -0.4473  0.0038 -0.0486
 8117TIP3    H145766   4.761   2.979  14.673  0.8102 -0.7775 -0.3041
 8117TIP3    H245767   4.747   3.121  14.723 -1.5459 -1.0006 -0.2166
 8118TIP3   OH245768   5.962   2.999   4.646 -0.1497 -0.3011 -0.0548
 8118TIP3    H145769   5.981   3.078   4.697  1.6101 -0.5389 -0.2613
 8118TIP3    H245770   5.928   2.937   4.710  1.3458 -0.3484  0.7525
 8119TIP3   OH245771   0.549   6.299  11.514 -0.2630  0.1373 -0.2450
 8119TIP3    H145772   0.549   6.389  11.482  1.9060  0.3627  0.2174
 8119TIP3    H245773   0.458   6.280  11.533 -0.6077  2.8115  1.2121
 8120TIP3   OH245774   1.797   1.079   4.525  0.4028 -0.0345 -0.5714
 8120TIP3    H145775   1.877   1.056   4.477  0.6548  1.6283 -1.0185
 8120TIP3    H245776   1.776   1.167   4.496 -1.2784 -0.2061  0.0023
 8121TIP3   OH245777   1.253   4.931  14.883 -0.4380  0.4101 -0.3078
 8121TIP3    H145778   1.187   4.991  14.847 -0.7216  0.4318  0.2496
 8121TIP3    H245779   1.255   4.951  14.976 -0.8350 -0.7532 -0.0473
 8122TIP3   OH245780   1.357   3.394   5.898  0.7459 -0.4132  0.0162
 8122TIP3    H145781   1.447   3.402   5.866  1.1176  1.2007  1.3194
 8122TIP3    H245782   1.366   3.385   5.993 -0.4771  1.1536  0.3289
 8123TIP3   OH245783   0.021   3.428  13.336  0.4477  0.2808 -0.1886
 8123TIP3    H145784   0.020   3.333  13.327 -1.6603  0.1675  0.7342
 8123TIP3    H245785  -0.013   3.445  13.424  1.0601  1.8982 -0.2215
 8124TIP3   OH245786   2.011   2.132   2.241  0.1371  0.1059  0.2865
 8124TIP3    H145787   2.058   2.072   2.299  0.2780  0.2494  0.3234
 8124TIP3    H245788   2.062   2.132   2.160 -0.9032 -1.2805 -0.4117
 8125TIP3   OH245789   3.238   5.148   2.788 -0.3989  0.0534 -0.0350
 8125TIP3    H145790   3.168   5.201   2.749 -1.2212 -1.0934 -0.1751
 8125TIP3    H245791   3.195   5.066   2.811  0.5516 -0.0706  1.4013
 8126TIP3   OH245792   0.250   1.494   5.071  0.4352 -0.4082  0.7828
 8126TIP3    H145793   0.232   1.578   5.028 -2.2412 -0.5113  1.4960
 8126TIP3    H245794   0.232   1.428   5.003  0.0606 -0.4632  0.9334
 8127TIP3   OH245795   2.725   5.441   0.470  0.2310  0.5930 -0.2134
 8127TIP3    H145796   2.789   5.376   0.440  0.7738  0.9406  0.1642
 8127TIP3    H245797   2.733   5.439   0.565 -1.2238 -0.2480 -0.0784
 8128TIP3   OH245798   6.683   5.305  15.214  0.3053  0.1979 -0.2917
 8128TIP3    H145799   6.693   5.263  15.128  1.9314  0.0458 -0.0581
 8128TIP3    H245800   6.772   5.311  15.249 -0.4377 -1.8096  2.3604
 8129TIP3   OH245801   5.627   2.988  12.947  0.3708 -0.0093 -0.1405
 8129TIP3    H145802   5.643   3.032  12.863 -0.5911  0.3996 -0.1120
 8129TIP3    H245803   5.612   2.896  12.923 -0.0167  0.1277 -0.4203
 8130TIP3   OH245804   0.303   4.932  14.952  0.1047 -0.2272 -0.3605
 8130TIP3    H145805   0.304   4.921  15.048 -0.6640  0.1527 -0.2991
 8130TIP3    H245806   0.229   4.991  14.936  0.1144 -0.4387 -1.2091
 8131TIP3   OH245807   0.819   4.112  11.045  0.2933 -0.0110  0.2022
 8131TIP3    H145808   0.838   4.193  10.997 -3.2403  0.7637 -0.1436
 8131TIP3    H245809   0.850   4.130  11.134  0.9313  1.1153 -0.2181
 8132TIP3   OH245810   5.923   0.394  12.640  0.5517  0.4125  0.0302
 8132TIP3    H145811   5.885   0.473  12.601 -0.6788 -0.2705 -0.2008
 8132TIP3    H245812   5.847   0.343  12.669  1.3583 -0.2655  1.0234
 8133TIP3   OH245813   1.376   2.696   4.259 -0.3159  0.0330  0.6673
 8133TIP3    H145814   1.419   2.632   4.202  1.5102  1.7509  0.0331
 8133TIP3    H245815   1.328   2.753   4.199 -2.7712 -1.2005  1.2908
 8134TIP3   OH245816   2.194   0.382   1.524  0.0406 -0.3735  0.0268
 8134TIP3    H145817   2.123   0.400   1.463 -0.6792  1.6602  1.3756
 8134TIP3    H245818   2.160   0.313   1.581 -0.3954 -0.2517 -0.0834
 8135TIP3   OH245819   1.749   1.814   1.483 -0.2110 -0.4953 -0.2741
 8135TIP3    H145820   1.769   1.778   1.569  0.8043 -1.2394 -0.7963
 8135TIP3    H245821   1.662   1.779   1.462  0.4887 -2.2250 -0.5077
 8136TIP3   OH245822   4.784   5.658   3.647  0.2717  0.4409  0.9109
 8136TIP3    H145823   4.729   5.704   3.710 -0.6952 -0.1998  0.5650
 8136TIP3    H245824   4.865   5.638   3.695 -0.4452 -0.0478  1.9506
 8137TIP3   OH245825   1.007   4.597  11.367  0.4469 -0.0662  0.2937
 8137TIP3    H145826   0.973   4.668  11.421  0.2072  0.4056 -0.4613
 8137TIP3    H245827   0.952   4.598  11.288  0.4130 -1.1171  0.2882
 8138TIP3   OH245828   2.654   2.445  16.828 -0.3646  0.0263 -0.0646
 8138TIP3    H145829   2.666   2.520  16.770  0.5078  0.7856  1.0397
 8138TIP3    H245830   2.648   2.370  16.770 -0.6146  0.8706 -1.1729
 8139TIP3   OH245831   1.939   0.339  11.467  0.3566  0.7325 -0.2031
 8139TIP3    H145832   1.899   0.361  11.383  0.3153  0.3399 -0.2896
 8139TIP3    H245833   1.888   0.265  11.499  0.0280  1.2219  0.4255
 8140TIP3   OH245834   5.407   6.229  15.514  0.6269  0.7932  0.2174
 8140TIP3    H145835   5.386   6.147  15.471 -0.0893  0.2285  1.5839
 8140TIP3    H245836   5.400   6.210  15.608  4.1695  1.4140  0.7592
 8141TIP3   OH245837   2.695   1.901  11.378 -0.4605  0.2122  0.5642
 8141TIP3    H145838   2.647   1.821  11.397 -1.0798  0.5780  0.5765
 8141TIP3    H245839   2.770   1.899  11.438  0.2317 -0.9553 -0.3013
 8142TIP3   OH245840   0.509   5.909  13.293  0.4177 -0.4125 -0.1975
 8142TIP3    H145841   0.486   5.859  13.371 -1.5656 -0.9265 -1.0282
 8142TIP3    H245842   0.574   5.973  13.322 -1.2280  0.3009  2.1892
 8143TIP3   OH245843   6.788   2.414  16.865 -0.1965  0.1451  0.4008
 8143TIP3    H145844   6.812   2.338  16.812  0.4431  1.5468 -1.4085
 8143TIP3    H245845   6.847   2.410  16.940  0.7197 -0.4417 -0.3266
 8144TIP3   OH245846   2.466   4.758   0.387  0.2267 -0.3475  0.0372
 8144TIP3    H145847   2.535   4.815   0.421  0.4325 -0.3703 -0.3347
 8144TIP3    H245848   2.510   4.676   0.366  0.1083 -0.3315 -0.2893
 8145TIP3   OH245849   1.466   2.535   1.828  0.5538  0.3733 -0.2183
 8145TIP3    H145850   1.391   2.561   1.881  0.2942 -1.9604  0.6671
 8145TIP3    H245851   1.436   2.545   1.737 -0.7425 -0.2734  0.1244
 8146TIP3   OH245852   1.135   0.625   0.128 -0.0015  0.0388 -0.3759
 8146TIP3    H145853   1.087   0.551   0.167  1.0652 -0.8328 -0.6597
 8146TIP3    H245854   1.071   0.696   0.123 -1.0985 -0.9209 -0.2431
 8147TIP3   OH245855   4.009   2.031  11.289 -0.7636 -0.2197  0.3820
 8147TIP3    H145856   4.023   2.078  11.207  1.3517 -0.2072  0.6992
 8147TIP3    H245857   3.989   1.941  11.263  1.8567 -0.7042 -0.1922
 8148TIP3   OH245858   5.149   2.899   1.532  0.1710 -0.6201 -0.0897
 8148TIP3    H145859   5.162   2.994   1.534  1.1580 -0.7072 -1.2977
 8148TIP3    H245860   5.200   2.867   1.607 -0.5817 -0.1723  0.6334
 8149TIP3   OH245861   1.433   6.033  15.137 -0.5916  0.3684 -0.5275
 8149TIP3    H145862   1.393   5.974  15.073 -2.1121  2.1514 -1.3177
 8149TIP3    H245863   1.503   6.076  15.089  1.4146 -1.6357  0.4245
 8150TIP3   OH245864   1.663   6.050   4.019 -0.4955 -0.3449 -0.1603
 8150TIP3    H145865   1.690   6.134   4.056 -0.6594 -0.2891 -0.1694
 8150TIP3    H245866   1.680   6.059   3.925 -2.2165  0.3465 -0.4397
 8151TIP3   OH245867   6.649   5.399  15.668  0.1435  0.4284 -0.1677
 8151TIP3    H145868   6.646   5.391  15.764  0.0908  0.0175 -0.2025
 8151TIP3    H245869   6.663   5.309  15.637  1.5067  0.7360 -0.4879
 8152TIP3   OH245870   5.330   3.046  13.010  0.1797 -0.4784  0.0559
 8152TIP3    H145871   5.422   3.027  12.990  0.2178  0.1460 -0.3806
 8152TIP3    H245872   5.281   3.011  12.935  0.1078 -0.3187  0.0289
 8153TIP3   OH245873   3.507   6.662  14.301  0.3826  0.3895 -0.3437
 8153TIP3    H145874   3.599   6.661  14.274  0.2107  0.0349 -0.9131
 8153TIP3    H245875   3.461   6.613  14.234 -0.5792  2.4718 -1.3147
 8154TIP3   OH245876   3.610   1.864  15.369 -0.8283 -0.4024 -0.0102
 8154TIP3    H145877   3.517   1.861  15.391 -0.9609 -0.8267 -0.5995
 8154TIP3    H245878   3.637   1.772  15.365  0.1025 -0.2680  2.1124
 8155TIP3   OH245879   5.573   0.424  10.440  0.2238  0.0527 -0.4683
 8155TIP3    H145880   5.585   0.351  10.501 -0.5898  0.9719  0.8571
 8155TIP3    H245881   5.489   0.407  10.398 -0.5024  0.7522  0.6528
 8156TIP3   OH245882   0.115   5.799   5.152  0.8220 -0.5411  0.1421
 8156TIP3    H145883   0.172   5.819   5.078  0.6333 -0.0631  0.1201
 8156TIP3    H245884   0.168   5.745   5.210  1.3741  0.1090  0.2404
 8157TIP3   OH245885   6.070   3.377  13.085 -0.0479 -0.6666 -0.3932
 8157TIP3    H145886   6.163   3.369  13.062 -0.4745  1.5989 -3.4524
 8157TIP3    H245887   6.027   3.305  13.039 -0.0174 -0.8666 -0.1182
 8158TIP3   OH245888   6.760   5.755   3.501 -0.0228  0.4421  0.5780
 8158TIP3    H145889   6.734   5.672   3.462  0.0936  0.2704  0.8711
 8158TIP3    H245890   6.834   5.734   3.557  0.1556  0.7795  0.4732
 8159TIP3   OH245891   0.659   5.810  13.709  0.0606  0.0189 -0.1538
 8159TIP3    H145892   0.744   5.793  13.668  0.7849  1.7872  0.5074
 8159TIP3    H245893   0.616   5.870  13.649  0.1530  0.7606  0.5095
 8160TIP3   OH245894   1.818   0.849  16.857 -0.1427 -0.7885  0.3477
 8160TIP3    H145895   1.773   0.784  16.912  2.1784 -0.2317  3.1551
 8160TIP3    H245896   1.905   0.812  16.844  0.7825  1.1218  0.8600
 8161TIP3   OH245897   1.858   2.890  15.562 -0.3009  0.1904  0.5258
 8161TIP3    H145898   1.767   2.919  15.563 -0.8583 -1.4357 -0.2431
 8161TIP3    H245899   1.905   2.959  15.514 -1.7168 -0.4549 -1.9488
 8162TIP3   OH245900   3.315   2.936  10.694 -0.6498 -0.9417 -0.3380
 8162TIP3    H145901   3.369   3.015  10.693  0.7060 -1.8483 -0.6335
 8162TIP3    H245902   3.260   2.944  10.616 -0.3437 -0.4126 -0.5090
 8163TIP3   OH245903   2.914   3.097  14.861  0.1945  0.3465  0.1745
 8163TIP3    H145904   2.861   3.177  14.855  0.9216  0.7806 -0.6548
 8163TIP3    H245905   2.887   3.044  14.786 -0.4153 -0.2832  0.8228
 8164TIP3   OH245906   1.849   2.914  13.766 -0.0459 -0.2325 -0.0424
 8164TIP3    H145907   1.795   2.980  13.723 -1.4025 -0.4519  1.2385
 8164TIP3    H245908   1.920   2.964  13.806  0.4891  0.1125 -1.3914
 8165TIP3   OH245909   2.383   3.753   2.669  0.2611 -0.8384 -0.1930
 8165TIP3    H145910   2.325   3.817   2.711  2.5083  1.5006 -0.4107
 8165TIP3    H245911   2.364   3.761   2.576 -0.6964 -1.8169 -0.0919
 8166TIP3   OH245912   6.803   6.438   0.673 -0.6186 -0.1589 -0.4745
 8166TIP3    H145913   6.783   6.531   0.680  1.4941  0.3489 -0.4258
 8166TIP3    H245914   6.897   6.435   0.652 -0.1506 -2.3038  1.5045
 8167TIP3   OH245915   2.674   4.375   3.688  0.0011 -0.0249 -0.0552
 8167TIP3    H145916   2.763   4.342   3.679 -0.0208 -0.0215 -0.2836
 8167TIP3    H245917   2.685   4.465   3.718  0.2086  1.2341 -3.4907
 8168TIP3   OH245918   2.199   3.299  12.796 -0.2117 -0.0080  0.0433
 8168TIP3    H145919   2.124   3.285  12.738 -1.5528  2.3952  1.0548
 8168TIP3    H245920   2.164   3.285  12.884  0.6072  0.8179  0.5155
 8169TIP3   OH245921   2.375   0.719  12.305 -0.3367  0.1056 -0.1233
 8169TIP3    H145922   2.425   0.710  12.386 -1.6588 -2.5503  0.5105
 8169TIP3    H245923   2.435   0.693  12.236  0.0782  0.0344  0.2634
 8170TIP3   OH245924   3.212   5.216  15.499  0.2827  0.1137  0.5758
 8170TIP3    H145925   3.243   5.205  15.409 -0.1249 -0.4185  0.4947
 8170TIP3    H245926   3.202   5.127  15.532 -0.2007  0.2930  0.9259
 8171TIP3   OH245927   5.560   3.894   4.470 -0.1691 -0.1630 -0.4941
 8171TIP3    H145928   5.638   3.941   4.498 -0.5021  0.4839 -0.6366
 8171TIP3    H245929   5.507   3.960   4.424 -1.9796  0.0757  1.7716
 8172TIP3   OH245930   5.456   2.446  12.550  0.0991 -0.1548 -0.0968
 8172TIP3    H145931   5.506   2.486  12.479  1.8626 -0.2223  1.0326
 8172TIP3    H245932   5.423   2.364  12.512 -3.7450  2.2290 -2.4943
 8173TIP3   OH245933   6.464   5.932   5.644 -0.3138 -0.7279  0.1518
 8173TIP3    H145934   6.527   6.000   5.624 -0.3778 -0.8057 -0.3343
 8173TIP3    H245935   6.454   5.935   5.740 -1.8171  1.2974  0.0098
 8174TIP3   OH245936   4.554   1.902  13.280 -0.4149  0.2345  0.4697
 8174TIP3    H145937   4.543   1.988  13.320  1.6829  1.2293 -0.9185
 8174TIP3    H245938   4.499   1.905  13.201 -1.4260 -0.2463  1.1383
 8175TIP3   OH245939   6.749   2.152  11.318  0.3141 -0.3589 -0.2823
 8175TIP3    H145940   6.818   2.176  11.379 -0.5389 -0.4711  0.7532
 8175TIP3    H245941   6.786   2.079  11.268  1.1330 -0.0720 -0.1077
 8176TIP3   OH245942   0.470   4.134   3.031  0.6575  0.0537 -0.3118
 8176TIP3    H145943   0.378   4.133   3.060  0.8282  2.7077  0.5661
 8176TIP3    H245944   0.479   4.054   2.979 -1.5510 -1.3912  1.3319
 8177TIP3   OH245945   5.263   4.450  14.989 -0.5650 -0.1085  0.3778
 8177TIP3    H145946   5.293   4.393  14.917  0.2760 -0.9269  1.3519
 8177TIP3    H245947   5.249   4.535  14.947 -1.7258 -0.9626 -1.0923
 8178TIP3   OH245948   0.539   4.559  13.411 -0.1411  0.0012  0.9158
 8178TIP3    H145949   0.531   4.536  13.318 -0.7703 -0.6936  1.1357
 8178TIP3    H245950   0.573   4.648  13.410 -1.9182  0.7144 -0.0100
 8179TIP3   OH245951   6.442   1.898   2.793  0.0034  0.1863 -0.3152
 8179TIP3    H145952   6.413   1.817   2.835 -2.6321  1.7798  1.1945
 8179TIP3    H245953   6.532   1.879   2.765 -0.9871 -3.7769 -1.5290
 8180TIP3   OH245954   4.558   2.673  11.687  0.1486 -0.2595 -0.3790
 8180TIP3    H145955   4.520   2.615  11.621  0.2663 -0.8820  0.0946
 8180TIP3    H245956   4.544   2.761  11.652 -2.0433 -0.4268 -0.0928
 8181TIP3   OH245957   5.828   3.015   3.113 -0.2214 -0.1361  0.3129
 8181TIP3    H145958   5.748   2.976   3.077 -0.9759  0.7922  0.9325
 8181TIP3    H245959   5.809   3.109   3.117  0.8017  0.0681  0.7398
 8182TIP3   OH245960   6.246   6.745  15.080  0.2421 -0.1189  0.1292
 8182TIP3    H145961   6.186   6.776  15.148 -0.3686 -0.5205 -0.2165
 8182TIP3    H245962   6.322   6.712  15.128 -0.3001 -0.6536  0.6304
 8183TIP3   OH245963   1.073   3.543  15.565 -0.2837 -0.1654 -0.0553
 8183TIP3    H145964   1.129   3.502  15.630  0.1232  0.3296 -0.0855
 8183TIP3    H245965   1.134   3.586  15.504 -0.6827  0.1406 -0.2492
 8184TIP3   OH245966   6.536   2.904  14.795 -0.0440 -0.3147 -0.7743
 8184TIP3    H145967   6.465   2.868  14.847  1.3078 -1.5987  0.2934
 8184TIP3    H245968   6.540   2.997  14.819 -0.2459 -0.6170  0.4983
 8185TIP3   OH245969   4.924   4.479   0.661  0.1408 -0.2867 -0.3248
 8185TIP3    H145970   4.908   4.385   0.666 -0.1398 -0.2753 -0.9281
 8185TIP3    H245971   4.922   4.499   0.567 -1.4300  0.6006 -0.1326
 8186TIP3   OH245972   4.736   1.270  16.041 -0.1923 -0.2319  0.3104
 8186TIP3    H145973   4.670   1.325  15.999 -1.7650 -3.2810 -1.4794
 8186TIP3    H245974   4.808   1.268  15.979  0.1550  0.2934  0.6850
 8187TIP3   OH245975   2.326   6.365   5.125 -0.2447 -0.2495  0.3438
 8187TIP3    H145976   2.419   6.342   5.116 -0.1481  0.2109  0.1287
 8187TIP3    H245977   2.320   6.406   5.211 -0.0092  0.8223 -0.1335
 8188TIP3   OH245978   4.961   1.663   1.232  0.9710  0.2669 -0.4355
 8188TIP3    H145979   5.021   1.622   1.171  0.4247 -2.2375  0.6099
 8188TIP3    H245980   5.009   1.667   1.315 -0.1123 -1.4834  0.3291
 8189TIP3   OH245981   4.318   2.694   1.220  0.1164  0.8002  0.0691
 8189TIP3    H145982   4.309   2.672   1.128 -1.1589  0.2176  0.3140
 8189TIP3    H245983   4.401   2.655   1.247  1.8968  3.2714 -1.4530
 8190TIP3   OH245984   4.742   5.558  16.497  0.2830 -0.4387 -0.3506
 8190TIP3    H145985   4.782   5.614  16.431 -0.5337 -1.4028 -1.7117
 8190TIP3    H245986   4.811   5.545  16.562  2.0798 -1.6611 -2.3696
 8191TIP3   OH245987   3.511   1.341  17.041 -0.1923  0.0717  0.1465
 8191TIP3    H145988   3.462   1.415  17.078 -0.2739  0.2527 -0.3131
 8191TIP3    H245989   3.584   1.381  16.994 -0.3671 -0.1246 -0.2995
 8192TIP3   OH245990   0.683   1.342   2.831 -0.2221  0.6999 -0.4431
 8192TIP3    H145991   0.606   1.320   2.883 -0.9094  1.2071 -1.2199
 8192TIP3    H245992   0.755   1.295   2.873 -0.5884  1.7509  1.4661
 8193TIP3   OH245993   0.362   4.823   2.113  0.3816 -0.1595 -0.5006
 8193TIP3    H145994   0.456   4.827   2.131  0.2774 -0.5760  0.1742
 8193TIP3    H245995   0.327   4.905   2.148  0.5476  0.1931 -1.1414
 8194TIP3   OH245996   2.112   1.266  14.947 -0.5163 -0.2200 -0.1493
 8194TIP3    H145997   2.087   1.174  14.945  0.7999 -0.5952 -1.2386
 8194TIP3    H245998   2.076   1.299  15.030 -2.6625 -1.1941 -0.6250
 8195TIP3   OH245999   1.964   3.077  10.173  0.1537 -0.2864 -0.1943
 8195TIP3    H146000   1.875   3.111  10.187  0.4639 -0.0449  1.4213
 8195TIP3    H246001   1.951   2.984  10.153 -0.5142 -0.0015 -1.1406
 8196TIP3   OH246002   1.471   1.261  10.626 -0.4832 -0.1393 -0.7351
 8196TIP3    H146003   1.448   1.312  10.703  0.5219 -1.4771  0.5258
 8196TIP3    H246004   1.402   1.194  10.620 -0.7651  0.1929 -1.2330
 8197TIP3   OH246005   3.941   5.608   4.206  0.5562 -0.1272  0.7767
 8197TIP3    H146006   3.935   5.532   4.148  0.3864 -0.5848  1.3740
 8197TIP3    H246007   3.986   5.675   4.155  1.9781 -1.1007  0.6943
 8198TIP3   OH246008   2.994   0.960  13.293 -0.0258  0.1688 -0.1319
 8198TIP3    H146009   3.002   1.055  13.301 -3.2766  0.5561 -0.2072
 8198TIP3    H246010   2.979   0.945  13.200 -0.8506 -0.2442  0.0556
 8199TIP3   OH246011   3.719   1.774   1.659  0.2339  0.0429  0.6798
 8199TIP3    H146012   3.790   1.713   1.678  1.6000  1.4256  0.2284
 8199TIP3    H246013   3.673   1.735   1.585  0.9452 -0.5530  0.5363
 8200TIP3   OH246014   1.629   4.998  10.894  0.4487 -0.0101  0.3681
 8200TIP3    H146015   1.608   4.914  10.853 -0.8493 -1.1199  3.0807
 8200TIP3    H246016   1.558   5.056  10.866 -0.4108 -0.7451  0.9789
 8201TIP3   OH246017   5.785   3.964  15.604 -0.3947  0.3115 -0.5968
 8201TIP3    H146018   5.849   4.028  15.633  1.6662 -1.2574 -1.4150
 8201TIP3    H246019   5.739   4.006  15.531 -0.2645  1.4399 -0.0400
 8202TIP3   OH246020   3.520   4.634   4.998  0.2730  0.6808  0.2716
 8202TIP3    H146021   3.428   4.630   5.023  0.3854  0.1437  0.6268
 8202TIP3    H246022   3.568   4.609   5.077  0.7622  1.7089  0.3118
 8203TIP3   OH246023   4.623   3.899  15.217 -1.0411 -0.3301 -0.5022
 8203TIP3    H146024   4.542   3.950  15.216 -1.0235 -0.2913 -0.1401
 8203TIP3    H246025   4.606   3.829  15.280  0.0022  1.0050  1.3456
 8204TIP3   OH246026   2.895   6.628  15.865 -1.0223 -0.0629  0.3600
 8204TIP3    H146027   2.965   6.646  15.928 -2.3087  3.5083  0.9907
 8204TIP3    H246028   2.941   6.594  15.788  0.8185 -2.3853  2.2944
 8205TIP3   OH246029   6.343   4.718   4.025 -0.3321  0.1205  0.4541
 8205TIP3    H146030   6.319   4.645   3.968  1.1311  1.6346 -2.3283
 8205TIP3    H246031   6.291   4.792   3.992  0.6481  1.0724  0.9896
 8206TIP3   OH246032   4.499   0.222  12.653  0.4815  0.0674 -0.2612
 8206TIP3    H146033   4.587   0.245  12.683  1.0435 -0.9259 -1.0621
 8206TIP3    H246034   4.458   0.306  12.632  1.0580  0.5741  0.5910
 8207TIP3   OH246035   1.657   4.603  13.161 -0.1109  0.6606 -0.1744
 8207TIP3    H146036   1.666   4.629  13.069 -1.9385  0.9710 -0.2886
 8207TIP3    H246037   1.681   4.511  13.163 -0.0654  0.6545 -0.9535
 8208TIP3   OH246038   0.074   4.864   3.672 -0.4393  0.7569  0.1554
 8208TIP3    H146039  -0.010   4.854   3.627 -0.3729  1.8415 -0.2252
 8208TIP3    H246040   0.118   4.780   3.658 -1.0222  0.5554 -0.5612
 8209TIP3   OH246041   2.990   6.277  12.011 -1.3594  0.1785 -0.0813
 8209TIP3    H146042   3.085   6.287  12.006 -1.1988 -1.0707  0.1229
 8209TIP3    H246043   2.956   6.355  11.969 -0.2245 -0.4288 -2.2921
 8210TIP3   OH246044   3.763   1.954   3.947  0.7816 -0.0479 -0.3420
 8210TIP3    H146045   3.806   1.943   3.862  2.1379  0.4176  0.2576
 8210TIP3    H246046   3.835   1.965   4.009 -0.2024  0.2224  0.7861
 8211TIP3   OH246047   3.869   4.182   2.542 -0.1741 -0.8586 -0.0644
 8211TIP3    H146048   3.777   4.209   2.548 -0.5324 -1.9937 -0.2728
 8211TIP3    H246049   3.901   4.223   2.462 -0.7519 -1.1636 -0.4566
 8212TIP3   OH246050   5.288   0.564  16.536 -0.5842  0.3555 -0.5572
 8212TIP3    H146051   5.245   0.642  16.503  0.8052  1.1578 -0.5369
 8212TIP3    H246052   5.330   0.525  16.460 -1.4055 -0.4750 -0.5973
 8213TIP3   OH246053   3.684   4.863   4.573 -0.1074 -0.4416  0.1291
 8213TIP3    H146054   3.734   4.937   4.538 -2.2878 -0.7733 -4.4537
 8213TIP3    H246055   3.744   4.789   4.568  0.8416  0.2485  0.9100
 8214TIP3   OH246056   3.621   6.653  11.233  0.0957 -0.6570  0.0360
 8214TIP3    H146057   3.570   6.709  11.292  1.6580  0.7102  0.1525
 8214TIP3    H246058   3.567   6.646  11.154 -1.0486 -0.7134  0.8014
 8215TIP3   OH246059   3.494   2.934  14.345  0.6423 -0.1260 -0.2106
 8215TIP3    H146060   3.464   3.012  14.391  1.4733 -0.6410  1.2776
 8215TIP3    H246061   3.570   2.964  14.295  1.5312 -0.1272  1.0804
 8216TIP3   OH246062   5.603   0.109   2.026 -0.5217  0.1640  0.1983
 8216TIP3    H146063   5.672   0.080   1.966  1.8909  3.7087  0.8684
 8216TIP3    H246064   5.632   0.079   2.112 -1.4920 -0.9314  0.1588
 8217TIP3   OH246065   6.094   4.531   0.623  0.0611  0.0511  0.0377
 8217TIP3    H146066   6.130   4.574   0.700  0.5475 -1.4790  0.7013
 8217TIP3    H246067   6.171   4.512   0.568 -0.0180 -0.8390  0.2207
 8218TIP3   OH246068   6.027   2.258   2.181  0.8449  0.0575  0.0021
 8218TIP3    H146069   5.996   2.275   2.270  1.0082 -2.0733  0.5157
 8218TIP3    H246070   6.028   2.162   2.174 -2.0076  0.0848 -3.3040
 8219TIP3   OH246071   0.852   1.895   1.130 -0.4886 -0.7077 -0.2219
 8219TIP3    H146072   0.767   1.933   1.107 -0.8542 -1.7798 -0.7027
 8219TIP3    H246073   0.912   1.927   1.063  0.1224  2.1437  1.5188
 8220TIP3   OH246074   5.434   2.914   4.901  0.0598  0.0480  0.4566
 8220TIP3    H146075   5.402   2.938   4.814  0.1820  1.4942  0.7920
 8220TIP3    H246076   5.358   2.924   4.959  0.6003  1.6515  0.9352
 8221TIP3   OH246077   2.707   3.398  13.647 -0.0729 -0.0560 -0.0074
 8221TIP3    H146078   2.667   3.365  13.566 -0.4170  0.1259  0.0865
 8221TIP3    H246079   2.767   3.467  13.617  0.4551 -0.5784 -0.1809
 8222TIP3   OH246080   4.792   3.554  16.169  0.0409  0.1172  0.0244
 8222TIP3    H146081   4.844   3.482  16.135  0.7505  0.6002  0.0612
 8222TIP3    H246082   4.722   3.567  16.105 -0.9041 -1.4768  0.6856
 8223TIP3   OH246083   6.800   3.067  10.664  0.1458  0.0285 -0.2636
 8223TIP3    H146084   6.754   3.138  10.620 -0.9752 -0.8346 -0.5435
 8223TIP3    H246085   6.870   3.042  10.604 -1.4212 -1.2021 -1.6777
 8224TIP3   OH246086   1.208   2.854  12.041  0.2241 -0.4795  0.1763
 8224TIP3    H146087   1.222   2.805  12.122 -1.4241  0.0894  0.8616
 8224TIP3    H246088   1.140   2.805  11.995 -0.0868  0.1271 -0.0245
 8225TIP3   OH246089   5.919   1.386  15.098 -0.1828  0.5253  0.1636
 8225TIP3    H146090   6.011   1.389  15.070 -0.0989 -0.0608  0.3568
 8225TIP3    H246091   5.921   1.333  15.178 -0.3206  2.6287  1.6622
 8226TIP3   OH246092   4.049   0.219   3.741 -0.5818 -0.4025  0.7100
 8226TIP3    H146093   3.968   0.265   3.759  1.9598  3.5774  3.6713
 8226TIP3    H246094   4.087   0.265   3.666 -0.8041 -2.0431 -0.4692
 8227TIP3   OH246095   2.099   6.712   0.780 -0.7424 -0.1804  0.1014
 8227TIP3    H146096   2.122   6.733   0.690 -0.6308 -0.3071  0.1005
 8227TIP3    H246097   2.020   6.763   0.797  0.3135  1.3713  0.5631
 8228TIP3   OH246098   5.957   1.146  11.057  0.5535 -0.3170  0.4007
 8228TIP3    H146099   5.963   1.178  10.967  1.6586  0.0451  0.5875
 8228TIP3    H246100   6.035   1.181  11.100 -1.2510  1.7803  2.2091
 8229TIP3   OH246101   3.840   2.129  13.218  0.0699 -0.0108  0.1025
 8229TIP3    H146102   3.809   2.055  13.166 -0.6729 -0.2995  0.9310
 8229TIP3    H246103   3.772   2.195  13.209  0.8825  0.7422 -0.9071
 8230TIP3   OH246104   2.646   5.460  13.339 -0.1987  0.2043  0.0700
 8230TIP3    H146105   2.685   5.419  13.262  2.3908 -0.6354  1.7050
 8230TIP3    H246106   2.654   5.394  13.408  1.3235  2.2970  2.0538
 8231TIP3   OH246107   2.047   2.231  11.598 -0.1314 -0.2351  0.1114
 8231TIP3    H146108   2.077   2.309  11.644  1.6444  0.1890 -1.6410
 8231TIP3    H246109   2.120   2.170  11.602 -0.8758 -1.1732  0.0044
 8232TIP3   OH246110   2.932   4.258  16.825  0.4513 -0.8515 -0.4185
 8232TIP3    H146111   2.885   4.220  16.751  1.1085  0.3074 -1.4669
 8232TIP3    H246112   2.967   4.340  16.792 -0.0624  0.2031  1.4686
 8233TIP3   OH246113   1.273   4.967   3.745 -0.0399  0.1802 -0.3459
 8233TIP3    H146114   1.228   4.912   3.810 -2.3363  1.5442 -0.6510
 8233TIP3    H246115   1.337   4.909   3.705 -0.1640 -1.3574  1.5086
 8234TIP3   OH246116   0.941   3.192   2.031 -0.6952 -0.0386 -0.0158
 8234TIP3    H146117   1.032   3.211   2.053 -0.1064 -0.7544 -1.6659
 8234TIP3    H246118   0.923   3.247   1.954 -1.4509 -0.3795 -0.0900
 8235TIP3   OH246119   2.638   2.139  10.774 -0.1806 -0.1142 -0.2841
 8235TIP3    H146120   2.728   2.107  10.786 -0.2326  0.3778  1.9532
 8235TIP3    H246121   2.641   2.187  10.692  1.1507 -1.5388 -1.1475
 8236TIP3   OH246122   1.172   4.362  10.411 -0.0624 -0.0523 -0.8222
 8236TIP3    H146123   1.169   4.342  10.504  0.0204  0.3874 -0.7243
 8236TIP3    H246124   1.116   4.439  10.401  1.6547  1.2693 -0.7751
 8237TIP3   OH246125   1.023   0.286  16.449 -0.1667 -0.2143  0.1513
 8237TIP3    H146126   0.952   0.283  16.385 -0.3537  0.8695  0.2843
 8237TIP3    H246127   0.979   0.276  16.534 -0.2251  0.8470  0.2591
 8238TIP3   OH246128   6.261   6.461   6.403  0.1292 -0.6151 -0.1449
 8238TIP3    H146129   6.347   6.422   6.420  0.6306  0.9585  1.1022
 8238TIP3    H246130   6.242   6.437   6.312  1.5328 -1.6414 -0.1954
 8239TIP3   OH246131   0.533   3.506  14.641 -0.1338  0.2490  0.2806
 8239TIP3    H146132   0.487   3.487  14.559 -2.8590  2.2674  1.1932
 8239TIP3    H246133   0.525   3.425  14.692 -2.9424  0.4875  0.4077
 8240TIP3   OH246134   2.284   1.737  11.001  0.2793 -0.5138  0.1789
 8240TIP3    H146135   2.208   1.697  10.957  0.4515 -1.7502  0.9566
 8240TIP3    H246136   2.360   1.705  10.952  0.3482  0.0730 -0.1040
 8241TIP3   OH246137   3.122   0.880   6.377 -0.2278  0.0691 -0.0820
 8241TIP3    H146138   3.047   0.826   6.403 -0.2032 -0.6898 -1.4806
 8241TIP3    H246139   3.160   0.910   6.459 -0.5372 -1.6544  0.7305
 8242TIP3   OH246140   1.070   2.586  11.128  0.1486  0.2696  0.0824
 8242TIP3    H146141   1.147   2.539  11.099  0.1330 -0.5808  1.3524
 8242TIP3    H246142   1.035   2.534  11.200 -1.5490  0.6933 -0.3879
 8243TIP3   OH246143   2.686   1.586   1.505 -0.0022  0.7258  0.2404
 8243TIP3    H146144   2.716   1.677   1.512  0.6810  0.4204  1.6276
 8243TIP3    H246145   2.708   1.561   1.415  0.3087  1.7574  0.0106
 8244TIP3   OH246146   1.160   0.296  12.321  0.2927 -0.5888  0.2018
 8244TIP3    H146147   1.083   0.349  12.302  1.6792  1.1539 -0.7370
 8244TIP3    H246148   1.127   0.206  12.322 -1.5636  0.0269 -1.1585
 8245TIP3   OH246149   2.469   0.039  13.810  0.3210  0.2585 -0.0631
 8245TIP3    H146150   2.456   0.041  13.715 -0.5055  0.5269  0.0532
 8245TIP3    H246151   2.514   0.122  13.829  1.3367 -0.2104 -0.3281
 8246TIP3   OH246152   3.159   0.633  11.718  0.3042 -0.1496  0.0889
 8246TIP3    H146153   3.132   0.543  11.706 -0.7626  0.4150 -2.3953
 8246TIP3    H246154   3.079   0.679  11.743  0.2333  0.4877 -1.2016
 8247TIP3   OH246155   2.502   6.075   0.855 -0.0536 -0.2291 -0.4085
 8247TIP3    H146156   2.578   6.051   0.803 -0.6560 -0.3391 -1.2532
 8247TIP3    H246157   2.539   6.118   0.932  0.8509  0.0317 -0.9716
 8248TIP3   OH246158   3.360   3.817   2.995  0.0312  0.1833 -0.7955
 8248TIP3    H146159   3.314   3.901   2.997 -0.8073 -0.2681  0.6477
 8248TIP3    H246160   3.389   3.804   3.085 -2.3345 -2.3433 -0.2525
 8249TIP3   OH246161   3.445   0.039  14.563 -0.2692 -0.4120 -0.2955
 8249TIP3    H146162   3.405   0.057  14.649  0.7111  1.2179 -0.1340
 8249TIP3    H246163   3.499  -0.038  14.578 -0.4459 -0.4045  0.4581
 8250TIP3   OH246164   3.940   2.744  13.703 -0.3006 -0.3498 -0.1826
 8250TIP3    H146165   3.854   2.748  13.744  0.5462  0.2944  1.7048
 8250TIP3    H246166   3.928   2.694  13.623 -2.5941  0.5357 -0.4547
 8251TIP3   OH246167   4.257   6.565  16.316 -0.0180  0.4646 -0.6401
 8251TIP3    H146168   4.202   6.632  16.276 -1.8547 -0.0498  0.8949
 8251TIP3    H246169   4.345   6.585  16.284 -0.5507  3.3613 -0.5847
 8252TIP3   OH246170   3.225   1.139  11.110  0.2447  0.4748  0.1991
 8252TIP3    H146171   3.219   1.232  11.090  0.1010 -0.0573 -2.6414
 8252TIP3    H246172   3.160   1.124  11.178 -0.1422  2.3191  0.2778
 8253TIP3   OH246173   1.210   3.976  16.371  0.4254 -0.5476  0.0683
 8253TIP3    H146174   1.298   3.978  16.332  0.4472  0.2057  0.1419
 8253TIP3    H246175   1.167   4.054  16.336 -0.3060 -1.0579 -0.1724
 8254TIP3   OH246176   3.638   4.455   1.700  0.3085 -0.2313 -0.1453
 8254TIP3    H146177   3.601   4.368   1.719  1.0141 -1.1415 -2.6066
 8254TIP3    H246178   3.697   4.471   1.774  1.3350 -2.6078 -0.3273
 8255TIP3   OH246179   1.435   4.757   2.856  0.1094  0.0009 -0.4956
 8255TIP3    H146180   1.445   4.850   2.875 -0.7073  0.1497 -0.7580
 8255TIP3    H246181   1.520   4.718   2.879 -0.1269  0.5043  1.4057
 8256TIP3   OH246182   0.090   2.634   5.318  0.1961  0.1756 -0.5386
 8256TIP3    H146183   0.154   2.573   5.355 -0.2605 -0.2276 -0.4150
 8256TIP3    H246184   0.016   2.630   5.378  0.8338  2.1803  0.4700
 8257TIP3   OH246185   6.058   2.693   4.387 -0.0388  0.2974 -0.0286
 8257TIP3    H146186   6.043   2.686   4.481 -0.6671 -0.6631 -0.1786
 8257TIP3    H246187   5.998   2.628   4.349 -0.3134  1.1744 -1.1350
 8258TIP3   OH246188   5.558   0.097  16.361 -0.2025 -0.8422  0.0722
 8258TIP3    H146189   5.563   0.186  16.328  0.1810 -0.5612  0.8441
 8258TIP3    H246190   5.464   0.078  16.364 -0.2501 -0.8254 -0.9985
 8259TIP3   OH246191   6.081   3.651  13.125 -0.1883 -0.3293 -0.2478
 8259TIP3    H146192   6.177   3.650  13.133  0.2378 -1.9652 -3.6312
 8259TIP3    H246193   6.057   3.559  13.119 -2.3425 -0.0689  2.6924
 8260TIP3   OH246194   1.913   2.546   4.901  0.2810 -0.0124  0.0955
 8260TIP3    H146195   1.885   2.583   4.817 -1.2546 -0.1937  0.4926
 8260TIP3    H246196   1.903   2.617   4.964 -1.2875 -0.6273  0.6007
 8261TIP3   OH246197   3.733   5.222  11.561 -0.0888 -0.2588 -0.4923
 8261TIP3    H146198   3.698   5.239  11.648  0.7442 -3.6702  0.7033
 8261TIP3    H246199   3.774   5.304  11.535 -0.6292  0.9937  2.2071
 8262TIP3   OH246200   1.040   3.162  13.553  0.0021  0.2020 -0.3822
 8262TIP3    H146201   1.009   3.137  13.466 -2.2355  1.2126  0.0478
 8262TIP3    H246202   0.965   3.147  13.611  1.2141  0.1961  1.2787
 8263TIP3   OH246203   2.834   6.154  11.662  0.1794 -0.2913 -0.4170
 8263TIP3    H146204   2.805   6.158  11.571  2.9241 -0.2668 -1.3978
 8263TIP3    H246205   2.905   6.090  11.661  2.1109  1.6860  1.1149
 8264TIP3   OH246206   6.640   3.204   0.028  0.5476 -0.3592 -0.1649
 8264TIP3    H146207   6.719   3.211  -0.025  0.4209 -0.1079 -0.3245
 8264TIP3    H246208   6.669   3.217   0.118  0.7152 -0.4618 -0.2031
 8265TIP3   OH246209   6.012   1.024   2.453  0.2834 -0.4866  0.2927
 8265TIP3    H146210   6.001   1.119   2.446  1.2018 -0.2342  1.9112
 8265TIP3    H246211   5.943   0.988   2.397 -1.3185  1.1112  1.1535
 8266TIP3   OH246212   5.242   6.533  14.502  0.1223  0.3365  0.4209
 8266TIP3    H146213   5.225   6.624  14.527  0.4527  0.2793  0.8705
 8266TIP3    H246214   5.273   6.491  14.583  0.7966  0.0345  0.0115
 8267TIP3   OH246215   3.140   2.290   0.499  0.3352  0.4068  0.2319
 8267TIP3    H146216   3.113   2.244   0.420  0.9682  1.2682 -0.5138
 8267TIP3    H246217   3.145   2.222   0.566  0.3135 -0.4352 -0.5938
 8268TIP3   OH246218   0.897   2.834   5.253  0.7858  0.0839  0.5908
 8268TIP3    H146219   0.832   2.856   5.186 -0.2391 -2.4410  0.6635
 8268TIP3    H246220   0.866   2.878   5.332 -0.5229 -0.5590  0.4682
 8269TIP3   OH246221   1.399   4.054  16.199 -0.1865 -0.1909  0.3808
 8269TIP3    H146222   1.493   4.066  16.189 -0.1907 -0.8628 -0.7043
 8269TIP3    H246223   1.360   4.104  16.127 -0.7034  0.4932  1.1134
 8270TIP3   OH246224   1.223   4.928   4.889 -0.8355 -0.0104 -0.2555
 8270TIP3    H146225   1.235   4.894   4.801  0.1705 -3.0544  0.9115
 8270TIP3    H246226   1.216   4.850   4.944  0.1358  1.7288  2.5564
 8271TIP3   OH246227   3.997   2.791   5.599 -0.7229 -0.0218  0.1878
 8271TIP3    H146228   4.054   2.790   5.522 -2.5878 -0.0094 -1.2742
 8271TIP3    H246229   3.989   2.699   5.624 -0.6066 -0.0916 -0.0280
 8272TIP3   OH246230   0.425   1.572   1.727 -0.0887  0.0523 -0.3687
 8272TIP3    H146231   0.503   1.612   1.689  0.2276  0.7540  0.9659
 8272TIP3    H246232   0.371   1.645   1.754 -0.1317 -0.3960  0.8430
 8273TIP3   OH246233   4.903   2.332  11.738 -0.5931  0.8253  0.5802
 8273TIP3    H146234   4.960   2.287  11.800  0.2247  0.3481 -0.4910
 8273TIP3    H246235   4.881   2.414  11.781 -0.8841  0.0725  1.9277
 8274TIP3   OH246236   3.079   4.232  15.265  0.2457  0.1712  0.2912
 8274TIP3    H146237   3.077   4.138  15.251  0.1214  0.3129 -0.7672
 8274TIP3    H246238   3.001   4.251  15.317 -0.0306 -0.2493  0.0358
 8275TIP3   OH246239   6.700   0.476  12.648  0.1154 -0.4899 -0.5068
 8275TIP3    H146240   6.638   0.549  12.649 -1.2831 -1.6066  1.1585
 8275TIP3    H246241   6.644   0.398  12.642  1.5026 -1.4697 -1.0860
 8276TIP3   OH246242   5.141   4.361  10.992  0.2303  0.0185 -0.2572
 8276TIP3    H146243   5.233   4.359  11.018  1.1086 -1.2843 -3.0643
 8276TIP3    H246244   5.116   4.454  10.997  2.4993  0.7886 -1.8379
 8277TIP3   OH246245   1.961   2.804  15.212  0.0354  0.3906  0.1881
 8277TIP3    H146246   2.053   2.826  15.197  0.6253 -0.1210  2.6878
 8277TIP3    H246247   1.924   2.883  15.250  0.0542 -0.1565  1.3683
 8278TIP3   OH246248   5.347   6.189  12.086 -0.1348 -0.7707  0.2555
 8278TIP3    H146249   5.430   6.236  12.084 -1.3207  1.8309  3.4168
 8278TIP3    H246250   5.366   6.105  12.043  3.8909 -0.0686  0.2588
 8279TIP3   OH246251   0.841   6.463   1.735  0.4736  0.3457  0.5850
 8279TIP3    H146252   0.874   6.374   1.745 -1.5369 -0.5034  0.0500
 8279TIP3    H246253   0.777   6.473   1.806  0.1396  1.1047  0.1880
 8280TIP3   OH246254   1.668   0.534  16.403  0.0266  0.4312  0.0147
 8280TIP3    H146255   1.619   0.584  16.337  1.3681  0.0204 -1.3764
 8280TIP3    H246256   1.755   0.573  16.402  0.7774 -1.1383 -0.2776
 8281TIP3   OH246257   5.815   4.329  11.180  0.1111 -0.2461  0.2087
 8281TIP3    H146258   5.866   4.290  11.251 -0.9273 -0.1816  1.0182
 8281TIP3    H246259   5.757   4.259  11.150 -0.0947 -0.0101  0.0457
 8282TIP3   OH246260   5.361   0.559   2.058 -0.0958 -0.2857  0.0931
 8282TIP3    H146261   5.390   0.554   2.149 -1.4066 -2.2092  0.4538
 8282TIP3    H246262   5.302   0.485   2.047 -1.0812  0.7175 -1.9486
 8283TIP3   OH246263   0.729   4.392   3.599 -0.0870 -0.8180  0.5123
 8283TIP3    H146264   0.766   4.456   3.538 -0.1649  0.6697  1.9303
 8283TIP3    H246265   0.753   4.426   3.685 -0.1575 -2.7320  1.3198
 8284TIP3   OH246266   3.229   4.528   1.115 -0.5765  0.3522  0.0083
 8284TIP3    H146267   3.269   4.546   1.031 -1.2730  0.6042 -0.2758
 8284TIP3    H246268   3.225   4.613   1.159  0.0695  0.1746  0.4319
 8285TIP3   OH246269   2.548   0.032   3.580  0.4881 -0.4869 -0.3283
 8285TIP3    H146270   2.521   0.122   3.567  3.2076  0.3637 -0.7841
 8285TIP3    H246271   2.539  -0.009   3.493 -2.6771 -1.3657  0.2742
 8286TIP3   OH246272   4.887   0.618  10.923  0.2941 -0.8977  0.2767
 8286TIP3    H146273   4.928   0.628  11.009  0.2003  2.0444  0.0841
 8286TIP3    H246274   4.946   0.665  10.863 -0.8442 -0.8616 -0.8462
 8287TIP3   OH246275   0.606   2.213  12.709  0.4381  1.0651  0.3225
 8287TIP3    H146276   0.566   2.239  12.626 -0.4605  0.7705  0.6494
 8287TIP3    H246277   0.667   2.144  12.685  1.5198  2.2034 -0.3181
 8288TIP3   OH246278   1.270   0.365  11.745  0.3783  0.2474  0.4421
 8288TIP3    H146279   1.176   0.349  11.756  0.2890  0.2326 -0.3076
 8288TIP3    H246280   1.276   0.457  11.720  0.5608  0.2462  0.4811
 8289TIP3   OH246281   5.796   4.412  12.363 -0.2295 -0.0132  0.5302
 8289TIP3    H146282   5.744   4.492  12.374 -0.1316 -0.1498  2.3325
 8289TIP3    H246283   5.802   4.375  12.451  3.3146  0.2331  0.5401
 8290TIP3   OH246284   4.707   2.193  14.980 -0.0031  0.0878 -0.4589
 8290TIP3    H146285   4.784   2.248  14.997  1.0197 -1.8118  1.5740
 8290TIP3    H246286   4.722   2.157  14.893  2.1535 -1.2549  0.3905
 8291TIP3   OH246287   2.458   6.647   3.743 -0.7193  0.3029 -0.0539
 8291TIP3    H146288   2.504   6.673   3.822 -1.6752 -1.6418  1.2243
 8291TIP3    H246289   2.474   6.718   3.681 -1.2456  2.6454  2.3569
 8292TIP3   OH246290   3.131   0.870  11.559 -0.0146 -0.3698 -0.6325
 8292TIP3    H146291   3.204   0.862  11.620  0.6519 -0.7117 -1.4436
 8292TIP3    H246292   3.062   0.814  11.595  0.1997 -0.2060  0.0351
 8293TIP3   OH246293   5.012   5.809  16.845  0.7013  0.0116 -0.3346
 8293TIP3    H146294   5.028   5.789  16.753  0.2952 -1.3010 -0.1516
 8293TIP3    H246295   5.070   5.750  16.893  1.4895  1.2424  0.2572
 8294TIP3   OH246296   2.261   2.103  16.976  0.1640  0.2537  0.3334
 8294TIP3    H146297   2.292   2.073  17.062  0.4584 -3.4676 -0.8711
 8294TIP3    H246298   2.270   2.198  16.979  1.6788  0.1619  3.8165
 8295TIP3   OH246299   5.518   4.957   2.533  0.1741 -0.0443  0.4462
 8295TIP3    H146300   5.569   5.023   2.487  2.2457  0.9003  3.7857
 8295TIP3    H246301   5.435   5.000   2.553  1.0952  1.2567  1.6639
 8296TIP3   OH246302   6.449   5.739   4.060  0.1546  0.3542 -0.6010
 8296TIP3    H146303   6.498   5.777   4.132 -1.8545  0.5110  0.7448
 8296TIP3    H246304   6.439   5.811   3.997 -0.8259  1.1868  0.4577
 8297TIP3   OH246305   2.669   1.057   4.971  0.6174 -0.0476  0.2538
 8297TIP3    H146306   2.602   1.034   5.035 -0.3001  1.1680 -0.2193
 8297TIP3    H246307   2.639   1.140   4.934  1.7899 -0.0662 -0.8174
 8298TIP3   OH246308   5.626   5.162  16.813 -0.4184 -0.3035  0.2113
 8298TIP3    H146309   5.596   5.251  16.828  0.8626  0.2280 -0.2707
 8298TIP3    H246310   5.587   5.136  16.730 -1.7293 -0.6456  0.8971
 8299TIP3   OH246311   6.356   1.490   5.849  0.4688 -0.0202 -0.7090
 8299TIP3    H146312   6.353   1.415   5.790 -0.3818 -0.3956 -0.2163
 8299TIP3    H246313   6.445   1.490   5.884  0.4983 -0.7520 -0.7720
 8300TIP3   OH246314   3.988   2.929   1.719 -0.0643 -0.3590 -0.2077
 8300TIP3    H146315   4.079   2.915   1.746 -0.0245  0.0763 -0.0979
 8300TIP3    H246316   3.992   2.937   1.624  0.1074  0.3168 -0.1463
 8301TIP3   OH246317   6.398   3.710  11.809 -0.3398 -0.2691 -0.3540
 8301TIP3    H146318   6.392   3.747  11.897 -2.7058  0.9019 -0.9132
 8301TIP3    H246319   6.491   3.712  11.789  0.1561  0.4078  1.7201
 8302TIP3   OH246320   0.420   5.163   3.335 -0.2151 -0.5757  0.1265
 8302TIP3    H146321   0.393   5.212   3.413 -0.1179 -0.5729  0.1590
 8302TIP3    H246322   0.449   5.231   3.273  0.0386 -0.5985  0.2180
 8303TIP3   OH246323   5.772   2.191   5.752  0.2372 -0.1937 -0.1054
 8303TIP3    H146324   5.705   2.158   5.813 -2.2246  1.9274 -1.4576
 8303TIP3    H246325   5.727   2.260   5.703  2.4872 -0.8647 -3.4009
 8304TIP3   OH246326   6.323   5.409  11.870 -0.0186 -0.0366  0.3680
 8304TIP3    H146327   6.327   5.374  11.781  3.4866  2.4147 -0.6897
 8304TIP3    H246328   6.290   5.498  11.859  1.9042  0.8501  1.1765
 8305TIP3   OH246329   1.158   4.192  10.822  0.0711 -0.0101 -0.3778
 8305TIP3    H146330   1.091   4.250  10.858  0.4996 -2.1568  4.6260
 8305TIP3    H246331   1.111   4.137  10.759 -2.1800  0.5165  0.7489
 8306TIP3   OH246332   2.792   4.516  14.236  0.2851  0.1620  0.2867
 8306TIP3    H146333   2.796   4.528  14.141  1.7293 -0.5066  0.2359
 8306TIP3    H246334   2.758   4.427  14.247  2.6577 -0.8498  0.2597
 8307TIP3   OH246335   6.714   3.810   1.284  0.3971  0.0624 -0.0469
 8307TIP3    H146336   6.726   3.827   1.190 -2.4202 -1.5619 -0.8181
 8307TIP3    H246337   6.686   3.894   1.320  2.5041  0.9720 -0.3732
 8308TIP3   OH246338   3.077   4.410  16.271 -0.1235  0.2298  0.0471
 8308TIP3    H146339   3.143   4.364  16.219 -0.2774 -0.1619  0.1964
 8308TIP3    H246340   3.090   4.502  16.250 -0.9983  0.0033 -1.6430
 8309TIP3   OH246341   3.595   6.335  11.219  0.2022  0.2239  0.2789
 8309TIP3    H146342   3.601   6.425  11.249  1.9101  0.4060 -0.5074
 8309TIP3    H246343   3.674   6.293  11.252  1.1729 -0.0563 -2.1951
 8310TIP3   OH246344   0.787   5.240   0.493 -0.4245 -0.6169 -0.7856
 8310TIP3    H146345   0.806   5.198   0.576 -0.6351  0.7574 -0.0186
 8310TIP3    H246346   0.871   5.276   0.464 -0.4581 -0.6317 -0.9044
 8311TIP3   OH246347   0.140   5.792  11.666  0.0684 -0.0449 -0.0337
 8311TIP3    H146348   0.070   5.810  11.729  0.3960 -0.7431  0.5472
 8311TIP3    H246349   0.094   5.768  11.585 -0.4192 -1.7778  0.6931
 8312TIP3   OH246350   3.103   1.949  12.127  0.0215 -0.1297  0.4057
 8312TIP3    H146351   3.079   1.901  12.048  1.2504 -0.8399  0.4497
 8312TIP3    H246352   3.019   1.965  12.171 -0.8712  1.4777 -1.6643
 8313TIP3   OH246353   5.685   1.559   5.887 -0.3009 -0.4526 -0.7456
 8313TIP3    H146354   5.637   1.487   5.849 -1.7628  0.0510  0.0706
 8313TIP3    H246355   5.633   1.586   5.963  2.2925 -1.2230  1.4805
 8314TIP3   OH246356   2.387   1.936  14.427  0.3298 -0.0450  0.6163
 8314TIP3    H146357   2.305   1.982  14.411  0.8093  0.5474 -0.1626
 8314TIP3    H246358   2.407   1.891  14.345  1.3208  0.6704  0.4497
 8315TIP3   OH246359   5.255   4.988  13.994  0.7552 -0.3260  0.8128
 8315TIP3    H146360   5.253   4.981  13.899 -0.7829  0.8274  0.7170
 8315TIP3    H246361   5.319   5.056  14.012  2.2452 -1.6447  0.7364
 8316TIP3   OH246362   3.234   4.371   3.801 -0.9953  0.1320 -1.0739
 8316TIP3    H146363   3.315   4.369   3.852 -3.2110 -1.0641  2.8456
 8316TIP3    H246364   3.238   4.293   3.747  1.2532  1.1952 -2.6339
 8317TIP3   OH246365   1.767   0.060   3.539 -0.2614 -0.0107  0.2169
 8317TIP3    H146366   1.678   0.050   3.506 -1.3671  2.1812  2.1869
 8317TIP3    H246367   1.763   0.032   3.630  0.4218  2.2221  1.0090
 8318TIP3   OH246368   1.453   2.326   0.705 -0.0877 -0.4935 -0.1911
 8318TIP3    H146369   1.546   2.326   0.684 -0.0549  1.0883 -0.1999
 8318TIP3    H246370   1.447   2.289   0.793  0.8399  1.4421  0.7532
 8319TIP3   OH246371   5.817   1.495  11.213 -0.2233 -0.4132 -0.1423
 8319TIP3    H146372   5.763   1.443  11.154  1.3488  0.1913 -2.2503
 8319TIP3    H246373   5.757   1.561  11.249 -2.0045 -2.9323  1.8108
 8320TIP3   OH246374   0.355   1.301  16.722  0.5509 -0.3232 -0.1600
 8320TIP3    H146375   0.399   1.247  16.789 -1.0494 -1.3178  0.1518
 8320TIP3    H246376   0.279   1.249  16.696  0.2785  0.7562 -1.6375
 8321TIP3   OH246377   5.178   0.642   5.560  0.1966 -0.2430  0.1236
 8321TIP3    H146378   5.085   0.655   5.576  0.0197  0.6175 -1.3527
 8321TIP3    H246379   5.208   0.586   5.631 -1.3025  0.0138  0.9881
 8322TIP3   OH246380   0.369   5.683  11.010  0.0737  0.0071  0.7257
 8322TIP3    H146381   0.287   5.691  11.060 -0.2884  2.5382 -0.1056
 8322TIP3    H246382   0.347   5.626  10.936 -0.5004 -0.5598  1.3227
 8323TIP3   OH246383   6.558   1.445  15.118  0.4129  0.5044  0.4195
 8323TIP3    H146384   6.552   1.521  15.175 -2.4865  0.9208 -0.2607
 8323TIP3    H246385   6.573   1.481  15.031 -0.3741  0.2958  0.1848
 8324TIP3   OH246386   5.680   5.777   3.729 -0.6819 -0.4867 -0.3105
 8324TIP3    H146387   5.703   5.726   3.651  0.5379 -0.3859 -0.0408
 8324TIP3    H246388   5.646   5.712   3.791  0.4589 -0.9437 -0.1272
 8325TIP3   OH246389   1.145   0.962   1.484 -0.7689  0.5979  0.9583
 8325TIP3    H146390   1.143   0.980   1.390  2.9447  0.7419  0.7497
 8325TIP3    H246391   1.101   0.878   1.493  0.3944 -0.3514 -1.2615
 8326TIP3   OH246392   4.710   5.872  10.915  0.1663  0.1218 -0.8051
 8326TIP3    H146393   4.670   5.840  10.834 -0.2355 -0.9303 -0.2101
 8326TIP3    H246394   4.640   5.919  10.960  0.1150 -0.1380 -0.6133
 8327TIP3   OH246395   5.182   5.947   3.535  0.2311  0.2987  0.0262
 8327TIP3    H146396   5.103   5.917   3.580  0.4862 -0.0354  0.2621
 8327TIP3    H246397   5.254   5.916   3.591  0.5538 -0.1149 -0.6111
 8328TIP3   OH246398   2.283   5.430  11.796 -0.2893  0.4054 -0.6422
 8328TIP3    H146399   2.338   5.358  11.764 -0.6556  0.1554 -0.7104
 8328TIP3    H246400   2.332   5.509  11.772 -0.2899  0.2060 -1.3462
 8329TIP3   OH246401   5.290   6.040   5.007  0.4399  0.7958 -0.1325
 8329TIP3    H146402   5.336   5.960   5.033 -1.0279 -0.0840 -0.1255
 8329TIP3    H246403   5.355   6.109   5.015  1.1203 -0.0222  2.2095
 8330TIP3   OH246404   6.055   4.440  16.679  0.2822 -0.0150 -0.9632
 8330TIP3    H146405   6.110   4.406  16.608  0.0761  0.4080 -1.3317
 8330TIP3    H246406   5.985   4.487  16.634  0.0982  0.1781 -0.4780
 8331TIP3   OH246407   0.738   3.838  16.631  1.0517 -0.3515 -0.2888
 8331TIP3    H146408   0.807   3.902  16.611 -0.8083  2.4989  1.6731
 8331TIP3    H246409   0.718   3.797  16.547  1.7050  2.3773 -1.9149
 8332TIP3   OH246410   3.632   6.220  13.473  0.1486 -0.3115 -0.4500
 8332TIP3    H146411   3.555   6.201  13.528  0.8755  1.6937  1.4233
 8332TIP3    H246412   3.609   6.301  13.428 -0.2465 -1.6938 -2.8826
 8333TIP3   OH246413   6.675   1.759   2.450 -0.1060 -0.2439  0.6592
 8333TIP3    H146414   6.599   1.791   2.401  0.1380  1.5783  1.4011
 8333TIP3    H246415   6.702   1.680   2.402 -0.3233  1.0258 -1.7367
 8334TIP3   OH246416   5.659   1.676  11.383  0.6816  0.0749  0.2061
 8334TIP3    H146417   5.644   1.770  11.371  1.2239 -0.0501 -1.8711
 8334TIP3    H246418   5.572   1.638  11.383  0.5172  0.3172 -2.0299
 8335TIP3   OH246419   2.538   6.291   2.628 -0.1829  0.2264 -0.0564
 8335TIP3    H146420   2.505   6.381   2.616 -0.4286  0.2836  0.9394
 8335TIP3    H246421   2.616   6.302   2.681  0.2584 -0.0952 -0.6269
 8336TIP3   OH246422   3.869   6.768  13.298 -0.4352 -0.1995 -0.2693
 8336TIP3    H146423   3.784   6.724  13.297 -0.5097 -0.1661  1.4951
 8336TIP3    H246424   3.910   6.744  13.215 -0.7885 -3.0059  0.2581
 8337TIP3   OH246425   0.804   1.424   4.776  0.0216 -0.1562 -0.0617
 8337TIP3    H146426   0.742   1.352   4.789 -0.7464  0.3000 -1.0297
 8337TIP3    H246427   0.889   1.388   4.800 -0.5793 -0.8858  1.0493
 8338TIP3   OH246428   5.009   5.425  16.878 -0.2792  0.3175  0.5352
 8338TIP3    H146429   5.102   5.408  16.892 -0.5933 -3.1163 -0.7068
 8338TIP3    H246430   4.992   5.393  16.790 -2.7510  0.3006  0.9589
 8339TIP3   OH246431   0.931   0.794   5.921  0.3203 -0.1627  0.0920
 8339TIP3    H146432   0.924   0.775   6.015 -1.0918 -1.8778 -0.3177
 8339TIP3    H246433   0.920   0.710   5.878  1.3717  0.5243 -1.6373
 8340TIP3   OH246434   5.963   1.804  15.008 -0.1506 -0.2256  0.0459
 8340TIP3    H146435   5.982   1.898  15.008  0.8715 -0.4183 -0.7666
 8340TIP3    H246436   6.040   1.764  15.050 -1.4571 -0.5730  2.3108
 8341TIP3   OH246437   1.531   5.511  16.200 -0.0852 -0.2012 -0.5974
 8341TIP3    H146438   1.559   5.492  16.289  0.0188 -1.1276 -0.8161
 8341TIP3    H246439   1.481   5.592  16.207 -2.6540 -1.7969  0.7800
 8342TIP3   OH246440   5.723   0.016   6.518  0.1789  0.4860 -0.6093
 8342TIP3    H146441   5.696   0.099   6.556  0.7339 -0.2760  1.6157
 8342TIP3    H246442   5.643  -0.022   6.481 -0.3483  1.3538 -0.3677
 8343TIP3   OH246443   0.011   0.323   4.052  0.3049 -0.3509  0.5794
 8343TIP3    H146444   0.040   0.412   4.036 -0.6442 -0.5361 -2.9103
 8343TIP3    H246445  -0.083   0.330   4.067  0.3062 -0.7484  0.8134
 8344TIP3   OH246446   4.690   4.592   1.042 -0.8091  0.0475 -0.0845
 8344TIP3    H146447   4.760   4.638   0.996 -0.4408 -0.6876 -0.2720
 8344TIP3    H246448   4.630   4.565   0.973 -0.1520 -1.2359 -0.1813
 8345TIP3   OH246449   1.593   1.722  13.515  0.1097  0.0362 -0.7073
 8345TIP3    H146450   1.599   1.632  13.545  0.3351 -0.1360 -1.2493
 8345TIP3    H246451   1.542   1.716  13.433  0.1471  0.3944 -0.7580
 8346TIP3   OH246452   6.391   3.641  12.351  0.9173 -0.5331 -0.2871
 8346TIP3    H146453   6.328   3.670  12.416  1.0483 -1.5812  0.3317
 8346TIP3    H246454   6.346   3.569  12.305  0.5710  0.6068 -1.8170
 8347TIP3   OH246455   0.519   4.527  14.125  0.4304  0.5196 -0.0201
 8347TIP3    H146456   0.531   4.607  14.176  1.2773 -0.0997  0.7696
 8347TIP3    H246457   0.564   4.459  14.174 -2.5893 -1.0730  0.8354
 8348TIP3   OH246458   0.019   6.481   1.875  0.0432  0.4914 -0.2019
 8348TIP3    H146459   0.108   6.517   1.866  0.1394 -0.0062 -1.3967
 8348TIP3    H246460  -0.037   6.559   1.877  0.2320  0.8083 -2.9816
 8349TIP3   OH246461   2.483   3.581  16.810  0.2546 -0.2785  0.4584
 8349TIP3    H146462   2.469   3.594  16.716  0.6497  0.4226  0.4941
 8349TIP3    H246463   2.545   3.509  16.815 -0.4247 -0.8938  0.2067
 8350TIP3   OH246464   1.391   2.496   0.989 -0.1172 -0.2410 -0.4355
 8350TIP3    H146465   1.460   2.430   0.988  0.4273  0.3128 -0.0528
 8350TIP3    H246466   1.364   2.501   1.081  1.5836  1.8266  0.0185
 8351TIP3   OH246467   0.274   0.502  10.591 -0.2497  0.5646 -0.5125
 8351TIP3    H146468   0.210   0.536  10.529 -1.2987  0.3908  0.4357
 8351TIP3    H246469   0.306   0.421  10.551 -1.8643 -0.2388 -0.2905
 8352TIP3   OH246470   4.686   1.830   5.868  0.6468 -0.2638  0.2366
 8352TIP3    H146471   4.714   1.750   5.913  4.0346 -0.2928 -1.5959
 8352TIP3    H246472   4.742   1.834   5.790 -2.2294  1.7815 -1.9489
 8353TIP3   OH246473   0.884   2.597  11.368 -0.3562  0.4978 -0.2838
 8353TIP3    H146474   0.801   2.556  11.346 -0.3835  1.1409 -1.4491
 8353TIP3    H246475   0.903   2.567  11.457 -1.8137  0.3309 -0.0134
 8354TIP3   OH246476   5.237   6.020  13.239  0.1811 -0.2792  0.8144
 8354TIP3    H146477   5.193   5.938  13.216 -0.5740  0.0239  1.1414
 8354TIP3    H246478   5.282   6.047  13.159 -1.4421  0.1566 -0.0134
 8355TIP3   OH246479   5.899   0.836  15.809 -0.4791  0.1398  0.7658
 8355TIP3    H146480   5.965   0.778  15.772  0.0867  0.4693  1.2385
 8355TIP3    H246481   5.818   0.787  15.804 -0.0603 -0.5724  0.8773
 8356TIP3   OH246482   6.085   6.631   3.710 -0.2783  0.2275  0.8667
 8356TIP3    H146483   6.163   6.655   3.760 -0.8022  1.9327  0.9486
 8356TIP3    H246484   6.058   6.713   3.668 -1.1630 -0.6714 -0.3670
 8357TIP3   OH246485   0.245   2.513   1.159  0.6200  0.1962  0.0050
 8357TIP3    H146486   0.152   2.493   1.145  0.8881 -0.6354 -0.7164
 8357TIP3    H246487   0.291   2.436   1.124  1.6010  0.8908 -0.2702
 8358TIP3   OH246488   1.785   0.849   4.302  0.5002  0.0134 -0.2127
 8358TIP3    H146489   1.866   0.803   4.279 -1.9458 -4.0764 -1.8206
 8358TIP3    H246490   1.775   0.835   4.396  0.2170 -2.3684 -0.5222
 8359TIP3   OH246491   4.036   4.197   5.134 -0.6837 -0.1967 -0.5528
 8359TIP3    H146492   3.951   4.168   5.100 -0.3376 -2.2303  0.2395
 8359TIP3    H246493   4.057   4.136   5.204  1.3774  0.3807 -0.6042
 8360TIP3   OH246494   1.310   4.052   0.487  0.2240  0.1142  0.2017
 8360TIP3    H146495   1.260   3.970   0.481  0.3755  0.0123  0.3121
 8360TIP3    H246496   1.312   4.085   0.397 -0.2018  0.2167  0.2282
 8361TIP3   OH246497   5.878   0.487   2.634 -0.3533 -0.2178 -0.0395
 8361TIP3    H146498   5.906   0.514   2.546 -1.2427 -0.5954 -0.4479
 8361TIP3    H246499   5.788   0.520   2.641 -0.4347 -0.5662  0.5621
 8362TIP3   OH246500   4.648   5.662  15.387 -0.1381  0.3182 -0.4325
 8362TIP3    H146501   4.712   5.717  15.433  2.7513 -2.6204 -0.5814
 8362TIP3    H246502   4.676   5.665  15.296 -0.2297 -0.9565 -0.5162
 8363TIP3   OH246503   6.109   5.087   5.683 -0.3311 -0.1376 -0.2540
 8363TIP3    H146504   6.095   5.141   5.760  0.9939 -0.7673  0.4702
 8363TIP3    H246505   6.138   5.002   5.718  3.1896  0.4228 -1.3889
 8364TIP3   OH246506   0.579   6.372  10.642  0.3276  0.0495 -0.2402
 8364TIP3    H146507   0.484   6.373  10.630  0.5330  0.5932 -2.1744
 8364TIP3    H246508   0.602   6.464  10.657  0.7289  0.2085 -1.7058
 8365TIP3   OH246509   1.818   4.876  15.332  0.4468 -0.0577  0.3485
 8365TIP3    H146510   1.822   4.970  15.346  0.2344 -0.2524  1.9570
 8365TIP3    H246511   1.862   4.862  15.248 -1.1286  1.6257 -0.8308
 8366TIP3   OH246512   3.089   1.508   0.934 -0.2460 -0.7443 -0.1903
 8366TIP3    H146513   3.002   1.518   0.895 -0.4219  2.2227  0.7475
 8366TIP3    H246514   3.132   1.592   0.918  1.5246 -1.2558  1.5468
 8367TIP3   OH246515   3.591   3.963   3.904  0.2270  0.1431 -0.1553
 8367TIP3    H146516   3.522   3.969   3.970 -0.0039 -0.4428 -0.3349
 8367TIP3    H246517   3.644   3.889   3.932  0.1883 -0.0432 -0.5627
 8368TIP3   OH246518   1.153   1.849  15.761  0.2017  0.7328  0.5462
 8368TIP3    H146519   1.170   1.940  15.736  1.9006  0.4852  0.6721
 8368TIP3    H246520   1.194   1.798  15.691 -0.5967  0.0398  0.5658
 8369TIP3   OH246521   5.792   6.080   3.729  0.5858 -0.6124 -0.1909
 8369TIP3    H146522   5.829   6.034   3.805 -1.5557  0.7712  1.8217
 8369TIP3    H246523   5.724   6.022   3.696  1.0758 -0.9214 -0.6842
 8370TIP3   OH246524   4.757   3.775  10.867  0.5686 -0.1965 -0.3262
 8370TIP3    H146525   4.773   3.849  10.809  2.1459 -0.2176  0.0436
 8370TIP3    H246526   4.684   3.804  10.922  1.1227  1.0757 -0.2257
 8371TIP3   OH246527   3.465   3.289   5.321 -0.1188 -0.1608 -0.9578
 8371TIP3    H146528   3.459   3.240   5.238 -0.2734 -0.2577 -0.8898
 8371TIP3    H246529   3.411   3.366   5.307 -1.7151 -1.1005 -0.2973
 8372TIP3   OH246530   6.468   6.771  15.226 -0.1314  0.1542  0.1967
 8372TIP3    H146531   6.559   6.758  15.252 -0.2866 -1.2931  0.0808
 8372TIP3    H246532   6.417   6.746  15.304 -0.5038 -1.6624 -0.5815
 8373TIP3   OH246533   3.339   6.395   2.634  0.1538 -0.1012 -0.0105
 8373TIP3    H146534   3.423   6.363   2.601  0.8460  1.9203 -0.3532
 8373TIP3    H246535   3.335   6.363   2.725  0.9378 -0.8163 -0.2097
 8374TIP3   OH246536   1.476   4.973  15.640 -0.1541 -0.5150  0.0142
 8374TIP3    H146537   1.569   4.968  15.661 -0.2836  2.3477  1.9004
 8374TIP3    H246538   1.433   4.925  15.711 -0.1647  0.3478  0.6142
 8375TIP3   OH246539   2.994   5.079   3.761 -0.8403 -0.0540  0.4162
 8375TIP3    H146540   2.956   5.058   3.676 -0.5273  1.2835 -0.0719
 8375TIP3    H246541   3.012   4.994   3.801 -0.6733 -0.6971 -0.9880
 8376TIP3   OH246542   3.394   0.759   4.801  0.4113  0.0158  0.2906
 8376TIP3    H146543   3.426   0.844   4.832 -0.4346 -0.3315  2.2840
 8376TIP3    H246544   3.428   0.696   4.865 -1.3094 -0.7714  0.4798
 8377TIP3   OH246545   3.806   4.398  12.843  0.1827  0.5887 -0.1398
 8377TIP3    H146546   3.892   4.418  12.880  0.5973 -1.7999  0.3694
 8377TIP3    H246547   3.816   4.413  12.749  0.7078  1.7117  0.0838
 8378TIP3   OH246548   4.864   4.352   4.495  0.4124 -0.0363 -0.3170
 8378TIP3    H146549   4.832   4.431   4.539  0.0326  0.1729 -0.9568
 8378TIP3    H246550   4.794   4.288   4.505  1.1918 -0.7143  1.2386
 8379TIP3   OH246551   4.843   1.049   5.788  0.4499 -0.3821  0.0142
 8379TIP3    H146552   4.927   1.078   5.823  0.3409  0.0543 -0.0725
 8379TIP3    H246553   4.780   1.073   5.856  0.2839  0.1344 -0.3173
 8380TIP3   OH246554   5.066   1.328  10.294  0.0692 -0.2832 -0.1830
 8380TIP3    H146555   5.077   1.269  10.219 -0.8546  0.6140 -1.0589
 8380TIP3    H246556   5.133   1.300  10.356  0.9221 -0.9982 -1.3755
 8381TIP3   OH246557   2.501   4.009  16.439 -0.0221 -0.4246 -0.1131
 8381TIP3    H146558   2.567   4.078  16.430 -1.3476  0.6925 -2.0154
 8381TIP3    H246559   2.495   3.995  16.533  2.9401 -0.6494  0.1605
 8382TIP3   OH246560   6.465   3.540  15.778  0.3041  0.2739  0.6261
 8382TIP3    H146561   6.397   3.582  15.725  1.5235  1.2290 -0.2562
 8382TIP3    H246562   6.424   3.462  15.814 -0.8657  0.1111 -0.9677
 8383TIP3   OH246563   2.471   1.127   1.329 -0.7020 -0.1381 -0.1965
 8383TIP3    H146564   2.506   1.038   1.338 -0.2597  0.0233 -0.3045
 8383TIP3    H246565   2.378   1.114   1.309 -0.8886 -0.5526  0.9060
 8384TIP3   OH246566   5.744   3.557   6.530 -0.0756 -0.2735 -0.8499
 8384TIP3    H146567   5.704   3.644   6.524  1.7411  0.5897 -1.2487
 8384TIP3    H246568   5.755   3.541   6.624 -1.7831 -0.7758 -0.7035
 8385TIP3   OH246569   2.369   2.001   0.186 -0.2815 -0.4251 -0.1068
 8385TIP3    H146570   2.427   1.931   0.157  2.2661  1.0264  1.1409
 8385TIP3    H246571   2.340   1.974   0.273 -1.1394 -0.9392 -0.5436
 8386TIP3   OH246572   2.819   0.969   2.631  0.0509  0.1234 -0.7033
 8386TIP3    H146573   2.756   0.901   2.656 -0.9454  1.1807 -0.2685
 8386TIP3    H246574   2.765   1.046   2.613  1.2636  1.3680  0.7145
 8387TIP3   OH246575   4.967   3.900   2.127  0.3588  0.2729  0.5238
 8387TIP3    H146576   4.973   3.993   2.103  0.1702  0.1338 -0.0800
 8387TIP3    H246577   4.904   3.863   2.065 -0.5702  0.0105  1.5757
 8388TIP3   OH246578   5.241   1.899  16.582 -0.4690 -0.1163  0.0796
 8388TIP3    H146579   5.312   1.920  16.644  0.6117 -0.8831 -0.8568
 8388TIP3    H246580   5.195   1.982  16.569 -2.4728 -0.3953  3.9463
 8389TIP3   OH246581   0.922   6.772   0.903 -0.6503 -1.0488 -0.3462
 8389TIP3    H146582   0.833   6.804   0.890  0.2349  0.9462 -2.1716
 8389TIP3    H246583   0.944   6.728   0.821 -0.7977 -3.9780  1.0585
 8390TIP3   OH246584   4.616   1.401   5.195  0.3693  0.2679 -0.4303
 8390TIP3    H146585   4.567   1.373   5.273  0.3793 -0.6487 -0.7462
 8390TIP3    H246586   4.696   1.440   5.230 -0.3220  1.2853  0.0708
 8391TIP3   OH246587   4.000   0.659   4.245  0.3174  0.1857  0.3902
 8391TIP3    H146588   4.063   0.592   4.274 -1.4025 -0.9517  1.6971
 8391TIP3    H246589   3.970   0.627   4.160 -1.9098 -1.8808  1.8171
 8392TIP3   OH246590   6.558   0.147  16.184 -0.2104 -0.0380 -0.0056
 8392TIP3    H146591   6.591   0.070  16.229  0.2558 -0.0992 -0.4478
 8392TIP3    H246592   6.477   0.169  16.231  0.4851  0.1748  1.1530
 8393TIP3   OH246593   3.009   4.649  12.629  0.1147  0.8638  0.0462
 8393TIP3    H146594   2.949   4.591  12.676 -0.1899 -0.8048 -2.2236
 8393TIP3    H246595   3.090   4.647  12.680  0.3893 -2.3079 -0.3409
 8394TIP3   OH246596   2.044   4.500  11.141 -0.4215  0.0047 -0.3312
 8394TIP3    H146597   2.135   4.505  11.111 -0.2009  0.0139  0.3188
 8394TIP3    H246598   2.000   4.449  11.074  0.5119 -1.8074  0.3592
 8395TIP3   OH246599   5.489   4.493  12.041  0.6670  0.2344  0.0250
 8395TIP3    H146600   5.522   4.537  12.120  0.7997  0.5574 -0.2085
 8395TIP3    H246601   5.415   4.441  12.073  1.4851 -0.6263  0.5738
 8396TIP3   OH246602   2.363   1.750   5.403 -0.0982  0.0086  0.1408
 8396TIP3    H146603   2.391   1.682   5.464 -1.5846 -0.0910  0.7635
 8396TIP3    H246604   2.294   1.798   5.450 -0.7688  0.4031 -1.1801
 8397TIP3   OH246605   6.157   5.088   5.290  0.1935  0.1052  0.3302
 8397TIP3    H146606   6.225   5.058   5.351 -0.3521 -2.3190 -0.1195
 8397TIP3    H246607   6.081   5.105   5.346  0.6334  1.0535  0.6478
 8398TIP3   OH246608   1.462   2.430  16.110 -0.1350  0.3774  0.2448
 8398TIP3    H146609   1.453   2.338  16.131  0.5029  0.3507  0.4194
 8398TIP3    H246610   1.378   2.469  16.135  0.3323  0.2194  2.1931
 8399TIP3   OH246611   4.931   0.201   5.378 -0.3001 -0.1715  0.1034
 8399TIP3    H146612   5.014   0.224   5.419 -0.8090 -2.0374  2.3281
 8399TIP3    H246613   4.956   0.167   5.292  1.5028 -2.5466  1.4470
 8400TIP3   OH246614   6.435   1.964   3.266  0.3294  0.3476  0.1045
 8400TIP3    H146615   6.489   2.013   3.329  1.3379  0.3232 -0.7070
 8400TIP3    H246616   6.364   1.928   3.319  1.2819  0.1172  1.2993
 8401TIP3   OH246617   5.555   2.046  12.861  0.1785  0.2302  0.3818
 8401TIP3    H146618   5.616   2.120  12.869  0.9020 -0.4401  1.3767
 8401TIP3    H246619   5.601   1.973  12.903  0.1095 -1.1755 -1.8453
 8402TIP3   OH246620   2.219   2.249   5.475 -0.3254  0.3629  0.0231
 8402TIP3    H146621   2.212   2.196   5.396 -0.3652  1.1513 -0.5179
 8402TIP3    H246622   2.233   2.186   5.546 -0.1369 -0.3400 -0.6312
 8403TIP3   OH246623   3.297   6.299   4.788 -0.3322  0.2530  0.1193
 8403TIP3    H146624   3.283   6.222   4.733 -0.0066  0.0306  0.3421
 8403TIP3    H246625   3.210   6.319   4.824 -0.5260  0.3419 -0.3947
 8404TIP3   OH246626   1.687   0.617  13.531  0.7467 -0.0569 -0.1986
 8404TIP3    H146627   1.731   0.691  13.572 -0.1900 -0.3823  1.5005
 8404TIP3    H246628   1.628   0.657  13.467 -0.8047  0.8639  1.6727
 8405TIP3   OH246629   1.331   0.619  15.826 -0.0831  0.4592 -0.0623
 8405TIP3    H146630   1.286   0.691  15.780 -0.3415 -0.1767 -0.8182
 8405TIP3    H246631   1.295   0.623  15.915  0.3049  1.6028  0.0651
 8406TIP3   OH246632   6.413   4.326   0.079  0.2684  0.5485 -0.1377
 8406TIP3    H146633   6.439   4.404   0.127  1.3287  0.4295 -0.4936
 8406TIP3    H246634   6.439   4.343  -0.012  0.4800 -0.1927 -0.2257
 8407TIP3   OH246635   5.214   1.528   4.906  0.0255  0.0484 -0.2038
 8407TIP3    H146636   5.250   1.572   4.983 -0.5548 -0.2751  0.2624
 8407TIP3    H246637   5.179   1.445   4.940 -2.3100  0.8932 -0.3725
 8408TIP3   OH246638   4.526   0.646  11.284  0.4930  0.7593  0.2666
 8408TIP3    H146639   4.607   0.675  11.326  0.4884 -1.5217  2.0727
 8408TIP3    H246640   4.460   0.652  11.354 -0.5532  1.0410 -0.7136
 8409TIP3   OH246641   0.991   2.312  15.890  0.0957 -0.0949 -0.0132
 8409TIP3    H146642   0.955   2.291  15.976  2.4946  1.9296  1.6510
 8409TIP3    H246643   0.936   2.384  15.859 -3.3701 -3.3328 -2.2821
 8410TIP3   OH246644   0.327   1.286   5.532  0.5108  0.1889 -0.0619
 8410TIP3    H146645   0.251   1.254   5.581  0.0416  0.2658 -0.7384
 8410TIP3    H246646   0.291   1.330   5.456  1.2492 -0.2224 -0.6646
 8411TIP3   OH246647   5.283   1.952   0.458  0.1922 -0.3406 -0.4771
 8411TIP3    H146648   5.248   1.916   0.539  1.1158 -1.1052 -0.3965
 8411TIP3    H246649   5.350   1.889   0.431  2.0554  1.4108 -0.1967
 8412TIP3   OH246650   5.621   3.786  15.743 -0.6074 -0.1714  0.5655
 8412TIP3    H146651   5.589   3.843  15.813 -0.7575 -1.2490  1.3894
 8412TIP3    H246652   5.683   3.841  15.694 -1.2579  0.9075  0.9164
 8413TIP3   OH246653   5.496   4.181   1.063 -0.1321 -0.5763 -0.5656
 8413TIP3    H146654   5.424   4.229   1.105 -0.0445 -1.2098  0.3248
 8413TIP3    H246655   5.489   4.092   1.096  0.7603 -0.7717 -0.8626
 8414TIP3   OH246656   2.188   1.343  17.029  0.9307 -0.0822  1.0129
 8414TIP3    H146657   2.116   1.396  16.994  0.5132 -0.6237  1.0308
 8414TIP3    H246658   2.267   1.381  16.991  0.5446 -0.1698  0.1087
 8415TIP3   OH246659   4.682   0.648   2.821  0.5328  0.4006  0.0628
 8415TIP3    H146660   4.660   0.741   2.830  2.1386  0.7002  1.5162
 8415TIP3    H246661   4.615   0.602   2.871  0.3596  0.8676  0.2579
 8416TIP3   OH246662   6.345   6.068  13.990 -0.2146 -0.1320 -0.1223
 8416TIP3    H146663   6.440   6.079  13.987 -0.1628 -0.6201 -0.3745
 8416TIP3    H246664   6.312   6.121  13.918 -0.4631  3.1610  2.2035
 8417TIP3   OH246665   2.480   4.819  15.585 -0.8547 -0.1489 -0.0633
 8417TIP3    H146666   2.444   4.731  15.578 -1.1526 -0.1260  1.0078
 8417TIP3    H246667   2.512   4.825  15.675  0.8287  0.2160 -0.6492
 8418TIP3   OH246668   3.332   2.173   1.453  0.1835  0.3204 -0.3997
 8418TIP3    H146669   3.254   2.170   1.509  1.2639 -2.4154  1.1466
 8418TIP3    H246670   3.351   2.081   1.434  2.5131  0.9547 -1.4946
 8419TIP3   OH246671   2.672   1.421  10.891 -0.0462 -0.0825 -0.3552
 8419TIP3    H146672   2.654   1.480  10.963  0.3209 -0.5887  0.1644
 8419TIP3    H246673   2.600   1.434  10.829  0.4715  1.5308 -0.6723
 8420TIP3   OH246674   3.286   4.643   5.369 -0.0366 -0.6215 -0.2726
 8420TIP3    H146675   3.251   4.662   5.456  0.4680 -1.6214  0.1641
 8420TIP3    H246676   3.237   4.701   5.311 -1.0993 -0.6671  0.5429
 8421TIP3   OH246677   0.138   4.277   5.996  0.3209 -0.7319 -0.4612
 8421TIP3    H146678   0.087   4.199   6.020  1.3536 -1.4020 -0.3807
 8421TIP3    H246679   0.122   4.339   6.067  0.1905 -1.2085 -0.0631
 8422TIP3   OH246680   3.660   2.301   0.841 -0.4348 -0.1503  0.3735
 8422TIP3    H146681   3.664   2.328   0.750  1.4073  0.0653  0.4946
 8422TIP3    H246682   3.684   2.379   0.891  0.2576 -0.7204  0.9571
 8423TIP3   OH246683   4.109   4.004   5.340 -0.1856  0.2156 -0.0191
 8423TIP3    H146684   4.066   3.934   5.290 -0.7522  0.8876 -0.4934
 8423TIP3    H246685   4.116   3.969   5.429 -1.8625  0.1407  0.1098
 8424TIP3   OH246686   6.426   4.334   5.871 -0.7941 -0.2535 -0.0729
 8424TIP3    H146687   6.396   4.361   5.958  2.9147 -1.0242  1.6860
 8424TIP3    H246688   6.401   4.243   5.864 -1.1925 -0.1633  0.1581
 8425TIP3   OH246689   4.932   4.189   0.075  0.0526 -0.5489  0.4720
 8425TIP3    H146690   5.016   4.221   0.110  0.0882  0.5601 -0.5396
 8425TIP3    H246691   4.901   4.126   0.140 -0.1052  1.7185  2.7543
 8426TIP3   OH246692   2.147   0.644  14.456  0.0077  0.0645  0.2625
 8426TIP3    H146693   2.157   0.560  14.500  0.7640 -0.9751 -1.7418
 8426TIP3    H246694   2.222   0.696  14.485  0.4056 -0.5382  0.3293
 8427TIP3   OH246695   1.325   3.029  11.546 -0.2104  0.5052  1.0051
 8427TIP3    H146696   1.318   3.122  11.568 -0.4021  0.7593 -0.0756
 8427TIP3    H246697   1.276   3.020  11.465  0.6342 -0.3549  0.5740
 8428TIP3   OH246698   6.349   0.430  15.466  0.0008 -0.1367 -0.2930
 8428TIP3    H146699   6.385   0.465  15.547  0.6255 -0.9746 -0.1934
 8428TIP3    H246700   6.359   0.335  15.475 -1.0812 -0.3170 -0.8140
 8429TIP3   OH246701   5.023   1.413   0.046  0.7562 -0.2734  0.0177
 8429TIP3    H146702   5.026   1.373  -0.041  1.9511 -0.0829 -0.0336
 8429TIP3    H246703   5.026   1.507   0.030 -0.9987 -0.1504  0.1919
 8430TIP3   OH246704   0.335   3.005   4.836 -0.3896  0.2008  0.3518
 8430TIP3    H146705   0.411   3.061   4.856 -0.4288  0.6395 -0.6485
 8430TIP3    H246706   0.267   3.067   4.810 -0.5155 -0.2931 -0.5283
 8431TIP3   OH246707   0.767   2.252  13.925 -0.7389 -0.1019 -0.2559
 8431TIP3    H146708   0.846   2.306  13.921 -0.1659 -0.9761 -1.4053
 8431TIP3    H246709   0.799   2.165  13.951 -0.8490 -1.2043 -3.4463
 8432TIP3   OH246710   5.082   5.598  16.065 -0.3272 -0.0333  0.6912
 8432TIP3    H146711   5.000   5.611  16.018 -0.4750  2.5044  1.4797
 8432TIP3    H246712   5.057   5.559  16.149 -0.4289 -1.3886  0.0579
 8433TIP3   OH246713   5.262   2.625   0.012  0.1215  0.3502 -0.0330
 8433TIP3    H146714   5.190   2.564   0.022  0.3220 -0.1151 -1.2650
 8433TIP3    H246715   5.309   2.621   0.095  0.0880 -1.1372 -0.0628
 8434TIP3   OH246716   4.374   0.823   4.268  0.7262 -0.1226 -0.1283
 8434TIP3    H146717   4.323   0.876   4.207 -0.2004 -0.5955  0.2221
 8434TIP3    H246718   4.347   0.853   4.355  0.5446 -0.8336  0.0658
 8435TIP3   OH246719   0.423   3.581  15.811 -0.3355 -0.2542  0.8737
 8435TIP3    H146720   0.334   3.553  15.788 -1.3317  3.5831 -0.8808
 8435TIP3    H246721   0.471   3.580  15.728  0.9608 -1.1828  1.6020
 8436TIP3   OH246722   1.533   4.440  16.140 -0.1001  0.1144  0.0132
 8436TIP3    H146723   1.453   4.389  16.133 -0.3629  0.2702  1.5287
 8436TIP3    H246724   1.535   4.471  16.231  0.5415  1.9836 -0.5748
 8437TIP3   OH246725   4.183   6.129   2.925  0.5564  0.7703  0.3137
 8437TIP3    H146726   4.275   6.157   2.922  0.5226  1.0101  1.2578
 8437TIP3    H246727   4.181   6.057   2.988  0.4629 -0.7646 -1.3490
 8438TIP3   OH246728   1.777   5.454   4.349 -0.0625  0.1782 -0.0027
 8438TIP3    H146729   1.861   5.415   4.327 -0.1890  0.5881 -1.3649
 8438TIP3    H246730   1.787   5.547   4.327 -0.4132  0.5116  1.2077
 8439TIP3   OH246731   0.650   2.373   5.109 -0.2008  0.2063  0.4688
 8439TIP3    H146732   0.670   2.395   5.018 -0.2332  0.4311  0.5171
 8439TIP3    H246733   0.554   2.371   5.112 -0.1979 -0.0088  0.4482
 8440TIP3   OH246734   1.236   4.914  11.649 -0.0109 -0.1974 -0.0216
 8440TIP3    H146735   1.329   4.893  11.645  0.3244  1.2733 -0.4097
 8440TIP3    H246736   1.213   4.941  11.561 -0.0689  2.2545  0.6715
 8441TIP3   OH246737   4.195   0.974  12.184 -0.2105  0.1744  0.0222
 8441TIP3    H146738   4.214   1.066  12.167 -0.3922 -0.2473 -3.1886
 8441TIP3    H246739   4.099   0.969  12.184 -0.2023 -0.0126  0.2459
 8442TIP3   OH246740   1.920   1.677  13.193  0.4523 -0.1996  0.5335
 8442TIP3    H146741   1.909   1.649  13.284  0.0451 -1.3708  0.1427
 8442TIP3    H246742   2.011   1.706  13.187  1.3655 -2.8199  0.6502
 8443TIP3   OH246743   2.703   6.787   1.539 -0.5254 -0.0073 -0.2060
 8443TIP3    H146744   2.770   6.812   1.602  0.8621 -0.4068 -1.4525
 8443TIP3    H246745   2.634   6.747   1.591  1.1684 -1.5688  0.9604
 8444TIP3   OH246746   2.548   3.803  11.378 -0.3897  0.4669  0.0298
 8444TIP3    H146747   2.491   3.822  11.303  0.3259  0.3631 -0.5528
 8444TIP3    H246748   2.552   3.885  11.426 -1.9037  0.1890  0.6984
 8445TIP3   OH246749   6.647   4.301   4.231  0.0840  0.3950  0.0132
 8445TIP3    H146750   6.740   4.322   4.230  0.2254 -0.2084 -0.7345
 8445TIP3    H246751   6.608   4.362   4.169 -0.1501  1.1610  0.8947
 8446TIP3   OH246752   4.225   0.817  11.910  0.6401 -0.3492 -1.4850
 8446TIP3    H146753   4.186   0.899  11.882  3.1780  1.9316  0.9799
 8446TIP3    H246754   4.314   0.819  11.874  1.1477 -1.3925 -0.3724
 8447TIP3   OH246755   3.288   0.803   5.555 -0.2387 -0.6106  0.0956
 8447TIP3    H146756   3.221   0.824   5.490 -1.2880 -1.9787  0.6696
 8447TIP3    H246757   3.312   0.712   5.536 -2.1531 -1.8416  2.8529
 8448TIP3   OH246758   0.436   5.363   4.557 -0.2429  0.0782  0.3556
 8448TIP3    H146759   0.423   5.294   4.623  0.5069  0.4590  0.9198
 8448TIP3    H246760   0.529   5.358   4.535 -0.3990  0.2491 -0.3495
 8449TIP3   OH246761   6.737   0.798   1.608  0.2713  0.2741 -0.3564
 8449TIP3    H146762   6.771   0.709   1.616 -1.3442 -0.2423  1.6411
 8449TIP3    H246763   6.724   0.810   1.514  3.0220 -0.5531 -0.9204
 8450TIP3   OH246764   0.183   4.077   4.300  0.0993 -0.0131  0.3962
 8450TIP3    H146765   0.113   4.023   4.338 -0.9230 -0.4751 -1.9482
 8450TIP3    H246766   0.238   4.014   4.254  0.1675  0.6910 -0.5077
 8451TIP3   OH246767   0.216   3.187  11.415  0.1298 -0.5121 -0.1854
 8451TIP3    H146768   0.159   3.185  11.491  0.4626 -0.3024  0.0772
 8451TIP3    H246769   0.300   3.219  11.449  0.6326 -1.5422 -0.4106
 8452TIP3   OH246770   4.040   4.469   3.774  0.7658 -0.0316  0.3852
 8452TIP3    H146771   4.062   4.378   3.756  0.1281 -0.3274  1.0446
 8452TIP3    H246772   4.035   4.510   3.688  1.1624 -0.5926  0.0878
 8453TIP3   OH246773   4.775   2.613   0.732 -0.2908  0.6848 -0.3673
 8453TIP3    H146774   4.752   2.568   0.652 -1.0191 -4.1876  2.2125
 8453TIP3    H246775   4.692   2.649   0.764 -0.3971  0.8211 -0.7931
 8454TIP3   OH246776   3.114   6.582   3.645 -0.4117  0.7682 -0.0694
 8454TIP3    H146777   3.175   6.508   3.645  1.0003  1.8691  1.0818
 8454TIP3    H246778   3.058   6.566   3.721 -0.3622  0.6859 -0.0496
 8455TIP3   OH246779   1.318   4.019  14.673  0.0567  0.4618  0.9588
 8455TIP3    H146780   1.406   3.988  14.695 -0.8471 -1.3387  2.3539
 8455TIP3    H246781   1.326   4.114  14.668  2.1240  0.3174  0.7990
 8456TIP3   OH246782   2.946   0.071  12.540 -0.2755 -0.3421  0.0657
 8456TIP3    H146783   2.956   0.097  12.632  0.5454 -2.8752  0.7904
 8456TIP3    H246784   2.851   0.067  12.526 -0.4159 -0.5476  1.0144
 8457TIP3   OH246785   1.369   4.122   0.236 -0.7753 -0.1757  0.2162
 8457TIP3    H146786   1.307   4.087   0.172  1.1912 -0.6588 -1.5134
 8457TIP3    H246787   1.362   4.217   0.226 -0.9602 -0.2337 -0.2264
 8458TIP3   OH246788   1.054   1.368  10.996 -0.5433  0.3026 -0.2747
 8458TIP3    H146789   1.085   1.407  11.077 -2.7979 -0.2660  0.9478
 8458TIP3    H246790   1.015   1.441  10.948 -0.2866  0.4324 -0.2860
 8459TIP3   OH246791   0.957   3.056   6.010  0.0124  0.4605 -0.5990
 8459TIP3    H146792   0.876   3.075   6.059  1.3161  0.8701  1.5292
 8459TIP3    H246793   1.006   3.137   6.013  0.7356  0.0604 -1.4222
 8460TIP3   OH246794   3.558   5.128   3.961 -0.7768 -0.0696  0.4097
 8460TIP3    H146795   3.603   5.102   4.042 -3.0793  1.1278  2.1909
 8460TIP3    H246796   3.569   5.223   3.957 -0.2197 -0.1694 -1.0513
 8461TIP3   OH246797   3.350   6.563  15.913 -0.2292  0.1005  0.7051
 8461TIP3    H146798   3.334   6.491  15.974  1.4602 -0.4021  0.5883
 8461TIP3    H246799   3.434   6.542  15.871 -1.4087  0.2960 -1.9936
 8462TIP3   OH246800   1.798   4.537  12.443  0.0773 -0.2134  0.6961
 8462TIP3    H146801   1.776   4.520  12.351  0.2631  0.7344  0.4603
 8462TIP3    H246802   1.862   4.470  12.465  0.9509  0.2741 -0.2498
 8463TIP3   OH246803   4.758   4.212  13.277 -0.4035  0.2528  0.5997
 8463TIP3    H146804   4.689   4.145  13.287  0.4787 -1.0967 -1.6100
 8463TIP3    H246805   4.804   4.211  13.361 -0.8380 -1.4782  0.8730
 8464TIP3   OH246806   4.244   4.383  13.287 -0.0574  0.3096 -0.2678
 8464TIP3    H146807   4.221   4.391  13.379 -1.6791  0.2234 -0.6319
 8464TIP3    H246808   4.163   4.354  13.245  0.2197  1.7964 -1.9360
 8465TIP3   OH246809   2.690   1.165  16.549  0.4787 -0.1215  0.2056
 8465TIP3    H146810   2.700   1.205  16.463 -1.7165 -0.1265 -0.1294
 8465TIP3    H246811   2.762   1.199  16.602 -0.7728  3.6732 -0.2662
 8466TIP3   OH246812   3.746   3.643  13.285  0.5489  0.2950 -0.1687
 8466TIP3    H146813   3.697   3.690  13.217 -0.8478  0.3322  0.7994
 8466TIP3    H246814   3.702   3.668  13.367 -0.5415 -2.9488  0.3865
 8467TIP3   OH246815   6.490   1.996  13.845 -0.2891  0.1059  0.0859
 8467TIP3    H146816   6.424   2.065  13.855 -1.4165 -1.0070  0.6148
 8467TIP3    H246817   6.452   1.936  13.780  0.0695 -0.7033  0.6148
 8468TIP3   OH246818   6.713   1.792   0.419 -0.3090 -0.0317  0.2495
 8468TIP3    H146819   6.734   1.838   0.500  0.4102  0.4922 -0.2153
 8468TIP3    H246820   6.666   1.857   0.366 -1.1224 -0.4912  0.3888
 8469TIP3   OH246821   5.817   6.755   3.555  0.1983  0.0445 -0.0205
 8469TIP3    H146822   5.882   6.692   3.524  0.4563  1.0764 -1.7001
 8469TIP3    H246823   5.821   6.748   3.650  0.0763 -2.5900 -0.1244
 8470TIP3   OH246824   3.579   4.755  11.032 -0.0675 -0.0927 -0.3147
 8470TIP3    H146825   3.608   4.666  11.014 -1.5704 -0.6568 -0.1293
 8470TIP3    H246826   3.650   4.794  11.083 -0.5154 -2.1288  2.0735
 8471TIP3   OH246827   6.797   5.497   2.500  0.3540 -0.5094 -0.0968
 8471TIP3    H146828   6.753   5.522   2.581  2.0661 -2.3227  1.4953
 8471TIP3    H246829   6.785   5.403   2.494  1.9406 -0.7048 -0.8512
 8472TIP3   OH246830   5.662   1.710  16.198  0.1005  0.1384  0.0588
 8472TIP3    H146831   5.663   1.641  16.133  0.6560  0.4697 -0.2881
 8472TIP3    H246832   5.753   1.721  16.224 -0.0429  0.4074  0.4668
 8473TIP3   OH246833   2.404   5.481   4.273  0.1086  0.3487  0.8372
 8473TIP3    H146834   2.350   5.537   4.217  3.0348  0.3085 -2.3763
 8473TIP3    H246835   2.427   5.537   4.347  0.3194  2.3329 -0.6301
 8474TIP3   OH246836   0.175   1.396   6.108 -0.2311  0.2091  0.5845
 8474TIP3    H146837   0.268   1.380   6.126  0.1955  2.1897  0.3169
 8474TIP3    H246838   0.152   1.331   6.042  1.0451 -0.0982  0.4186
 8475TIP3   OH246839   2.225   4.025   4.831  0.0750 -0.4030 -0.4046
 8475TIP3    H146840   2.268   4.028   4.917  0.1565  0.3805 -0.4672
 8475TIP3    H246841   2.267   3.952   4.786 -0.4130 -1.2418  0.4462
 8476TIP3   OH246842   4.440   2.102  17.001  0.2164 -0.0258 -0.1005
 8476TIP3    H146843   4.499   2.166  16.962 -0.4113  1.2840  0.9937
 8476TIP3    H246844   4.457   2.108  17.095  0.1927 -1.5424  0.0194
 8477TIP3   OH246845   3.065   1.250  10.334 -0.4598  0.4699  0.1754
 8477TIP3    H146846   2.984   1.284  10.370 -1.0776 -0.1694 -0.5651
 8477TIP3    H246847   3.044   1.160  10.309  0.2280  0.5652 -0.8136
 8478TIP3   OH246848   1.907   5.669  15.222  0.1459  0.6627 -0.2126
 8478TIP3    H146849   1.930   5.761  15.214 -1.2096  1.0755  0.3714
 8478TIP3    H246850   1.847   5.653  15.149  2.1429 -0.3940 -1.7187
 8479TIP3   OH246851   6.802   3.559   2.026 -0.1471 -0.0784  0.4423
 8479TIP3    H146852   6.878   3.504   2.042 -1.3888 -1.5688  1.6071
 8479TIP3    H246853   6.792   3.559   1.931  2.7068  2.2465  0.0131
 8480TIP3   OH246854   4.308   4.713   2.162  0.3865 -0.3446  0.0147
 8480TIP3    H146855   4.297   4.734   2.254  0.5218 -0.6793  0.1092
 8480TIP3    H246856   4.384   4.765   2.134  0.9396 -0.9673  0.3348
 8481TIP3   OH246857   0.601   4.012   1.979 -0.1100  0.3606 -0.1942
 8481TIP3    H146858   0.672   3.976   1.927 -0.9748  1.1102 -1.9685
 8481TIP3    H246859   0.644   4.054   2.053  1.2523  0.4455 -1.0150
 8482TIP3   OH246860   0.805   6.032   2.436  0.2616  0.1417 -0.2542
 8482TIP3    H146861   0.732   5.973   2.455  1.6013 -1.3181  0.5901
 8482TIP3    H246862   0.859   6.030   2.515  0.7752  1.8954 -0.5222
 8483TIP3   OH246863   4.013   0.344   4.880  0.1563  0.0067 -0.0618
 8483TIP3    H146864   3.940   0.316   4.936  0.3134 -0.4342 -0.0806
 8483TIP3    H246865   4.076   0.381   4.942  0.0190  0.1862 -0.0244
 8484TIP3   OH246866   3.243   4.323  10.862 -0.0649 -0.5300  0.3775
 8484TIP3    H146867   3.193   4.242  10.855 -0.3153 -0.2651 -1.1767
 8484TIP3    H246868   3.329   4.302  10.824 -0.3199  0.0641 -0.5554
 8485TIP3   OH246869   4.127   1.591   1.241 -0.6627 -0.1344  0.2541
 8485TIP3    H146870   4.034   1.610   1.257  0.0326  1.3642  2.9603
 8485TIP3    H246871   4.127   1.499   1.214 -3.0147  0.1856 -1.2096
 8486TIP3   OH246872   1.527   3.897   3.401 -0.0664  0.4227 -0.3368
 8486TIP3    H146873   1.544   3.956   3.474 -1.1113  0.3364 -0.0058
 8486TIP3    H246874   1.438   3.918   3.373 -0.1240 -0.3733 -0.7991
 8487TIP3   OH246875   0.491   2.485   4.238 -0.3458  0.0122 -0.3189
 8487TIP3    H146876   0.442   2.448   4.311  0.3021 -0.3371 -0.0656
 8487TIP3    H246877   0.574   2.438   4.237 -0.0593  0.5156 -0.8298
 8488TIP3   OH246878   5.254   5.993   2.195 -0.3372  0.3050  0.4550
 8488TIP3    H146879   5.309   5.915   2.194 -1.3790 -0.4912  1.9108
 8488TIP3    H246880   5.165   5.961   2.183 -0.8052  1.2224  1.2632
 8489TIP3   OH246881   4.460   2.215   4.712 -0.0516 -0.2817  0.4364
 8489TIP3    H146882   4.439   2.230   4.804  1.0181  0.4170  0.5870
 8489TIP3    H246883   4.554   2.200   4.711  0.0152  0.1244 -0.5922
 8490TIP3   OH246884   2.663   5.505   4.968 -0.1335 -0.0521 -0.4422
 8490TIP3    H146885   2.692   5.596   4.963  0.5532 -0.1020  1.6150
 8490TIP3    H246886   2.715   5.467   5.038 -1.8196 -1.4779  0.1167
 8491TIP3   OH246887   0.921   0.616   2.403  0.3215 -0.5906  0.1700
 8491TIP3    H146888   0.983   0.554   2.441 -1.3327 -1.6509  1.2536
 8491TIP3    H246889   0.881   0.659   2.478 -0.2474  0.0931 -0.5117
 8492TIP3   OH246890   2.049   0.372  16.722  0.3986  0.2606 -0.4404
 8492TIP3    H146891   2.004   0.356  16.639 -0.2648 -0.3711  0.0298
 8492TIP3    H246892   1.981   0.405  16.781  0.6939 -0.0478  0.0799
 8493TIP3   OH246893   5.089   5.648   0.997 -0.1208 -0.0735 -0.2526
 8493TIP3    H146894   5.161   5.585   0.997  0.6050  0.6966 -2.0416
 8493TIP3    H246895   5.130   5.732   1.016 -0.7316  0.2111 -0.1622
 8494TIP3   OH246896   1.534   1.753  15.669  0.3948  0.2879 -0.4747
 8494TIP3    H146897   1.595   1.735  15.740  1.5865  2.0923 -0.9860
 8494TIP3    H246898   1.491   1.669  15.652  3.2546 -1.2620 -0.6054
 8495TIP3   OH246899   6.668   1.885   0.739 -0.0999 -0.2623 -0.4127
 8495TIP3    H146900   6.743   1.933   0.775  0.0141 -0.9066  0.2270
 8495TIP3    H246901   6.603   1.953   0.720  0.7066  0.3197 -1.1329
 8496TIP3   OH246902   4.718   3.355   6.420 -0.5158 -0.2764  0.0631
 8496TIP3    H146903   4.678   3.417   6.481  0.1899 -0.6696  0.9436
 8496TIP3    H246904   4.736   3.407   6.341 -1.5490  0.2103  0.1265
 8497TIP3   OH246905   0.525   1.813  11.132 -0.2945 -0.0302 -0.3713
 8497TIP3    H146906   0.517   1.798  11.038 -1.0577  1.5846 -0.6098
 8497TIP3    H246907   0.619   1.807  11.149  0.0616  1.4137 -1.6029
 8498TIP3   OH246908   5.622   0.118  11.767  0.2198 -0.1074  0.0970
 8498TIP3    H146909   5.543   0.067  11.748  0.6902 -1.1866  0.9968
 8498TIP3    H246910   5.694   0.066  11.730  0.6724  0.0617  0.7249
 8499TIP3   OH246911   4.079   0.031  14.379 -0.5509 -0.2887  0.2812
 8499TIP3    H146912   4.041   0.062  14.296 -0.8789 -0.7825  0.2407
 8499TIP3    H246913   4.101  -0.061  14.362 -1.7649 -0.7574  1.1208
 8500TIP3   OH246914   0.398   1.065  11.561 -0.2631 -0.2402 -0.0796
 8500TIP3    H146915   0.431   1.131  11.622  0.2123 -1.1810  0.7116
 8500TIP3    H246916   0.453   1.074  11.483 -0.6942  0.7882 -0.2793
 8501TIP3   OH246917   4.290   0.905  10.687  0.1138 -0.0542  0.1473
 8501TIP3    H146918   4.198   0.917  10.708  0.2741  1.6978  0.0270
 8501TIP3    H246919   4.296   0.924  10.594  0.7568  1.0399  0.3937
 8502TIP3   OH246920   0.854   4.125   1.609 -0.1119  0.7489  0.1894
 8502TIP3    H146921   0.794   4.200   1.612  1.0887  2.0123 -3.1610
 8502TIP3    H246922   0.941   4.164   1.608  0.5342 -0.5817 -1.9385
 8503TIP3   OH246923   6.318   3.198  10.948  0.2116 -0.4079 -0.0447
 8503TIP3    H146924   6.409   3.186  10.975  0.0335  1.5628  1.7289
 8503TIP3    H246925   6.322   3.255  10.871  0.4818 -0.1729  0.1434
 8504TIP3   OH246926   4.563   1.750   0.779  0.1909 -0.5339 -0.3019
 8504TIP3    H146927   4.535   1.833   0.816  0.1408  0.0891 -1.6633
 8504TIP3    H246928   4.595   1.773   0.692  1.7280 -1.7102 -0.0883
 8505TIP3   OH246929   0.659   0.250   2.456 -0.7416  0.1794  0.1413
 8505TIP3    H146930   0.577   0.275   2.414 -0.8781 -0.0382  0.2805
 8505TIP3    H246931   0.726   0.265   2.388 -1.0195 -0.6513 -0.3283
 8506TIP3   OH246932   2.661   3.149  11.600 -0.1920 -0.8044  0.1766
 8506TIP3    H146933   2.653   3.225  11.541 -2.0935 -1.2979 -0.2697
 8506TIP3    H246934   2.744   3.109  11.575 -0.3531 -0.2865 -1.3415
 8507TIP3   OH246935   0.744   5.705  15.990  0.1916  0.0625 -0.4852
 8507TIP3    H146936   0.705   5.676  16.073 -1.4679  1.5530 -0.6725
 8507TIP3    H246937   0.830   5.664  15.988 -0.5331 -1.6929  0.9936
 8508TIP3   OH246938   1.087   0.367   4.024  0.0270  0.5061 -0.3669
 8508TIP3    H146939   1.141   0.404   3.955  0.3774  1.0945  0.2208
 8508TIP3    H246940   1.003   0.411   4.015 -0.1573  0.0748 -0.8514
 8509TIP3   OH246941   4.503   0.149  10.399  0.2352 -0.2248 -0.2259
 8509TIP3    H146942   4.557   0.214  10.445  1.0006 -2.0172  1.5615
 8509TIP3    H246943   4.566   0.084  10.369 -0.8159 -2.6900  2.4282
 8510TIP3   OH246944   2.308   1.308   3.172  0.0677  0.3572 -0.5138
 8510TIP3    H146945   2.391   1.343   3.203  0.3501  0.0605 -0.9383
 8510TIP3    H246946   2.324   1.282   3.082 -0.3416 -0.1818 -0.4412
 8511TIP3   OH246947   5.701   6.243   2.257  0.2860  0.0073  0.3774
 8511TIP3    H146948   5.620   6.206   2.223  1.3569 -0.0434 -2.3115
 8511TIP3    H246949   5.673   6.295   2.333 -2.1949 -0.2798 -0.2448
 8512TIP3   OH246950   0.035   2.274   3.758  0.2588  0.3844  0.6348
 8512TIP3    H146951   0.001   2.201   3.707 -2.7614  1.7255  0.4946
 8512TIP3    H246952   0.032   2.244   3.849 -0.8207  0.2463  0.5621
 8513TIP3   OH246953   4.460   4.503   0.871 -0.6208  0.1618  0.8044
 8513TIP3    H146954   4.457   4.415   0.833 -0.8025 -0.4571  2.2161
 8513TIP3    H246955   4.381   4.509   0.925 -1.8034  2.0112 -0.9677
 8514TIP3   OH246956   2.446   0.983  12.895  1.3778 -0.6753  0.0512
 8514TIP3    H146957   2.372   1.031  12.858  1.1717 -0.9897  0.0575
 8514TIP3    H246958   2.523   1.034  12.869  1.0567  0.5757  1.4168
 8515TIP3   OH246959   0.039   3.912   2.808 -0.1918 -0.3314 -0.0476
 8515TIP3    H146960   0.076   3.982   2.754  0.2889  0.9981  1.9171
 8515TIP3    H246961  -0.052   3.938   2.823  0.4968  1.0244  2.3242
 8516TIP3   OH246962   2.512   6.676   1.676 -0.3128 -0.1885 -0.7386
 8516TIP3    H146963   2.552   6.661   1.762  1.4198  0.8651 -1.3020
 8516TIP3    H246964   2.420   6.652   1.688  0.1051 -1.0680  1.1109
 8517TIP3   OH246965   3.354   1.076   0.312 -0.2257  0.8112 -0.1435
 8517TIP3    H146966   3.349   1.002   0.374  0.6247  0.9878  0.1529
 8517TIP3    H246967   3.316   1.042   0.231 -0.0901  0.1327  0.0694
 8518TIP3   OH246968   3.567   2.413  13.516 -0.0083  0.2373  0.1841
 8518TIP3    H146969   3.496   2.395  13.577 -0.8834  0.2728 -0.7933
 8518TIP3    H246970   3.561   2.507  13.498 -0.5641  0.0126 -0.9003
 8519TIP3   OH246971   0.913   5.994   5.192 -0.6915 -0.6725 -0.0077
 8519TIP3    H146972   0.958   5.931   5.247 -0.3067 -1.6891 -1.4336
 8519TIP3    H246973   0.975   6.014   5.122 -1.8544 -0.9085 -1.1404
 8520TIP3   OH246974   4.577   6.688   1.503  0.4044  0.4723  0.1331
 8520TIP3    H146975   4.593   6.674   1.597 -0.4745  3.3675  0.8380
 8520TIP3    H246976   4.643   6.753   1.477  0.5244 -0.1652 -1.2379
 8521TIP3   OH246977   3.833   4.757  15.013  0.4433 -1.0769 -0.4203
 8521TIP3    H146978   3.832   4.732  15.105  0.3671 -0.4678 -0.2554
 8521TIP3    H246979   3.916   4.803  15.001 -0.4732  0.7143 -0.1475
 8522TIP3   OH246980   0.886   0.765   6.207 -0.4193 -0.1028  0.2566
 8522TIP3    H146981   0.837   0.718   6.275 -0.5323  0.1073  0.3221
 8522TIP3    H246982   0.863   0.857   6.221  2.0145  0.3368  1.9625
 8523TIP3   OH246983   6.723   4.908  13.655 -0.2915  0.6570 -0.0040
 8523TIP3    H146984   6.679   4.837  13.608  0.5822  0.2573 -0.2406
 8523TIP3    H246985   6.790   4.864  13.708 -1.5240  1.0508  1.9875
 8524TIP3   OH246986   0.838   0.861   3.345  0.2414  0.2578 -0.1427
 8524TIP3    H146987   0.756   0.835   3.304 -0.0223  0.8254  0.0153
 8524TIP3    H246988   0.903   0.857   3.275 -0.1849  1.1329 -0.5983
 8525TIP3   OH246989   4.311   0.123  10.604 -0.0884  0.6179  0.1651
 8525TIP3    H146990   4.309   0.031  10.628 -2.1953  0.4512 -0.4168
 8525TIP3    H246991   4.373   0.128  10.531 -1.3407 -0.7263 -1.0600
 8526TIP3   OH246992   2.919   3.182   1.109 -0.2694 -0.1394 -0.1364
 8526TIP3    H146993   2.987   3.113   1.108  0.4683  0.5304  1.1844
 8526TIP3    H246994   2.951   3.246   1.172 -0.4845  1.9126 -1.9827
 8527TIP3   OH246995   6.752   2.589  12.451  0.2979  0.0749  0.0939
 8527TIP3    H146996   6.703   2.601  12.533 -0.9110  0.2867 -0.6264
 8527TIP3    H246997   6.817   2.659  12.451  0.5246 -0.1125  1.0063
 8528TIP3   OH246998   6.366   1.351  10.767 -0.3819 -0.3531  0.2782
 8528TIP3    H146999   6.458   1.366  10.745 -0.4818 -0.7487 -0.4395
 8528TIP3    H247000   6.330   1.306  10.690 -0.8855 -1.2626  1.0231
 8529TIP3   OH247001   2.134   4.289  10.252  0.0529 -0.2777 -0.0190
 8529TIP3    H147002   2.172   4.331  10.329 -1.2577  0.0406  0.4810
 8529TIP3    H247003   2.167   4.199  10.255 -1.1483 -0.6968  1.7572
 8530TIP3   OH247004   1.925   0.388   1.302 -0.1235 -0.0942 -0.1452
 8530TIP3    H147005   1.851   0.446   1.322 -0.8496 -1.6514  1.9555
 8530TIP3    H247006   1.997   0.448   1.281 -1.1717  1.5403  0.7256
 8531TIP3   OH247007   0.862   1.470   4.014 -0.2004 -0.3210  0.1654
 8531TIP3    H147008   0.914   1.473   3.934  1.0820 -0.7756  0.9534
 8531TIP3    H247009   0.824   1.382   4.014 -0.3131 -0.2721 -0.0129
 8532TIP3   OH247010   6.700   4.059   3.651  0.2750 -0.0792 -0.6616
 8532TIP3    H147011   6.735   4.010   3.725 -1.7498  0.8798  1.0450
 8532TIP3    H247012   6.669   3.992   3.590  0.3833 -0.9006  0.1652
 8533TIP3   OH247013   3.407   5.777  13.923  0.2127  0.2631  0.3078
 8533TIP3    H147014   3.437   5.689  13.946 -0.3355 -0.2668 -0.9044
 8533TIP3    H247015   3.315   5.779  13.951  0.3348  0.5936  0.6909
 8534TIP3   OH247016   5.270   4.293  12.670  0.0413  0.2644 -0.6840
 8534TIP3    H147017   5.210   4.295  12.744 -1.0875 -0.2412 -1.5543
 8534TIP3    H247018   5.357   4.294  12.709 -0.5167  1.2184  0.6066
 8535TIP3   OH247019   1.604   0.949  16.651 -0.1649  0.5997  0.6978
 8535TIP3    H147020   1.556   0.867  16.656 -1.7833  1.5182  0.9844
 8535TIP3    H247021   1.605   0.970  16.557  0.6265  0.0488  0.5807
 8536TIP3   OH247022   0.317   2.701  16.880 -0.3797 -0.3988 -0.4066
 8536TIP3    H147023   0.324   2.622  16.934 -0.8590  0.6897  1.3275
 8536TIP3    H247024   0.380   2.686  16.809  0.7034 -1.6678  0.7471
 8537TIP3   OH247025   3.858   0.084  17.006 -0.0562 -0.2950 -0.4037
 8537TIP3    H147026   3.878   0.019  17.073 -0.4322  0.1681  0.1712
 8537TIP3    H247027   3.863   0.036  16.923  0.6215 -0.8221 -0.0628
 8538TIP3   OH247028   1.227   3.308  14.511 -0.5148  0.3515 -0.2506
 8538TIP3    H147029   1.227   3.230  14.567 -0.0557 -0.1747 -0.9739
 8538TIP3    H247030   1.138   3.313  14.476 -1.3062  1.5944  1.7331
 8539TIP3   OH247031   6.021   2.916  13.608  0.6379 -0.4366 -0.5783
 8539TIP3    H147032   5.952   2.928  13.542 -1.1218 -1.5766  0.9572
 8539TIP3    H247033   6.052   3.005  13.625 -1.9596  0.4327  0.1810
 8540TIP3   OH247034   2.540   5.313   3.897  0.7443 -0.2748 -0.0927
 8540TIP3    H147035   2.605   5.300   3.828  1.0099 -1.2639  0.3331
 8540TIP3    H247036   2.461   5.340   3.850  1.3919  0.7558 -0.6259
 8541TIP3   OH247037   0.944   5.083  16.171 -0.3916 -0.0621  1.0238
 8541TIP3    H147038   0.901   5.045  16.094 -1.0618 -1.2412  1.9404
 8541TIP3    H247039   1.003   5.149  16.136 -1.3304  0.0348 -0.4380
 8542TIP3   OH247040   5.219   1.449  13.712 -0.4701  0.8528 -0.3064
 8542TIP3    H147041   5.246   1.493  13.631 -1.8558 -0.8598 -1.7894
 8542TIP3    H247042   5.124   1.442  13.704 -0.4277 -1.1314  0.5046
 8543TIP3   OH247043   4.506   5.955   0.808  0.1263  0.2892 -0.2043
 8543TIP3    H147044   4.486   5.990   0.895 -0.5453  1.0108 -0.6425
 8543TIP3    H247045   4.463   5.870   0.806 -0.9604  0.8301 -0.2879
 8544TIP3   OH247046   1.856   0.436  13.206  0.5796  0.5424  0.5544
 8544TIP3    H147047   1.846   0.530  13.222  2.8407  0.5960  2.0416
 8544TIP3    H247048   1.938   0.429  13.159 -0.1652 -0.6498 -0.6255
 8545TIP3   OH247049   0.290   4.064  14.657 -0.1728  0.1038  0.2590
 8545TIP3    H147050   0.226   4.097  14.720 -0.6835  0.3021 -0.3504
 8545TIP3    H247051   0.237   4.018  14.592  0.5116 -1.9177  1.0550
 8546TIP3   OH247052   2.835   6.224  15.274  0.2806  0.3238  0.3809
 8546TIP3    H147053   2.886   6.173  15.211  1.0038  0.6598  0.6761
 8546TIP3    H247054   2.857   6.184  15.359  0.8489  1.1146  0.6124
 8547TIP3   OH247055   1.990   3.604   2.113 -0.2449 -0.0066 -0.6808
 8547TIP3    H147056   2.033   3.676   2.159  0.0059 -0.0191 -0.8899
 8547TIP3    H247057   1.946   3.554   2.182 -1.8774  1.3033 -0.7122
 8548TIP3   OH247058   1.384   2.303  12.886 -0.0958 -0.1753 -0.5740
 8548TIP3    H147059   1.387   2.222  12.836  0.9106  0.0462 -0.8890
 8548TIP3    H247060   1.314   2.289  12.950  0.2038 -1.3683 -0.4861
 8549TIP3   OH247061   2.856   6.698  15.508 -0.3498 -0.2481 -0.9336
 8549TIP3    H147062   2.908   6.726  15.583 -1.6755  0.1469 -0.1185
 8549TIP3    H247063   2.818   6.779  15.474 -1.2122 -0.6129 -0.8862
 8550TIP3   OH247064   2.158   0.623   4.849 -0.1946 -0.7165  0.2512
 8550TIP3    H147065   2.237   0.615   4.796  0.7420 -0.9875  1.6251
 8550TIP3    H247066   2.109   0.695   4.810  2.4997  1.9748  1.5022
 8551TIP3   OH247067   4.786   4.322  14.444  0.1598  0.3259  0.1155
 8551TIP3    H147068   4.859   4.276  14.486  0.6825 -0.1115 -1.2127
 8551TIP3    H247069   4.755   4.384  14.510  0.8085 -0.4751  1.1967
 8552TIP3   OH247070   4.205   5.057   4.490 -0.7149 -0.2560 -0.3780
 8552TIP3    H147071   4.225   4.972   4.451 -1.5752 -0.9400  0.6084
 8552TIP3    H247072   4.255   5.057   4.572 -0.1209  0.5249 -0.7235
 8553TIP3   OH247073   0.964   1.793   1.787  0.1096 -0.6252 -0.4183
 8553TIP3    H147074   1.006   1.831   1.864 -0.0120  0.9164 -1.0877
 8553TIP3    H247075   0.964   1.699   1.805 -0.1844 -0.2945  1.5887
 8554TIP3   OH247076   2.908   2.333   6.649 -0.1617  0.6302  0.2025
 8554TIP3    H147077   2.867   2.252   6.617 -1.7315  0.3422  2.6953
 8554TIP3    H247078   3.001   2.313   6.653  0.3370  0.8395 -4.3119
 8555TIP3   OH247079   2.922   6.363   1.653 -0.7245 -0.1435  0.3210
 8555TIP3    H147080   2.896   6.448   1.687  0.4813  1.2641 -2.0186
 8555TIP3    H247081   2.881   6.358   1.566  1.9990 -0.3446 -1.0622
 8556TIP3   OH247082   1.530   4.552  13.889  0.1081 -0.3876  0.2365
 8556TIP3    H147083   1.584   4.621  13.927 -0.6432 -0.2842  1.1662
 8556TIP3    H247084   1.448   4.596  13.866  0.2908 -0.5958 -0.9049
 8557TIP3   OH247085   2.908   3.773   5.974  0.6602 -0.3643 -0.7576
 8557TIP3    H147086   2.909   3.851   6.030  1.3879 -0.3148 -0.8344
 8557TIP3    H247087   2.838   3.719   6.010  2.4614 -1.3288  1.5929
 8558TIP3   OH247088   1.165   2.755   1.418 -0.0638 -0.1130 -0.0273
 8558TIP3    H147089   1.138   2.722   1.504 -2.7718  0.6944 -0.4607
 8558TIP3    H247090   1.134   2.846   1.417 -2.6587 -0.8782 -2.7894
 8559TIP3   OH247091   0.821   4.564  16.573  0.1248 -0.9657 -0.0054
 8559TIP3    H147092   0.779   4.553  16.658  1.3839 -0.1110  0.7552
 8559TIP3    H247093   0.749   4.587  16.514 -0.5642 -0.0273  1.1520
 8560TIP3   OH247094   3.478   2.653   2.367 -0.1121  0.4206 -0.0321
 8560TIP3    H147095   3.541   2.722   2.344  0.5278 -0.6134 -1.5110
 8560TIP3    H247096   3.532   2.575   2.379 -1.0025 -0.2027 -0.0441
 8561TIP3   OH247097   1.928   5.064  16.425  0.8377 -0.0186 -0.0141
 8561TIP3    H147098   1.991   5.050  16.354  1.3779  2.2121 -0.0387
 8561TIP3    H247099   1.876   5.139  16.396  0.6930  0.5616  1.6874
 8562TIP3   OH247100   4.941   3.108  11.599 -0.5784  0.4740 -0.3369
 8562TIP3    H147101   4.922   3.018  11.570 -1.0616  0.8173 -1.1005
 8562TIP3    H247102   4.863   3.135  11.646 -1.8554  1.6598 -2.9413
 8563TIP3   OH247103   1.563   0.652  16.655 -0.3605 -0.1174 -0.1334
 8563TIP3    H147104   1.472   0.626  16.668 -0.6486  0.6570 -0.4967
 8563TIP3    H247105   1.571   0.663  16.560  0.3937 -1.1489 -0.2043
 8564TIP3   OH247106   5.960   2.371   1.414  0.4302  0.4912 -0.7815
 8564TIP3    H147107   5.925   2.459   1.403  2.4114  1.2693 -1.3235
 8564TIP3    H247108   5.998   2.372   1.502  0.8132  0.3170 -0.9448
 8565TIP3   OH247109   3.685   0.207  11.629  0.0826  0.0707  0.4903
 8565TIP3    H147110   3.633   0.197  11.709 -3.0370  1.2513 -1.2169
 8565TIP3    H247111   3.621   0.216  11.559  2.6105  1.9903 -1.8122
 8566TIP3   OH247112   3.922   1.629   2.061  0.1595  0.2825 -0.1048
 8566TIP3    H147113   3.964   1.672   1.986  0.2353 -0.1435 -0.3137
 8566TIP3    H247114   3.962   1.542   2.063 -2.2316 -0.9589 -1.6665
 8567TIP3   OH247115   0.920   6.353  12.619  0.3927 -0.0181 -0.7096
 8567TIP3    H147116   0.917   6.270  12.571  1.0256  1.5050 -3.6149
 8567TIP3    H247117   1.004   6.392  12.594 -0.4307  2.0333 -0.4631
 8568TIP3   OH247118   3.360   4.736   0.868  0.1791 -0.6067 -0.0273
 8568TIP3    H147119   3.335   4.829   0.873  1.7730 -0.1255 -0.4780
 8568TIP3    H247120   3.282   4.693   0.834 -0.5315  0.5972 -0.0052
 8569TIP3   OH247121   4.298   0.230  13.829  0.2735 -0.2855  0.0333
 8569TIP3    H147122   4.250   0.283  13.892 -0.6310  0.0320 -0.8886
 8569TIP3    H247123   4.387   0.224  13.864 -0.3830 -0.7232  1.6901
 8570TIP3   OH247124   3.925   0.611  13.026 -0.4066  0.2082  0.2952
 8570TIP3    H147125   3.904   0.703  13.043  0.3826  0.2806  0.9613
 8570TIP3    H247126   3.934   0.572  13.113  1.7922  0.1038  0.0764
 8571TIP3   OH247127   6.743   4.224   3.285  0.8567  0.3834  0.1327
 8571TIP3    H147128   6.671   4.253   3.230  0.1456 -0.5714  0.5332
 8571TIP3    H247129   6.815   4.207   3.223 -0.1183 -1.2607 -0.6161
 8572TIP3   OH247130   3.885   1.383   4.064  0.3573 -0.0192 -0.1483
 8572TIP3    H147131   3.939   1.458   4.092  0.1521 -0.1504  0.6185
 8572TIP3    H247132   3.795   1.411   4.079  0.0710  0.7266 -2.7041
 8573TIP3   OH247133   0.784   4.419  13.831 -1.0520  0.1777  0.1024
 8573TIP3    H147134   0.867   4.421  13.879 -0.9725 -2.3413  0.1887
 8573TIP3    H247135   0.736   4.345  13.869 -1.8831 -0.5610 -2.2244
 8574TIP3   OH247136   5.981   2.833   2.371  0.5464 -0.4718 -0.1322
 8574TIP3    H147137   5.935   2.750   2.357  2.0476 -1.9790  2.8809
 8574TIP3    H247138   5.923   2.884   2.427  0.9479 -0.9075  0.7142
 8575TIP3   OH247139   0.901   1.524   1.859 -0.1844 -0.4804 -0.2143
 8575TIP3    H147140   0.820   1.523   1.808 -0.1487 -1.1380 -0.2665
 8575TIP3    H247141   0.954   1.454   1.821 -0.4633 -1.4882  1.2087
 8576TIP3   OH247142   0.260   0.236   5.087  0.4632 -0.0839  0.6806
 8576TIP3    H147143   0.313   0.172   5.134 -0.3781 -0.4050  1.2225
 8576TIP3    H247144   0.293   0.233   4.997  2.7137  1.1990  1.4047
 8577TIP3   OH247145   1.784   4.447   5.490 -0.2029 -0.8158  0.3110
 8577TIP3    H147146   1.818   4.534   5.509  0.0907 -1.0229  0.7391
 8577TIP3    H247147   1.698   4.463   5.451 -1.5393 -0.4093  3.2230
 8578TIP3   OH247148   3.426   3.382  11.243 -0.1274  1.4022 -0.1070
 8578TIP3    H147149   3.490   3.311  11.248 -0.3173  1.3291  2.6861
 8578TIP3    H247150   3.398   3.382  11.151  0.8762 -1.2162 -0.5052
 8579TIP3   OH247151   3.556   5.275  10.757  0.2866 -0.5821  0.5321
 8579TIP3    H147152   3.571   5.188  10.793  1.1821 -0.4194  0.5783
 8579TIP3    H247153   3.619   5.282  10.684 -2.2562 -1.3570 -1.9030
 8580TIP3   OH247154   6.764   3.518  11.916 -0.1557 -0.0540 -0.1988
 8580TIP3    H147155   6.697   3.503  11.982  1.4201 -0.7493  1.3168
 8580TIP3    H247156   6.721   3.496  11.833 -1.6002 -1.0989  0.7752
 8581TIP3   OH247157   5.940   1.272  14.637 -0.0148  0.3819  0.3117
 8581TIP3    H147158   6.005   1.205  14.618 -0.1525 -0.1513  1.5707
 8581TIP3    H247159   5.856   1.228  14.625 -0.1275  0.6589  0.0648
 8582TIP3   OH247160   6.063   3.349   3.278  0.1024 -0.2715 -0.1958
 8582TIP3    H147161   6.010   3.428   3.288 -0.2988 -0.5798  0.1294
 8582TIP3    H247162   6.018   3.283   3.330 -0.2904 -1.0709 -1.4892
 8583TIP3   OH247163   6.507   1.389  13.693 -0.4738 -0.8466  0.4979
 8583TIP3    H147164   6.518   1.475  13.734  0.5918 -0.1573 -1.1123
 8583TIP3    H247165   6.577   1.335  13.731 -0.4943 -0.6857  0.7638
 8584TIP3   OH247166   5.405   2.783   2.520  0.1495  0.2461 -0.1911
 8584TIP3    H147167   5.453   2.725   2.579 -0.1511  1.2498  1.0939
 8584TIP3    H247168   5.458   2.862   2.515 -0.5001  0.6996 -0.1481
 8585TIP3   OH247169   3.436   4.603   3.098 -0.7777 -0.5659  0.3348
 8585TIP3    H147170   3.516   4.606   3.151  0.8328 -1.7014 -1.8294
 8585TIP3    H247171   3.431   4.690   3.058  0.5086 -1.0373 -0.9502
 8586TIP3   OH247172   1.493   4.476   5.161 -0.3018  0.1070  0.3925
 8586TIP3    H147173   1.532   4.453   5.246 -1.5987  0.1515  1.0248
 8586TIP3    H247174   1.476   4.570   5.167 -1.5375 -0.1061  0.5958
 8587TIP3   OH247175   2.633   3.047   5.062  0.3070  0.6860  0.1095
 8587TIP3    H147176   2.585   3.062   5.143 -0.1021 -1.0795  0.2353
 8587TIP3    H247177   2.683   3.127   5.048  0.2262  1.0993  1.9906
 8588TIP3   OH247178   4.973   5.339   5.538  0.4006 -0.2829  0.2829
 8588TIP3    H147179   5.034   5.390   5.591  0.4477 -0.3161  0.2608
 8588TIP3    H247180   4.916   5.295   5.601  0.4148 -0.2705  0.3042
 8589TIP3   OH247181   1.356   4.437  12.931 -0.2931  0.0333 -0.0745
 8589TIP3    H147182   1.336   4.367  12.993  0.3991 -0.4460 -0.3759
 8589TIP3    H247183   1.431   4.405  12.882 -0.7766  0.4357 -1.1116
 8590TIP3   OH247184   6.050   6.336   0.509  0.0969 -0.4224 -0.2833
 8590TIP3    H147185   6.108   6.375   0.575  1.1309 -1.6717 -0.4155
 8590TIP3    H247186   6.080   6.246   0.501 -1.7654 -1.0610 -0.5300
 8591TIP3   OH247187   4.958   1.037   4.944 -0.9852 -0.1422  0.8465
 8591TIP3    H147188   4.874   1.027   4.990  0.0631  1.1278  3.2018
 8591TIP3    H247189   5.015   0.972   4.985 -0.1556  0.6726  0.9967
 8592TIP3   OH247190   6.617   3.456  14.960 -0.0598  0.2359  0.0344
 8592TIP3    H147191   6.685   3.474  15.025  0.1811 -0.0241 -0.1444
 8592TIP3    H247192   6.551   3.523  14.976 -0.2088 -0.0877  0.8395
 8593TIP3   OH247193   2.765   0.930  13.485  0.2090 -0.2487 -0.2596
 8593TIP3    H147194   2.778   0.836  13.497 -0.9441 -0.5604 -1.1698
 8593TIP3    H247195   2.764   0.941  13.390 -0.9772  0.4573 -0.1809
 8594TIP3   OH247196   1.148   4.777  15.803 -0.5136 -0.4614  0.2803
 8594TIP3    H147197   1.196   4.854  15.832 -0.2673  0.4092 -2.2242
 8594TIP3    H247198   1.213   4.725  15.755 -0.8771 -1.8733  1.2292
 8595TIP3   OH247199   5.985   3.472  16.067  0.4559  0.1998 -0.0524
 8595TIP3    H147200   6.068   3.504  16.102  0.6672  0.4644 -0.7718
 8595TIP3    H247201   6.001   3.379  16.048 -0.0084 -0.2483  1.5777
 8596TIP3   OH247202   6.461   1.234   1.799 -0.3862  0.9666  0.1803
 8596TIP3    H147203   6.545   1.267   1.765  1.0072 -0.1470  2.2957
 8596TIP3    H247204   6.486   1.168   1.864 -2.9262  1.0072  1.3114
 8597TIP3   OH247205   4.359   3.295   4.612  0.1613  0.2198  0.3916
 8597TIP3    H147206   4.369   3.388   4.593  1.4978  0.0254  0.0270
 8597TIP3    H247207   4.269   3.275   4.588  0.4900  0.9437 -1.6751
 8598TIP3   OH247208   6.456   1.587  14.572  0.4510 -0.7895 -0.8494
 8598TIP3    H147209   6.401   1.517  14.538 -2.5047  0.8324  0.2388
 8598TIP3    H247210   6.481   1.638  14.494 -2.3089  0.2137 -1.1650
 8599TIP3   OH247211   4.720   6.301  12.672 -0.5141 -0.1200  0.1373
 8599TIP3    H147212   4.672   6.374  12.634 -1.9675 -0.2508  1.5993
 8599TIP3    H247213   4.781   6.274  12.604 -0.3097  2.0914 -0.6445
 8600TIP3   OH247214   0.341   2.369  16.560 -0.1186 -0.4747  0.4562
 8600TIP3    H147215   0.271   2.434  16.563 -1.0486 -1.4403  0.5601
 8600TIP3    H247216   0.347   2.337  16.650  3.3482  2.4495  1.5284
 8601TIP3   OH247217   2.646   1.185   2.508  0.3188  0.5301 -0.2541
 8601TIP3    H147218   2.624   1.125   2.437 -2.4899  0.0730  0.8472
 8601TIP3    H247219   2.607   1.269   2.481 -0.8635  0.3241  0.7451
 8602TIP3   OH247220   2.837   0.656  15.017 -0.5212 -0.2562 -0.7844
 8602TIP3    H147221   2.878   0.637  14.932 -1.3513 -0.6436 -1.1053
 8602TIP3    H247222   2.744   0.667  14.997 -0.8207 -0.9508  0.1588
 8603TIP3   OH247223   1.194   6.037   2.670 -0.1031  0.6206  0.8888
 8603TIP3    H147224   1.267   6.080   2.626 -0.8648 -0.2335 -1.3653
 8603TIP3    H247225   1.231   6.004   2.752  1.8258  0.9218  0.1951
 8604TIP3   OH247226   2.215   2.855  14.880 -0.8511 -0.0613 -0.6829
 8604TIP3    H147227   2.227   2.950  14.886 -0.1842 -0.2214  3.7310
 8604TIP3    H247228   2.298   2.822  14.846 -0.1893  0.8430  0.0109
 8605TIP3   OH247229   3.876   3.696  10.584  0.2861 -0.0163  0.3627
 8605TIP3    H147230   3.860   3.746  10.504 -2.6831 -1.9814 -0.4424
 8605TIP3    H247231   3.809   3.726  10.645  1.2386  0.0094  1.4431
 8606TIP3   OH247232   5.363   3.154   3.732 -0.0592  0.5928  0.2692
 8606TIP3    H147233   5.339   3.247   3.731  0.5518  0.7545  0.3086
 8606TIP3    H247234   5.279   3.108   3.728 -0.3878  1.1443  0.6055
 8607TIP3   OH247235   1.170   2.074   6.064 -0.3891  0.0362  0.1636
 8607TIP3    H147236   1.249   2.128   6.070  0.9780 -1.8999  0.7554
 8607TIP3    H247237   1.125   2.089   6.148  0.0674  0.1149  0.3984
 8608TIP3   OH247238   4.819   0.104   1.966 -0.7089  0.1395  0.3440
 8608TIP3    H147239   4.767   0.048   2.024 -1.6327  1.4339  0.8125
 8608TIP3    H247240   4.898   0.052   1.947 -1.7107 -1.4818  0.4017
 8609TIP3   OH247241   3.451   0.902  11.847 -0.6542  0.0041 -0.1223
 8609TIP3    H147242   3.394   0.972  11.816 -1.2278  0.0409  0.9651
 8609TIP3    H247243   3.525   0.903  11.787 -0.8945  1.2100 -0.4186
 8610TIP3   OH247244   2.376   4.985   2.242 -0.8373  0.2980  0.2829
 8610TIP3    H147245   2.443   4.947   2.184  0.4102 -0.7856  2.3181
 8610TIP3    H247246   2.338   5.056   2.191  0.3456 -0.4587 -1.7735
 8611TIP3   OH247247   5.134   6.092   1.928  0.2540  0.1839  0.2197
 8611TIP3    H147248   5.170   6.088   2.016 -0.5022 -2.2675  0.4945
 8611TIP3    H247249   5.042   6.068   1.938  0.1018  0.0255 -1.2165
 8612TIP3   OH247250   0.058   5.390   3.844  0.3393 -0.0602 -0.7497
 8612TIP3    H147251  -0.036   5.377   3.859  0.5288 -0.8294 -0.1199
 8612TIP3    H247252   0.093   5.302   3.833  1.1072  0.1651 -0.2023
 8613TIP3   OH247253   5.468   1.794   3.082  0.8748 -0.7736  0.0931
 8613TIP3    H147254   5.506   1.757   3.162  0.3501 -0.5397  0.4601
 8613TIP3    H247255   5.527   1.865   3.058  0.7641 -0.5222  0.5591
 8614TIP3   OH247256   6.609   2.574  15.525 -0.6214 -0.0849  0.2103
 8614TIP3    H147257   6.622   2.604  15.615 -2.8919  0.1906  0.5152
 8614TIP3    H247258   6.617   2.653  15.472 -2.5623  0.4317  0.5854
 8615TIP3   OH247259   6.311   3.426  16.341 -0.4916  0.2082 -0.3769
 8615TIP3    H147260   6.253   3.469  16.404  0.0399 -0.2894  0.4737
 8615TIP3    H247261   6.281   3.458  16.256 -0.6261  1.6471  0.1715
 8616TIP3   OH247262   3.087   1.663  14.833 -0.6170 -0.6682 -0.1391
 8616TIP3    H147263   3.177   1.639  14.810  0.2580  0.2538  1.9545
 8616TIP3    H247264   3.045   1.581  14.858 -0.2374 -1.0636 -0.8040
 8617TIP3   OH247265   6.670   0.241   4.399 -0.2424 -0.1794 -0.2654
 8617TIP3    H147266   6.752   0.236   4.448  1.8064 -0.1259 -3.3970
 8617TIP3    H247267   6.648   0.150   4.379  0.2783 -0.1202 -1.1897
 8618TIP3   OH247268   6.574   2.373  12.871  0.5340 -0.4928  0.0842
 8618TIP3    H147269   6.526   2.318  12.933 -1.3105  0.9351  0.0123
 8618TIP3    H247270   6.666   2.359  12.893  0.0070 -1.2897  2.0433
 8619TIP3   OH247271   4.184   0.564   2.799 -0.0553 -0.2120 -0.4821
 8619TIP3    H147272   4.175   0.635   2.864 -0.4927 -0.4398 -0.2845
 8619TIP3    H247273   4.102   0.515   2.807 -1.2692  1.1992 -2.9529
 8620TIP3   OH247274   0.530   3.755   2.212  0.7633 -0.3673 -0.1381
 8620TIP3    H147275   0.554   3.800   2.131  0.4380  0.7750  0.3664
 8620TIP3    H247276   0.611   3.755   2.264  0.5806  0.3408  0.1626
 8621TIP3   OH247277   2.940   0.196   4.762  0.2345 -0.2125  0.6146
 8621TIP3    H147278   2.897   0.181   4.847  2.5411 -1.0574  1.7024
 8621TIP3    H247279   3.021   0.145   4.767  0.5189 -0.1370 -2.0556
 8622TIP3   OH247280   1.198   3.140   1.687  0.1248 -0.0375 -0.3798
 8622TIP3    H147281   1.156   3.211   1.736  1.1867  0.8775 -0.7599
 8622TIP3    H247282   1.203   3.172   1.597 -0.0726 -0.9223 -0.7189
 8623TIP3   OH247283   1.176   3.904   2.234  0.0520 -0.4121 -0.0563
 8623TIP3    H147284   1.173   3.951   2.317 -1.3379  0.9427 -0.8317
 8623TIP3    H247285   1.200   3.814   2.258 -2.2159 -0.5565  2.0360
 8624TIP3   OH247286   1.682   3.423  11.819  0.5666  0.2691 -0.0814
 8624TIP3    H147287   1.659   3.491  11.756  1.5050  0.1202 -0.5963
 8624TIP3    H247288   1.629   3.347  11.794  1.0018  0.1846 -0.7430
 8625TIP3   OH247289   3.760   1.015   0.457  0.1981 -0.0392 -0.1797
 8625TIP3    H147290   3.832   1.059   0.501  0.0563 -0.5783  0.6291
 8625TIP3    H247291   3.714   0.968   0.528 -0.2755 -0.6054 -0.8463
 8626TIP3   OH247292   1.232   4.417   0.865  0.1009  0.1298  0.3581
 8626TIP3    H147293   1.225   4.329   0.828 -0.5298  0.5461 -0.5630
 8626TIP3    H247294   1.325   4.439   0.856  0.2265 -0.3681  0.4178
 8627TIP3   OH247295   2.144   4.956  14.103 -0.2254 -0.4610  0.8563
 8627TIP3    H147296   2.170   5.017  14.172 -0.1060  0.0234  0.3941
 8627TIP3    H247297   2.110   5.012  14.033  0.7440 -0.8454  0.0458
 8628TIP3   OH247298   2.167   3.587   0.418  0.1285 -0.4262  0.0679
 8628TIP3    H147299   2.202   3.499   0.400 -4.8898 -2.2405 -3.3355
 8628TIP3    H247300   2.104   3.573   0.489 -0.5135  0.4243 -0.3150
 8629TIP3   OH247301   2.957   0.466   4.361 -0.1622  0.1819 -0.1888
 8629TIP3    H147302   2.986   0.384   4.400  1.5118  0.2812 -1.1177
 8629TIP3    H247303   2.863   0.454   4.347 -0.1517 -1.1420  0.6943
 8630TIP3   OH247304   5.331   6.348  14.738 -0.3028  0.3118  0.0485
 8630TIP3    H147305   5.329   6.296  14.818  0.8000  0.0951 -0.0456
 8630TIP3    H247306   5.320   6.284  14.668 -0.1212  0.3555 -0.0199
 8631TIP3   OH247307   2.448   1.990  16.489  0.1093  1.0684  0.8724
 8631TIP3    H147308   2.370   1.997  16.543 -0.3854 -1.0703  0.5011
 8631TIP3    H247309   2.464   1.896  16.481  1.0913  1.3591 -1.3814
 8632TIP3   OH247310   3.521   2.050   4.074  0.4250  0.0600  0.1619
 8632TIP3    H147311   3.594   2.000   4.038  0.3760 -0.4231  0.7139
 8632TIP3    H247312   3.445   1.992   4.065  0.3825  0.0005  0.8826
 8633TIP3   OH247313   5.989   3.167   2.665  0.5656  0.0977 -0.6064
 8633TIP3    H147314   6.008   3.099   2.600  0.9731 -0.7485  0.3835
 8633TIP3    H247315   6.025   3.134   2.747 -0.0915  1.0723  0.1057
 8634TIP3   OH247316   0.241   3.728   0.994 -0.3103  0.1409 -0.1388
 8634TIP3    H147317   0.326   3.765   0.967  0.3348  0.7214  2.4505
 8634TIP3    H247318   0.177   3.795   0.968  0.3844  1.1289  0.5921
 8635TIP3   OH247319   2.052   5.525   0.738 -0.9206  0.8628  0.4028
 8635TIP3    H147320   2.103   5.605   0.750 -0.7877  0.6429  1.3418
 8635TIP3    H247321   1.975   5.537   0.793  0.1398 -0.5423  2.2898
 8636TIP3   OH247322   2.408   0.593  14.057 -0.5675  0.5521  0.7207
 8636TIP3    H147323   2.338   0.585  13.992  0.3486  1.1621 -0.3945
 8636TIP3    H247324   2.368   0.636  14.132 -1.5469  0.2443  0.3807
 8637TIP3   OH247325   4.239   0.565   0.858  0.4601 -0.2704 -0.2841
 8637TIP3    H147326   4.288   0.614   0.792 -1.3816  1.4876 -0.4460
 8637TIP3    H247327   4.151   0.557   0.821  0.0705 -1.5691  0.8502
 8638TIP3   OH247328   3.025   4.982  16.960  0.2259 -0.4057 -0.1021
 8638TIP3    H147329   3.091   4.953  16.897  0.8602 -0.5481  0.5951
 8638TIP3    H247330   3.073   4.987  17.043 -0.3749  0.6037  0.2024
 8639TIP3   OH247331   3.779   1.086  15.169  0.3882 -0.5755  0.3353
 8639TIP3    H147332   3.835   1.012  15.143 -1.5495 -0.9646 -3.3641
 8639TIP3    H247333   3.703   1.044  15.209  0.3753 -0.4271  0.4634
 8640TIP3   OH247334   5.933   2.314  13.046  0.0855 -0.2721  0.7053
 8640TIP3    H147335   6.009   2.255  13.046 -0.6035 -1.1836  0.0619
 8640TIP3    H247336   5.963   2.391  13.094  1.4656 -0.5512  0.3354
 8641TIP3   OH247337   1.097   5.815  14.058 -0.2535  0.2746  0.1554
 8641TIP3    H147338   1.055   5.851  13.980  0.4828 -1.0038 -0.8910
 8641TIP3    H247339   1.049   5.734  14.076  0.0813  0.1600  0.5606
 8642TIP3   OH247340   0.519   3.680  14.346 -0.2619 -0.2640 -0.4514
 8642TIP3    H147341   0.424   3.667  14.352 -0.1841 -0.6932 -0.1376
 8642TIP3    H247342   0.547   3.622  14.275 -0.1170 -0.7894  0.0231
 8643TIP3   OH247343   3.615   6.236  16.156 -0.0449  0.5387 -0.2361
 8643TIP3    H147344   3.603   6.159  16.212  1.0068  0.2660 -0.3650
 8643TIP3    H247345   3.709   6.257  16.163  0.0270  0.7541 -1.5652
 8644TIP3   OH247346   4.603   6.653   6.046  0.1139  0.7352  0.0265
 8644TIP3    H147347   4.589   6.747   6.050  0.0344  1.0454 -4.0410
 8644TIP3    H247348   4.669   6.640   5.979 -1.3641 -2.1421 -1.0852
 8645TIP3   OH247349   5.251   3.186   0.402 -0.5433  0.6100 -0.1239
 8645TIP3    H147350   5.290   3.184   0.315  0.1285 -0.2232  0.1878
 8645TIP3    H247351   5.288   3.265   0.442 -0.7506  0.9226 -0.5441
 8646TIP3   OH247352   0.650   5.937  12.008  0.0188  0.7166  0.1154
 8646TIP3    H147353   0.580   5.984  11.962 -0.4046  0.0478  0.0601
 8646TIP3    H247354   0.622   5.846  12.007  0.4208  0.5731  0.9575
 8647TIP3   OH247355   0.962   3.877   0.350 -0.3406 -0.0085 -0.3672
 8647TIP3    H147356   0.926   3.953   0.396 -0.0178 -0.6820  1.0586
 8647TIP3    H247357   0.950   3.897   0.257 -1.3580  1.2388  0.0040
 8648TIP3   OH247358   0.049   2.424   5.700  0.0341  0.1413 -0.8428
 8648TIP3    H147359  -0.008   2.425   5.777 -0.5519  0.7727 -1.2767
 8648TIP3    H247360   0.109   2.497   5.715 -1.5786  1.7978 -2.0655
 8649TIP3   OH247361   2.342   6.156  16.707 -0.7400  0.2659  0.0009
 8649TIP3    H147362   2.393   6.081  16.677  0.7944  0.7977  1.0828
 8649TIP3    H247363   2.335   6.143  16.802  1.4727  2.4795  0.5816
 8650TIP3   OH247364   3.559   2.825  10.752  0.0395  0.1904  0.0066
 8650TIP3    H147365   3.472   2.865  10.756 -0.6703 -1.2769  0.1516
 8650TIP3    H247366   3.619   2.898  10.741 -1.1337  1.3179  0.8189
 8651TIP3   OH247367   2.709   2.642  14.064 -0.3676 -0.1924  0.4386
 8651TIP3    H147368   2.715   2.551  14.095  1.2241  0.1436  1.2706
 8651TIP3    H247369   2.749   2.693  14.135  0.3864  0.9649 -0.7851
 8652TIP3   OH247370   0.427   3.250  14.164 -0.1903 -0.0578  0.0963
 8652TIP3    H147371   0.470   3.182  14.217 -0.3866 -0.8048 -0.6846
 8652TIP3    H247372   0.478   3.329  14.180  0.3243 -0.4937  0.6570
 8653TIP3   OH247373   3.532   3.455   2.759  0.0019  0.6645 -0.3431
 8653TIP3    H147374   3.557   3.362   2.754 -0.4106  0.3305  2.3392
 8653TIP3    H247375   3.610   3.502   2.729  0.1677 -0.4993 -1.8972
 8654TIP3   OH247376   3.044   2.883   0.424 -0.1195 -0.4949 -0.1936
 8654TIP3    H147377   3.101   2.852   0.495  2.0359  0.1200 -1.5452
 8654TIP3    H247378   2.986   2.810   0.405 -0.5729 -0.7730  1.9686
 8655TIP3   OH247379   6.617   4.336  12.618 -0.1704 -0.2205 -0.1932
 8655TIP3    H147380   6.698   4.367  12.661 -0.9628 -0.2759  1.4274
 8655TIP3    H247381   6.598   4.403  12.552 -0.1625  1.1694  1.1501
 8656TIP3   OH247382   2.105   4.662  16.992  0.0858 -0.1429  0.2175
 8656TIP3    H147383   2.030   4.721  16.985 -1.6022 -2.2424 -0.6221
 8656TIP3    H247384   2.128   4.663  17.085 -1.2342  0.2783  0.5585
 8657TIP3   OH247385   0.935   1.834  12.626 -0.8435 -0.2821 -0.1506
 8657TIP3    H147386   0.855   1.843  12.576 -0.4398  0.0867 -0.7400
 8657TIP3    H247387   0.972   1.922  12.629  0.4514 -0.7467 -1.4264
 8658TIP3   OH247388   6.302   3.570  10.775 -0.0001 -0.5844  0.1813
 8658TIP3    H147389   6.214   3.546  10.747  0.3123 -1.8745  0.2572
 8658TIP3    H247390   6.359   3.505  10.733  0.8349 -0.2508  0.7762
 8659TIP3   OH247391   1.978   0.623   2.571 -0.5634 -0.2736 -0.1348
 8659TIP3    H147392   1.994   0.549   2.512  1.0080  0.7009 -1.0002
 8659TIP3    H247393   2.065   0.653   2.597 -1.2186 -0.0815  1.9748
 8660TIP3   OH247394   1.840   5.402   4.837 -0.1277  0.5525 -0.3298
 8660TIP3    H147395   1.919   5.356   4.865 -0.4650 -0.1895 -0.5532
 8660TIP3    H247396   1.818   5.459   4.911  0.2522  0.2841 -0.0017
 8661TIP3   OH247397   5.343   1.383   4.296 -0.7709 -0.4363 -0.0275
 8661TIP3    H147398   5.379   1.298   4.321 -0.1863  0.6470  3.2519
 8661TIP3    H247399   5.405   1.447   4.331 -1.8261  1.3912 -1.3152
 8662TIP3   OH247400   6.652   2.143  14.565 -0.0492  0.7039 -0.2918
 8662TIP3    H147401   6.664   2.154  14.471  0.1301 -0.7588 -0.4617
 8662TIP3    H247402   6.655   2.232  14.600  0.4603  1.2244 -1.5935
 8663TIP3   OH247403   3.634   2.396  12.039  0.4310  0.2999 -0.0996
 8663TIP3    H147404   3.572   2.408  12.112  1.1842 -0.1140  0.6242
 8663TIP3    H247405   3.680   2.314  12.060  0.3641 -0.0480 -1.2675
 8664TIP3   OH247406   1.643   4.579   3.181  0.1704  0.0606  0.3002
 8664TIP3    H147407   1.556   4.539   3.171  1.4569 -2.6909 -0.9518
 8664TIP3    H247408   1.656   4.627   3.099 -0.3345  0.8579  0.6814
 8665TIP3   OH247409   2.770   4.544  15.796  0.5019 -0.3952  0.7895
 8665TIP3    H147410   2.815   4.620  15.760 -2.8711  0.7048 -1.6533
 8665TIP3    H247411   2.796   4.472  15.738  0.3123 -0.0952  0.3237
 8666TIP3   OH247412   4.930   6.206  12.485  0.1909 -0.0815 -0.3655
 8666TIP3    H147413   4.898   6.276  12.428  0.0728  0.8259  0.7763
 8666TIP3    H247414   4.917   6.126  12.434 -0.2134  0.6633 -1.4731
 8667TIP3   OH247415   6.224   3.102  14.578  0.2215 -0.2214  0.2339
 8667TIP3    H147416   6.312   3.139  14.572  1.1214 -2.2379  0.0923
 8667TIP3    H247417   6.195   3.094  14.487  1.0860 -2.1186  0.0770
 8668TIP3   OH247418   1.323   5.539  13.693  0.1460  0.0732  0.1803
 8668TIP3    H147419   1.404   5.503  13.729 -1.4639 -1.6207  2.3405
 8668TIP3    H247420   1.345   5.561  13.602  3.1714  0.3197  0.8718
 8669TIP3   OH247421   0.277   5.598   4.580 -0.6571  0.6888 -0.9097
 8669TIP3    H147422   0.356   5.543   4.577 -0.3636  1.0514 -0.1449
 8669TIP3    H247423   0.310   5.687   4.589 -1.1339  0.7050  1.2332
 8670TIP3   OH247424   3.834   2.181  16.915 -0.5530  0.6562  0.0202
 8670TIP3    H147425   3.766   2.235  16.956 -0.2423  0.9606  0.1422
 8670TIP3    H247426   3.856   2.115  16.982 -0.5871  0.6801  0.0540
 8671TIP3   OH247427   2.640   3.978  13.688  0.1974  0.0396 -0.0030
 8671TIP3    H147428   2.674   4.067  13.695 -0.3899  0.2701 -0.0241
 8671TIP3    H247429   2.685   3.930  13.757  2.9268 -0.4565 -1.9532
 8672TIP3   OH247430   3.931   4.757   0.508  0.8545  0.2132 -0.2712
 8672TIP3    H147431   3.954   4.672   0.471 -2.0275 -0.9830  0.4583
 8672TIP3    H247432   3.892   4.805   0.434  0.8590  0.2296 -0.2628
 8673TIP3   OH247433   4.272   3.128  14.376  0.0528  0.4098 -0.8842
 8673TIP3    H147434   4.354   3.166  14.344  0.3169 -0.2796 -1.0359
 8673TIP3    H247435   4.299   3.054  14.430 -0.4631  0.2630 -0.8187
 8674TIP3   OH247436   2.381   4.860  16.070  0.4281  0.5119  0.2665
 8674TIP3    H147437   2.364   4.806  16.147  3.8396  0.8636  1.4106
 8674TIP3    H247438   2.416   4.942  16.104 -0.4516  1.7721 -1.6291
 8675TIP3   OH247439   6.547   0.830   4.944  0.5681 -0.3774 -0.3193
 8675TIP3    H147440   6.521   0.743   4.975  0.3920 -0.9597 -1.9488
 8675TIP3    H247441   6.466   0.881   4.946  0.4031 -0.6282 -0.4929
 8676TIP3   OH247442   5.627   3.030   1.654  0.4153 -0.9464  0.0443
 8676TIP3    H147443   5.606   2.989   1.738  0.3058 -2.9316 -0.9007
 8676TIP3    H247444   5.720   3.049   1.659  0.4269 -1.1336  0.5842
 8677TIP3   OH247445   0.119   5.753  14.659  0.1373 -0.4694  0.5222
 8677TIP3    H147446   0.083   5.665  14.643  0.1940 -0.4840  0.4763
 8677TIP3    H247447   0.069   5.810  14.600  0.0494 -0.4601  0.6064
 8678TIP3   OH247448   1.917   6.298   0.258 -0.4715  0.3419  0.1634
 8678TIP3    H147449   1.911   6.391   0.235  0.4162  0.5165  0.6227
 8678TIP3    H247450   1.937   6.297   0.351  1.0108 -0.2652 -0.1299
 8679TIP3   OH247451   3.249   6.020   0.709 -0.0164  0.8536 -0.5369
 8679TIP3    H147452   3.301   6.074   0.648  0.9976  0.5825  0.0634
 8679TIP3    H247453   3.167   6.003   0.662  0.4520  1.2531 -1.5332
 8680TIP3   OH247454   6.560   1.333  10.571 -0.3052  0.7678 -0.1233
 8680TIP3    H147455   6.583   1.401  10.509  1.5582  0.8487  0.5793
 8680TIP3    H247456   6.597   1.253  10.533 -0.5224  0.5521  0.1199
 8681TIP3   OH247457   0.913   0.241   0.122  0.2525  0.9092 -0.5202
 8681TIP3    H147458   0.820   0.223   0.115  0.2835  0.4652  0.1554
 8681TIP3    H247459   0.954   0.175   0.066  0.1993  0.6098 -0.2140
 8682TIP3   OH247460   2.802   1.195  13.112  0.1489  0.2507 -0.3400
 8682TIP3    H147461   2.781   1.191  13.205 -0.4572  0.2343 -0.4738
 8682TIP3    H247462   2.870   1.262  13.105  0.6125 -0.1565  0.1849
 8683TIP3   OH247463   6.212   1.328  11.475  0.3773  0.0121 -0.7292
 8683TIP3    H147464   6.181   1.259  11.416 -1.2047 -1.0150  1.1935
 8683TIP3    H247465   6.146   1.333  11.543  1.5898  1.9210  0.4033
 8684TIP3   OH247466   3.198   2.380   1.295  0.1355 -0.2422 -0.0756
 8684TIP3    H147467   3.121   2.323   1.302 -2.0991  2.4345 -0.7625
 8684TIP3    H247468   3.262   2.341   1.354 -1.5716 -2.8637  0.2173
 8685TIP3   OH247469   5.645   5.467   4.060 -0.4199 -0.2731  0.6705
 8685TIP3    H147470   5.629   5.392   4.117  0.6219 -1.1190 -0.1100
 8685TIP3    H247471   5.567   5.474   4.005  0.5676 -2.5810 -1.1750
 8686TIP3   OH247472   1.512   1.990  14.165 -0.2845 -0.0538 -0.6463
 8686TIP3    H147473   1.470   1.928  14.105 -0.2321 -2.8822  1.9773
 8686TIP3    H247474   1.587   1.941  14.200  2.0559  2.8870 -1.1247
 8687TIP3   OH247475   4.640   2.851   5.633 -0.3904  0.2212  0.0311
 8687TIP3    H147476   4.721   2.873   5.587 -0.6680  1.2522 -0.0128
 8687TIP3    H247477   4.618   2.930   5.682 -1.6734  0.1960 -0.4362
 8688TIP3   OH247478   5.675   3.183   2.080  0.5028 -0.0961 -0.0997
 8688TIP3    H147479   5.768   3.202   2.065  0.5661 -0.3641 -0.0435
 8688TIP3    H247480   5.636   3.269   2.095  0.6794  0.0496 -0.4626
 8689TIP3   OH247481   2.751   2.853   5.813 -0.2512  0.3099  0.2156
 8689TIP3    H147482   2.681   2.918   5.815 -0.1018  0.4555  1.2490
 8689TIP3    H247483   2.785   2.856   5.723  0.0511  1.9624  0.3677
 8690TIP3   OH247484   2.446   5.547   3.162  0.4636  1.0705  0.0668
 8690TIP3    H147485   2.365   5.587   3.194 -0.0633 -0.9256  1.3952
 8690TIP3    H247486   2.451   5.574   3.070 -2.2314  0.5017 -0.3423
 8691TIP3   OH247487   4.364   2.625  12.143 -0.4091 -0.3241 -0.5485
 8691TIP3    H147488   4.444   2.672  12.167 -1.0391  0.0721  0.8692
 8691TIP3    H247489   4.393   2.534  12.132  0.4304  0.0018 -1.1970
 8692TIP3   OH247490   6.057   3.502  10.677  0.3414  0.3053 -0.4275
 8692TIP3    H147491   5.974   3.458  10.695 -0.5481  1.6354 -1.1456
 8692TIP3    H247492   6.050   3.532  10.587  2.1232 -0.6232 -0.9394
 8693TIP3   OH247493   3.789   3.559  12.622 -0.5070  0.7616 -0.0811
 8693TIP3    H147494   3.868   3.612  12.615 -0.8835  1.5538  1.3140
 8693TIP3    H247495   3.738   3.582  12.544  0.7370  0.0039 -1.1556
 8694TIP3   OH247496   0.382   0.128   4.031  0.0782  0.5105  0.3855
 8694TIP3    H147497   0.474   0.148   4.019 -0.4900  2.0466 -1.8836
 8694TIP3    H247498   0.347   0.202   4.081 -0.2663  0.8114 -0.2940
 8695TIP3   OH247499   2.877   4.410  11.496 -0.4101  0.4133 -0.0847
 8695TIP3    H147500   2.880   4.361  11.578  0.5799  0.4591 -0.0830
 8695TIP3    H247501   2.850   4.345  11.431  2.2341 -0.5674 -0.3355
 8696TIP3   OH247502   6.555   2.273   3.130 -0.2684 -0.1014 -0.1264
 8696TIP3    H147503   6.483   2.335   3.131 -0.0201  0.1772  1.1454
 8696TIP3    H247504   6.519   2.195   3.087 -1.6183 -0.3135  1.3286
 8697TIP3   OH247505   1.848   4.406  11.461  0.3481 -0.0235 -0.3860
 8697TIP3    H147506   1.763   4.398  11.418  0.6071  1.3499 -1.2402
 8697TIP3    H247507   1.827   4.429  11.551 -0.1834 -0.6247 -0.3475
 8698TIP3   OH247508   0.834   4.033  11.501  0.6372  0.2185 -0.2895
 8698TIP3    H147509   0.803   3.953  11.545  1.6546  0.8005  1.6241
 8698TIP3    H247510   0.757   4.070  11.459  0.3649 -2.3910 -2.3381
 8699TIP3   OH247511   4.047   4.736   1.467  0.6631  0.0691  0.1253
 8699TIP3    H147512   3.997   4.816   1.447 -0.4840 -0.1714  1.8038
 8699TIP3    H247513   4.044   4.729   1.562  2.3308 -1.0053  0.1336
 8700TIP3   OH247514   3.371   2.310  13.667  0.4954 -0.0404 -0.3281
 8700TIP3    H147515   3.423   2.268  13.736 -0.6121 -2.9626 -1.0904
 8700TIP3    H247516   3.280   2.302  13.698  0.0901 -0.1327 -1.4730
 8701TIP3   OH247517   6.631   1.122   0.135 -0.0028 -0.3310 -0.1137
 8701TIP3    H147518   6.541   1.106   0.165 -1.1403  0.0246 -3.0793
 8701TIP3    H247519   6.675   1.037   0.146  0.0051 -0.0640  3.1710
 8702TIP3   OH247520   1.302   3.745  10.510 -0.2357 -0.0952 -0.3748
 8702TIP3    H147521   1.216   3.759  10.548 -0.6206 -0.8277 -0.9501
 8702TIP3    H247522   1.285   3.695  10.430  0.9233 -2.5866  0.8443
 8703TIP3   OH247523   5.318   5.503  10.331 -0.4243 -0.1642  0.6977
 8703TIP3    H147524   5.376   5.524  10.258 -2.7738  1.3168 -0.8821
 8703TIP3    H247525   5.370   5.520  10.409  1.3194  0.8590 -0.6170
 8704TIP3   OH247526   5.916   3.134   2.386  0.4475  0.5539  0.2357
 8704TIP3    H147527   5.912   3.229   2.399 -0.8844  0.4835  0.4969
 8704TIP3    H247528   5.846   3.100   2.441  1.2591 -0.6385  0.5520
 8705TIP3   OH247529   4.235   6.314   5.129  0.0918 -0.4044  0.0538
 8705TIP3    H147530   4.299   6.365   5.178  0.8085  0.1706 -1.4117
 8705TIP3    H247531   4.286   6.245   5.086  0.0077  0.7816 -2.1209
 8706TIP3   OH247532   3.453   4.026  16.431  0.2884 -0.0765 -0.2926
 8706TIP3    H147533   3.521   4.068  16.378 -0.4902  0.2169 -1.1055
 8706TIP3    H247534   3.474   4.049  16.521  0.4997  1.1658 -0.6412
 8707TIP3   OH247535   1.217   1.204   4.740  0.0532 -0.6213 -0.7912
 8707TIP3    H147536   1.217   1.259   4.819  0.5714 -1.4408 -0.2087
 8707TIP3    H247537   1.125   1.178   4.730  0.1845 -1.5813  0.3193
 8708TIP3   OH247538   5.074   5.013   1.490  0.2002 -0.7841 -0.0208
 8708TIP3    H147539   4.985   5.046   1.493  0.7591  0.7366  1.1855
 8708TIP3    H247540   5.128   5.092   1.479  1.3708 -1.7248 -1.3863
 8709TIP3   OH247541   5.937   2.836  12.090 -0.2117 -0.3213  0.5960
 8709TIP3    H147542   5.978   2.901  12.146 -2.1821  0.9348  0.6503
 8709TIP3    H247543   6.010   2.799  12.040  1.0751  1.2892  1.1844
 8710TIP3   OH247544   6.406   4.009  13.672  0.4026  0.1411 -0.2989
 8710TIP3    H147545   6.349   3.958  13.615 -1.0987  1.2777  0.0947
 8710TIP3    H247546   6.474   3.948  13.701 -0.9612 -1.4512 -0.3252
 8711TIP3   OH247547   1.734   4.465   0.235  0.4849 -0.4309  0.0907
 8711TIP3    H147548   1.727   4.560   0.234 -0.3103 -0.4569 -2.2469
 8711TIP3    H247549   1.822   4.448   0.268  1.6942  1.2518 -2.0105
 8712TIP3   OH247550   3.736   5.619  11.465  0.7813 -0.5506  0.1930
 8712TIP3    H147551   3.658   5.611  11.410  0.0460  0.4730  1.0433
 8712TIP3    H247552   3.804   5.653  11.406  0.1945 -0.1076 -0.2335
 8713TIP3   OH247553   5.452   5.448  16.511  0.0080  0.1771  0.1237
 8713TIP3    H147554   5.495   5.531  16.536  0.0435 -0.0963  1.0223
 8713TIP3    H247555   5.500   5.418  16.435  0.1084  0.8986 -0.1100
 8714TIP3   OH247556   2.554   1.826   1.190 -0.3797  0.2904 -0.0583
 8714TIP3    H147557   2.588   1.778   1.265 -0.9473  0.5344  0.3601
 8714TIP3    H247558   2.567   1.918   1.213 -2.5292  0.4576  0.7295
 8715TIP3   OH247559   6.664   2.727  13.125 -0.6102  0.0671  0.1213
 8715TIP3    H147560   6.602   2.790  13.161  0.1446  0.5251  0.6546
 8715TIP3    H247561   6.675   2.754  13.034 -0.1118  0.8656  0.4085
 8716TIP3   OH247562   6.306   3.190  16.887  0.0331  0.0133 -0.2391
 8716TIP3    H147563   6.394   3.224  16.896  0.2499 -0.5386 -0.2565
 8716TIP3    H247564   6.281   3.212  16.797  0.0145  0.4798 -0.1223
 8717TIP3   OH247565   3.830   5.112   4.709  0.0539 -0.0962  0.2089
 8717TIP3    H147566   3.790   5.093   4.793 -0.2942  0.7740  0.2475
 8717TIP3    H247567   3.923   5.121   4.728  0.4137 -2.6966  0.0249
 8718TIP3   OH247568   5.805   5.055  15.190  0.6175  0.2341  0.0909
 8718TIP3    H147569   5.768   5.041  15.278 -0.6124 -0.5263 -0.5119
 8718TIP3    H247570   5.897   5.032  15.199  0.2780 -0.8950  0.9478
 8719TIP3   OH247571   2.379   3.041  15.341 -0.2893  0.5641 -0.8008
 8719TIP3    H147572   2.379   3.038  15.246  0.1853  0.7524 -0.8150
 8719TIP3    H247573   2.427   3.121  15.362  0.0357  0.2744 -0.4048
 8720TIP3   OH247574   4.979   4.215  16.616 -0.3060 -0.1537  0.4471
 8720TIP3    H147575   4.897   4.189  16.575 -0.5536 -0.5622  1.1721
 8720TIP3    H247576   5.009   4.291  16.566 -1.1077 -0.0230  0.1552
 8721TIP3   OH247577   4.210   4.226  15.910 -0.1096  0.2477  0.2010
 8721TIP3    H147578   4.279   4.195  15.851  0.6101 -1.0039  1.6350
 8721TIP3    H247579   4.194   4.317  15.883  0.1175 -0.2979 -1.9472
 8722TIP3   OH247580   3.138   3.155  11.663  0.3253 -0.0655 -0.1212
 8722TIP3    H147581   3.224   3.117  11.682  0.0274 -0.8003 -0.2104
 8722TIP3    H247582   3.157   3.231  11.608  0.9293 -0.1361 -0.0140
 8723TIP3   OH247583   4.382   0.110  11.305  0.0281  0.1667 -0.4376
 8723TIP3    H147584   4.399   0.137  11.395  0.7005 -0.9644 -0.1990
 8723TIP3    H247585   4.445   0.159  11.252 -0.7629  1.2797 -0.3840
 8724TIP3   OH247586   0.774   2.595  15.244 -0.3248 -0.4346  0.3810
 8724TIP3    H147587   0.862   2.630  15.257 -0.3192  0.5746 -1.9671
 8724TIP3    H247588   0.718   2.650  15.300  0.1717  1.0076 -0.4763
 8725TIP3   OH247589   6.129   0.907  13.620  0.5885 -0.3416 -0.0491
 8725TIP3    H147590   6.085   0.828  13.589 -0.8985  0.1855  0.6139
 8725TIP3    H247591   6.192   0.928  13.552 -0.2370 -1.1051 -1.0747
 8726TIP3   OH247592   3.581   1.929  12.393  0.0717 -0.4883  0.5851
 8726TIP3    H147593   3.659   1.983  12.402  0.4164 -0.9648  0.5160
 8726TIP3    H247594   3.583   1.899  12.302  0.3741 -1.3297  0.8515
 8727TIP3   OH247595   3.450   5.495  16.017 -0.3522 -0.5362  0.5933
 8727TIP3    H147596   3.419   5.462  16.101 -1.3918  0.0572  0.4602
 8727TIP3    H247597   3.502   5.573  16.040 -0.0550 -0.7740  0.7293
 8728TIP3   OH247598   3.213   1.721  12.527 -0.0755  0.2779  0.3252
 8728TIP3    H147599   3.139   1.681  12.481  0.8117 -0.9323 -0.1103
 8728TIP3    H247600   3.240   1.794  12.471  0.0859 -0.2901 -0.3449
 8729TIP3   OH247601   4.462   1.678   6.032 -0.4362 -0.2171 -0.0056
 8729TIP3    H147602   4.381   1.694   6.080 -0.1315 -0.1316  0.4942
 8729TIP3    H247603   4.526   1.736   6.074 -0.6055  1.3240 -1.7904
 8730TIP3   OH247604   1.944   3.830   2.623  0.1528 -0.2649  0.7788
 8730TIP3    H147605   1.877   3.885   2.582 -0.4113 -1.3205  0.2411
 8730TIP3    H247606   2.004   3.892   2.665 -0.3486  0.7596  0.0231
 8731TIP3   OH247607   5.093   2.674  13.640 -0.3229 -0.3173 -0.3704
 8731TIP3    H147608   5.175   2.632  13.665  0.0409  0.0042 -1.0060
 8731TIP3    H247609   5.033   2.601  13.622 -0.6281 -0.5636  1.4737
 8732TIP3   OH247610   0.186   4.200  16.111 -0.1691  0.3371  0.5216
 8732TIP3    H147611   0.208   4.293  16.123  1.4077  0.0452  0.1870
 8732TIP3    H247612   0.096   4.200  16.080 -0.1481  1.7684  0.4102
 8733TIP3   OH247613   3.843   1.466  11.184 -0.3905 -0.7372 -0.4665
 8733TIP3    H147614   3.861   1.560  11.178  0.0515 -0.8887 -1.7043
 8733TIP3    H247615   3.927   1.427  11.209 -0.3240 -0.9027 -0.9469
 8734TIP3   OH247616   2.483   6.701  13.018  0.3497 -0.0058  0.1989
 8734TIP3    H147617   2.469   6.689  13.112 -2.1981 -3.3775 -0.3732
 8734TIP3    H247618   2.399   6.675  12.978  1.7248  0.0122 -3.0580
 8735TIP3   OH247619   6.057   4.348   3.215  0.2451 -0.3867 -0.7585
 8735TIP3    H147620   6.133   4.366   3.271  0.0509 -1.4739 -0.1168
 8735TIP3    H247621   6.095   4.313   3.135  0.4113 -3.6229  0.5835
 8736TIP3   OH247622   4.458   3.021   4.491  0.5955 -0.0181 -0.4545
 8736TIP3    H147623   4.434   3.114   4.498  0.0341 -0.0989 -1.2288
 8736TIP3    H247624   4.377   2.977   4.466  0.7067 -0.8225  0.5216
 8737TIP3   OH247625   0.840   5.896   0.912  0.5834  0.1644 -0.0549
 8737TIP3    H147626   0.913   5.904   0.973  1.2567 -4.2292 -0.0069
 8737TIP3    H247627   0.762   5.892   0.969  0.7458  0.5492  0.1961
 8738TIP3   OH247628   3.900   3.036  13.711 -0.2704 -0.0309 -0.1523
 8738TIP3    H147629   3.939   3.074  13.632  1.1175  0.3710  0.7119
 8738TIP3    H247630   3.927   2.944  13.709 -2.2849 -0.6678 -1.3912
 8739TIP3   OH247631   3.434   4.228   0.623  0.3373  0.1575 -0.5495
 8739TIP3    H147632   3.370   4.241   0.693  1.7922  0.3923  0.7980
 8739TIP3    H247633   3.444   4.314   0.583 -1.0743 -0.1409 -1.5931
 8740TIP3   OH247634   4.218   5.946   0.465  0.2355 -0.2448  0.5127
 8740TIP3    H147635   4.156   5.904   0.524  0.3701  1.2712  1.8158
 8740TIP3    H247636   4.253   5.875   0.412 -1.1430 -1.4180  1.1112
 8741TIP3   OH247637   6.345   5.032  11.528 -0.1040 -0.0685 -0.7766
 8741TIP3    H147638   6.274   5.085  11.492 -0.7557 -1.0065 -0.9124
 8741TIP3    H247639   6.324   5.021  11.620  0.0905  0.0018 -0.7223
 8742TIP3   OH247640   0.862   5.857   5.685 -0.4597 -0.7000 -0.4873
 8742TIP3    H147641   0.803   5.785   5.667 -1.5747  0.3951 -1.3806
 8742TIP3    H247642   0.876   5.854   5.780 -0.1555 -2.3109 -0.5669
 8743TIP3   OH247643   4.381   3.838  10.730  1.0703 -0.2784  0.5377
 8743TIP3    H147644   4.291   3.814  10.712  0.7174 -0.1288  1.9746
 8743TIP3    H247645   4.431   3.802  10.657 -0.2354  0.3618 -0.7106
 8744TIP3   OH247646   6.294   1.747  16.631 -0.2862 -0.0290  0.4677
 8744TIP3    H147647   6.376   1.751  16.682 -0.2540  2.2257  0.3052
 8744TIP3    H247648   6.285   1.654  16.610  2.7953 -0.2531 -0.4149
 8745TIP3   OH247649   2.502   1.369  13.833  0.1524 -0.3270 -0.2907
 8745TIP3    H147650   2.547   1.429  13.892 -0.7116  1.0050 -0.9259
 8745TIP3    H247651   2.480   1.423  13.757  1.5086 -2.0540 -1.9955
 8746TIP3   OH247652   1.622   2.321  15.728  0.5533  0.7393 -0.0908
 8746TIP3    H147653   1.552   2.260  15.753  0.9401  1.4924  3.4755
 8746TIP3    H247654   1.695   2.265  15.702 -0.3833 -0.1522 -0.8901
 8747TIP3   OH247655   0.728   0.282   3.740  0.2134  0.2138  0.3399
 8747TIP3    H147656   0.654   0.317   3.789  0.3652  1.6352 -0.3796
 8747TIP3    H247657   0.688   0.234   3.667 -0.0496 -3.0675  2.4444
 8748TIP3   OH247658   0.019   2.024  15.671 -0.2187 -0.0277  0.4175
 8748TIP3    H147659   0.057   2.009  15.758 -1.1230  1.8140  1.1931
 8748TIP3    H247660  -0.021   1.940  15.647  1.4871 -1.0622  0.9956
 8749TIP3   OH247661   3.779   5.537   3.493  0.1122  0.5813  0.0054
 8749TIP3    H147662   3.818   5.497   3.571  0.4605  0.6417 -0.1339
 8749TIP3    H247663   3.697   5.574   3.524 -0.5401 -0.8002  0.0103
 8750TIP3   OH247664   1.782   6.390   4.820  0.2632  0.8183 -0.5762
 8750TIP3    H147665   1.855   6.368   4.877  0.5720  0.5117 -1.0765
 8750TIP3    H247666   1.725   6.445   4.873  0.9489  1.2124 -0.2370
 8751TIP3   OH247667   3.984   5.910  14.730  0.7624 -0.0570  0.0461
 8751TIP3    H147668   3.968   5.859  14.651  0.5637 -0.1903  0.1709
 8751TIP3    H247669   3.924   5.984  14.724  0.7648 -0.0538  0.0617
 8752TIP3   OH247670   2.623   0.939   5.834 -0.2762 -0.5447 -0.1555
 8752TIP3    H147671   2.717   0.953   5.848 -0.3564  0.6351 -0.7175
 8752TIP3    H247672   2.608   0.967   5.744 -0.9795 -1.8072 -0.4645
 8753TIP3   OH247673   0.137   5.428   5.719  0.9219  0.6518 -0.6381
 8753TIP3    H147674   0.194   5.438   5.795  1.0011  0.1167 -0.6256
 8753TIP3    H247675   0.143   5.335   5.696  0.4323  0.6906 -0.9344
 8754TIP3   OH247676   5.624   5.086  11.848 -0.1107  0.3005  0.2303
 8754TIP3    H147677   5.562   5.015  11.863 -0.0234  0.4074  1.1301
 8754TIP3    H247678   5.706   5.057  11.888  0.1044  0.6419  0.0497
 8755TIP3   OH247679   3.620   5.554  12.483  0.5913 -0.2407 -0.7789
 8755TIP3    H147680   3.679   5.618  12.522  2.0629 -1.4410 -0.9497
 8755TIP3    H247681   3.586   5.505  12.557 -0.4510  0.6213 -0.6578
 8756TIP3   OH247682   0.765   6.453  11.657  0.6497  0.2254 -0.2251
 8756TIP3    H147683   0.713   6.491  11.587  0.9127  0.2344 -0.4170
 8756TIP3    H247684   0.851   6.438  11.618  0.1431 -1.9716 -0.5802
 8757TIP3   OH247685   6.780   3.851  13.247  0.2803 -0.4016  0.0495
 8757TIP3    H147686   6.806   3.941  13.229 -1.0120 -0.4567 -2.5528
 8757TIP3    H247687   6.828   3.799  13.183 -1.3768 -1.1781 -0.6180
 8758TIP3   OH247688   6.302   3.047   3.445 -0.4083 -0.1779  0.6482
 8758TIP3    H147689   6.357   3.124   3.460 -0.4465 -0.1983  0.9012
 8758TIP3    H247690   6.300   3.002   3.529 -0.4332 -0.4257  0.5177
 8759TIP3   OH247691   5.137   1.609  11.182 -0.8024  0.1580  0.3606
 8759TIP3    H147692   5.224   1.642  11.162 -1.0206 -0.7124 -2.3992
 8759TIP3    H247693   5.142   1.584  11.275  2.1055 -0.6110  0.0912
 8760TIP3   OH247694   6.304   4.605  14.174  0.3735 -0.0455 -0.3463
 8760TIP3    H147695   6.269   4.629  14.260  1.4345  0.2232  0.0293
 8760TIP3    H247696   6.381   4.552  14.193  1.2538  0.9164 -1.0955
 8761TIP3   OH247697   2.203   1.960   6.276  0.4778 -0.0816 -0.5914
 8761TIP3    H147698   2.111   1.971   6.251  0.8064 -0.6337 -2.0999
 8761TIP3    H247699   2.207   1.994   6.366 -0.5711  2.8559 -1.5471
 8762TIP3   OH247700   4.912   3.592  16.466  0.2095 -0.7413  0.2824
 8762TIP3    H147701   4.905   3.628  16.378 -0.6114  1.2448  1.0993
 8762TIP3    H247702   4.993   3.541  16.465  0.1793 -0.8272 -1.6163
 8763TIP3   OH247703   0.819   5.980   6.698 -0.2592  0.1262 -0.0011
 8763TIP3    H147704   0.873   6.057   6.682 -0.9029  1.5566  3.5998
 8763TIP3    H247705   0.736   5.999   6.654 -1.0225  2.4617  2.1724
 8764TIP3   OH247706   5.208   0.774   4.290 -0.1246  0.0494 -0.7340
 8764TIP3    H147707   5.138   0.761   4.354  0.9785  1.3565  0.8109
 8764TIP3    H247708   5.167   0.826   4.220 -1.1854 -0.9074 -0.8539
 8765TIP3   OH247709   5.246   2.631  11.315 -0.1256 -0.3861  0.9780
 8765TIP3    H147710   5.247   2.674  11.400  2.0947  0.8212  0.4192
 8765TIP3    H247711   5.256   2.703  11.252 -0.4363 -1.3617 -0.2198
 8766TIP3   OH247712   6.670   1.820   3.342  0.3607  0.3467  0.5109
 8766TIP3    H147713   6.710   1.894   3.386 -1.3444  2.0417 -0.6042
 8766TIP3    H247714   6.586   1.854   3.309 -0.3954 -2.0159 -0.2487
 8767TIP3   OH247715   0.935   2.292  10.643  0.1255  0.4601  0.2519
 8767TIP3    H147716   0.937   2.200  10.670 -0.5730 -0.1877 -1.7402
 8767TIP3    H247717   0.930   2.289  10.547  4.0705  2.6027 -0.2224
 8768TIP3   OH247718   4.944   1.708  16.535  0.1584 -1.0201  0.0525
 8768TIP3    H147719   5.000   1.718  16.458  0.4956 -0.1554  0.4108
 8768TIP3    H247720   4.940   1.613  16.549  0.6582 -1.1466 -0.6139
 8769TIP3   OH247721   0.826   1.818   4.262 -0.0724  0.1258  0.2593
 8769TIP3    H147722   0.840   1.795   4.170 -1.2284  1.9136 -0.4334
 8769TIP3    H247723   0.732   1.807   4.275  0.1959 -0.8220  1.4632
 8770TIP3   OH247724   2.839   1.957  12.216 -0.4309  0.4287 -1.2288
 8770TIP3    H147725   2.754   1.929  12.182 -2.2288  1.1129  2.2165
 8770TIP3    H247726   2.825   2.049  12.239  0.6101  0.0869  1.0120
 8771TIP3   OH247727   5.495   4.728  11.321  0.2628  0.0023  0.5081
 8771TIP3    H147728   5.460   4.721  11.410 -0.2193 -0.5130  0.2872
 8771TIP3    H247729   5.549   4.650  11.310  0.1596 -0.0392  0.2837
 8772TIP3   OH247730   0.228   0.532   4.379 -0.1367 -0.0381 -0.0152
 8772TIP3    H147731   0.221   0.624   4.353 -2.0327  0.3209  1.5772
 8772TIP3    H247732   0.295   0.532   4.448 -0.5907  0.2662  0.4323
 8773TIP3   OH247733   0.574   1.670  10.672 -0.3048 -0.1601  0.5933
 8773TIP3    H147734   0.665   1.695  10.653 -0.6055  0.6890  0.1993
 8773TIP3    H247735   0.568   1.578  10.647  0.0341  0.1964 -0.9095
 8774TIP3   OH247736   5.158   4.753  11.914 -0.1794 -0.0857 -0.1933
 8774TIP3    H147737   5.068   4.780  11.894 -0.0408  0.9581  0.4625
 8774TIP3    H247738   5.162   4.757  12.010  0.5365 -0.2188 -0.2178
 8775TIP3   OH247739   2.819   6.167  10.971  0.2172 -0.6027  0.1349
 8775TIP3    H147740   2.746   6.106  10.981  0.1005 -0.2970  1.3609
 8775TIP3    H247741   2.873   6.152  11.048  2.4356 -2.0622 -1.5873
 8776TIP3   OH247742   3.625   0.456   4.142  0.2749  0.3386 -0.4600
 8776TIP3    H147743   3.583   0.540   4.157  0.1319  0.2058 -0.0980
 8776TIP3    H247744   3.643   0.422   4.230 -1.9733 -1.1775 -0.5035
 8777TIP3   OH247745   6.705   5.224   4.534 -0.3060 -0.2763 -0.1368
 8777TIP3    H147746   6.657   5.299   4.571  0.4201 -0.3047  0.8947
 8777TIP3    H247747   6.792   5.230   4.572  0.5183 -0.2687 -1.9345
 8778TIP3   OH247748   5.605   3.579   5.049  0.2905  0.4532 -0.0332
 8778TIP3    H147749   5.683   3.592   4.996  0.5585 -1.0189 -0.0536
 8778TIP3    H247750   5.542   3.540   4.989  0.4358 -0.7830  0.5852
 8779TIP3   OH247751   5.143   2.471  12.832  0.3618 -0.1177  0.3304
 8779TIP3    H147752   5.078   2.404  12.854  0.3774 -0.0114  0.7098
 8779TIP3    H247753   5.177   2.500  12.917  0.8341 -0.1012  0.1388
 8780TIP3   OH247754   5.990   6.767  11.091 -0.7373 -0.1969  0.3338
 8780TIP3    H147755   5.997   6.736  11.181  1.8196 -0.3232  0.1748
 8780TIP3    H247756   6.077   6.753  11.054 -1.2680  1.3325 -1.6892
 8781TIP3   OH247757   4.345   1.764   1.202  0.3485  0.1372  0.8443
 8781TIP3    H147758   4.293   1.841   1.226 -0.2157 -0.4654  1.6172
 8781TIP3    H247759   4.281   1.693   1.198  0.6959 -0.1315 -0.8163
 8782TIP3   OH247760   1.360   3.843  12.233  0.1096  0.0270 -0.0269
 8782TIP3    H147761   1.314   3.782  12.175  0.8286 -0.3220 -0.2431
 8782TIP3    H247762   1.332   3.929  12.205  0.2584 -0.1497 -0.7375
 8783TIP3   OH247763   2.300   3.529   5.271  0.8477  0.5268  0.6787
 8783TIP3    H147764   2.388   3.510   5.303  0.4602 -2.1049  0.4610
 8783TIP3    H247765   2.303   3.512   5.177 -0.1556 -1.0286  0.8767
 8784TIP3   OH247766   1.125   6.428  12.203 -0.4484  0.3426 -0.3719
 8784TIP3    H147767   1.199   6.437  12.143 -0.0785  0.3285  0.0808
 8784TIP3    H247768   1.073   6.506  12.188  0.7862  1.4439  0.8530
 8785TIP3   OH247769   5.996   0.987  15.513 -0.3944  0.2974 -0.0888
 8785TIP3    H147770   6.032   1.064  15.468 -0.4794  1.7724  2.2263
 8785TIP3    H247771   6.065   0.960  15.573 -1.1883 -0.1268  0.6425
 8786TIP3   OH247772   4.857   0.087   3.545  0.3804  0.2590  0.3624
 8786TIP3    H147773   4.843   0.020   3.612  0.2453  0.6097  0.6870
 8786TIP3    H247774   4.929   0.140   3.580  0.7010  0.0942 -0.0415
 8787TIP3   OH247775   2.522   4.606  10.946  0.3371 -0.5148  0.2023
 8787TIP3    H147776   2.587   4.582  10.880 -0.1321  0.0484 -0.4675
 8787TIP3    H247777   2.567   4.669  11.002  0.3845 -0.1685 -0.2250
 8788TIP3   OH247778   3.067   0.374   5.066 -0.0584  0.4044  0.2778
 8788TIP3    H147779   3.034   0.301   5.119 -1.3971 -0.8944 -2.1566
 8788TIP3    H247780   3.141   0.338   5.018  0.0156  1.0059 -0.0743
 8789TIP3   OH247781   1.104   1.629   2.038  0.3702 -0.3821  0.1269
 8789TIP3    H147782   1.177   1.658   1.984  0.1381  1.2443  0.6284
 8789TIP3    H247783   1.031   1.618   1.976  0.4079  0.3630 -0.0568
 8790TIP3   OH247784   5.910   1.883  15.462 -0.0252 -0.6094 -0.2818
 8790TIP3    H147785   5.833   1.827  15.476 -0.8518  0.5805  0.0668
 8790TIP3    H247786   5.967   1.831  15.405 -1.0346 -1.5641 -0.4613
 8791TIP3   OH247787   6.312   0.445   4.960  0.2846 -0.4762  0.1097
 8791TIP3    H147788   6.344   0.485   5.041 -1.4919 -0.0348  0.6409
 8791TIP3    H247789   6.355   0.495   4.891  0.2416  0.5269  0.7829
 8792TIP3   OH247790   6.652   4.169   0.155 -0.3249 -0.1753  0.1594
 8792TIP3    H147791   6.733   4.219   0.171  0.0948 -0.8152  0.0565
 8792TIP3    H247792   6.676   4.105   0.089 -1.2047  0.3192 -0.6664
 8793TIP3   OH247793   4.549   3.448   2.341  0.2668  0.4070  0.7480
 8793TIP3    H147794   4.529   3.505   2.267 -0.0083 -0.7853 -0.1147
 8793TIP3    H247795   4.488   3.475   2.409  0.9579  1.9647  0.8015
 8794TIP3   OH247796   2.338   0.457  12.461 -0.1802 -0.0403 -0.1295
 8794TIP3    H147797   2.313   0.410  12.381 -0.2703 -0.4079  0.1100
 8794TIP3    H247798   2.330   0.392  12.530  0.5619  0.0840  0.0870
 8795TIP3   OH247799   6.067   2.092   2.825 -0.2799 -0.6470  0.1557
 8795TIP3    H147800   6.023   2.101   2.741  1.6259  2.3318 -0.6714
 8795TIP3    H247801   5.998   2.106   2.890 -1.2752 -0.1951 -0.9559
 8796TIP3   OH247802   5.888   1.258  15.339 -0.1565 -0.6218 -0.0383
 8796TIP3    H147803   5.890   1.292  15.429 -0.4991  1.2232 -0.6879
 8796TIP3    H247804   5.807   1.208  15.334 -1.7834  1.8538 -0.1506
 8797TIP3   OH247805   5.233   5.418  16.314 -0.4806 -0.0006  0.3518
 8797TIP3    H147806   5.254   5.379  16.230  0.3624  1.8452 -0.3434
 8797TIP3    H247807   5.137   5.421  16.316 -0.4947  0.6006 -0.8673
 8798TIP3   OH247808   0.133   1.016   4.800  0.0616 -0.4074  0.1497
 8798TIP3    H147809   0.089   1.033   4.716  0.6852 -0.7723 -0.2566
 8798TIP3    H247810   0.073   0.956   4.846 -0.4219  0.0235  0.0934
 8799TIP3   OH247811   3.821   5.844   2.558 -0.3222  0.7180  0.1692
 8799TIP3    H147812   3.759   5.899   2.605 -0.8682 -0.1317  0.4607
 8799TIP3    H247813   3.808   5.756   2.593  1.3183  0.5755  0.5125
 8800TIP3   OH247814   2.373   6.278   2.961 -0.3854  0.2523  0.2734
 8800TIP3    H147815   2.349   6.194   2.921 -1.0779  0.5977 -0.0526
 8800TIP3    H247816   2.457   6.261   3.004  0.2293 -0.2111 -1.0614
 8801TIP3   OH247817   1.674   6.490   0.260 -0.0721 -0.1889  0.2632
 8801TIP3    H147818   1.658   6.426   0.191 -1.4502 -0.6890  1.0195
 8801TIP3    H247819   1.683   6.573   0.213  0.8007 -0.7706 -0.6438
 8802TIP3   OH247820   6.079   6.181  15.236 -0.0320 -0.4794  0.2304
 8802TIP3    H147821   6.071   6.252  15.173 -0.0297  0.3782  1.1845
 8802TIP3    H247822   6.045   6.104  15.189 -0.4639  0.2256 -0.6503
 8803TIP3   OH247823   6.664   4.580  11.492  0.4644  0.2188  0.2018
 8803TIP3    H147824   6.733   4.627  11.539  0.8917  0.2196 -0.4121
 8803TIP3    H247825   6.708   4.543  11.416 -0.1396 -0.0956 -0.0007
 8804TIP3   OH247826   3.646   0.972  12.340  0.2909  0.1205 -0.8236
 8804TIP3    H147827   3.575   0.911  12.360  0.2536 -0.4808 -2.6198
 8804TIP3    H247828   3.651   1.028  12.417 -2.5570  0.5982 -0.8749
 8805TIP3   OH247829   5.920   4.455   1.203 -0.2490  0.5117 -0.0774
 8805TIP3    H147830   5.836   4.466   1.158  0.0948 -1.0958 -1.2273
 8805TIP3    H247831   5.985   4.451   1.132  0.9646  2.6800  0.8312
 8806TIP3   OH247832   0.457   2.276  14.010  0.3033  0.1524  0.4004
 8806TIP3    H147833   0.435   2.330  13.934 -0.4565  0.6884  0.9921
 8806TIP3    H247834   0.491   2.337  14.075  2.2172 -0.4717  0.0494
 8807TIP3   OH247835   0.682   0.677   2.967 -0.4588 -0.7446  0.3003
 8807TIP3    H147836   0.664   0.642   3.054 -1.8803 -0.6684  0.0607
 8807TIP3    H247837   0.699   0.599   2.914  0.4148 -0.7913  0.6253
 8808TIP3   OH247838   3.901   0.667  15.181 -0.3153  0.4710  0.3068
 8808TIP3    H147839   3.929   0.578  15.202 -1.5314 -0.5003 -1.8406
 8808TIP3    H247840   3.814   0.675  15.220 -1.0392 -0.0504 -1.0988
 8809TIP3   OH247841   5.706   0.162   5.474 -0.0695  0.4475  0.7641
 8809TIP3    H147842   5.702   0.250   5.437 -0.8908  0.1180  0.0225
 8809TIP3    H247843   5.729   0.175   5.566  1.2359  1.3370  0.3467
 8810TIP3   OH247844   4.880   0.866   0.617  0.5042 -0.3061  0.1894
 8810TIP3    H147845   4.795   0.860   0.573  1.1022 -2.0153 -0.8636
 8810TIP3    H247846   4.892   0.779   0.657  1.8112 -0.1548  0.1804
 8811TIP3   OH247847   0.208   4.723  15.917 -0.7333 -0.0577 -0.3313
 8811TIP3    H147848   0.296   4.705  15.883 -1.2263 -0.1204 -1.6135
 8811TIP3    H247849   0.158   4.644  15.895 -0.3844 -1.4331  3.2021
 8812TIP3   OH247850   2.393   2.095   6.098  0.0195 -0.1904 -0.2136
 8812TIP3    H147851   2.299   2.082   6.106 -0.0938 -0.9657 -2.3013
 8812TIP3    H247852   2.431   2.011   6.124  0.0309 -0.4272 -0.9841
 8813TIP3   OH247853   0.580   5.778  16.729 -0.3653 -0.5382 -0.8068
 8813TIP3    H147854   0.603   5.685  16.725  0.5233 -0.5586  2.2347
 8813TIP3    H247855   0.640   5.815  16.794 -2.9122  1.4206  0.6191
 8814TIP3   OH247856   2.573   1.772   5.726 -0.2104 -0.5963 -1.0546
 8814TIP3    H147857   2.530   1.699   5.682 -1.2995 -1.0817  0.7128
 8814TIP3    H247858   2.532   1.776   5.812  0.3968  1.5993 -0.7991
 8815TIP3   OH247859   6.423   3.578   4.785 -0.0003  0.6008  0.1422
 8815TIP3    H147860   6.491   3.559   4.719  1.8185  1.2035  1.7426
 8815TIP3    H247861   6.342   3.581   4.735  0.4037 -4.2508 -1.3694
 8816TIP3   OH247862   6.028   2.576  14.016 -0.2730  0.1860 -0.0402
 8816TIP3    H147863   6.111   2.562  13.971  0.2725 -0.3805  1.0930
 8816TIP3    H247864   5.962   2.539  13.958  0.5819 -2.0917  0.3310
 8817TIP3   OH247865   5.628   4.407  13.184  0.1775  0.0130  0.7057
 8817TIP3    H147866   5.623   4.314  13.206 -0.8915  0.2205  1.3761
 8817TIP3    H247867   5.656   4.408  13.092 -0.0095 -0.9732  0.6284
 8818TIP3   OH247868   4.017   2.303   1.728 -0.5474 -0.4220  0.2709
 8818TIP3    H147869   4.110   2.326   1.726 -0.7473  0.4080 -0.0991
 8818TIP3    H247870   3.973   2.384   1.702 -1.4218 -0.5495  1.2846
 8819TIP3   OH247871   5.804   4.752  17.035 -0.0694 -0.2408  0.0935
 8819TIP3    H147872   5.799   4.699  16.956 -0.8863  0.7842 -0.5803
 8819TIP3    H247873   5.730   4.724  17.088  1.4014 -2.0603  1.2691
 8820TIP3   OH247874   4.029   4.934   3.460 -0.4083 -0.1781 -0.2283
 8820TIP3    H147875   3.988   5.019   3.476 -0.7101  0.2869 -2.9174
 8820TIP3    H247876   4.063   4.907   3.545 -0.9727  2.2677  0.8658
 8821TIP3   OH247877   5.168   4.696   1.485  0.2036 -0.4651 -0.0760
 8821TIP3    H147878   5.189   4.675   1.394 -2.8118 -2.1614 -0.5343
 8821TIP3    H247879   5.143   4.789   1.484  0.4385 -0.4086 -0.9138
 8822TIP3   OH247880   4.437   3.938   1.431 -0.7172  0.3362  0.1263
 8822TIP3    H147881   4.363   3.984   1.470 -0.3624  1.2772 -0.2740
 8822TIP3    H247882   4.497   4.008   1.403  0.6245 -0.4092  1.0253
 8823TIP3   OH247883   3.867   2.797  16.454 -0.2866 -0.0587  0.5926
 8823TIP3    H147884   3.861   2.796  16.359 -0.8801 -1.2742  0.6365
 8823TIP3    H247885   3.885   2.889  16.475 -0.7711  0.3420 -0.6460
 8824TIP3   OH247886   2.195   5.613   4.131 -0.1796  0.4060 -0.1807
 8824TIP3    H147887   2.254   5.684   4.159  1.0351 -0.9221  0.7917
 8824TIP3    H247888   2.203   5.612   4.036  0.6551  0.8621 -0.1297
 8825TIP3   OH247889   2.886   1.725  15.121 -0.6237  0.1000 -0.0208
 8825TIP3    H147890   2.796   1.758  15.125 -0.7808 -0.3986  0.6042
 8825TIP3    H247891   2.932   1.772  15.191 -0.4558  0.1627 -0.1716
 8826TIP3   OH247892   5.353   3.854   5.009  0.2201 -0.1021  0.3140
 8826TIP3    H147893   5.395   3.784   4.958  0.1137  0.4980 -0.6194
 8826TIP3    H247894   5.421   3.920   5.020 -0.5094  1.0013 -1.4448
 8827TIP3   OH247895   6.288   2.514  15.573  0.3306 -0.2660  0.2675
 8827TIP3    H147896   6.341   2.438  15.549  0.2609 -0.6635  1.3198
 8827TIP3    H247897   6.219   2.516  15.506  1.3804 -0.0023 -0.8575
 8828TIP3   OH247898   1.009   0.328  12.962 -0.2508  0.4090 -0.1368
 8828TIP3    H147899   1.022   0.422  12.952 -2.0767  0.7952  0.7728
 8828TIP3    H247900   0.932   0.319  13.018  0.5846 -1.6338  0.8146
 8829TIP3   OH247901   4.264   0.412   5.580  1.4433  0.5782  0.3536
 8829TIP3    H147902   4.349   0.407   5.623  1.4258  2.0613  0.6339
 8829TIP3    H247903   4.201   0.422   5.651  1.1520  0.5278  0.1056
 8830TIP3   OH247904   2.775   2.590  10.921 -0.2231 -0.2358  0.1131
 8830TIP3    H147905   2.822   2.634  10.992 -1.5853  1.5253 -0.0305
 8830TIP3    H247906   2.793   2.642  10.843 -2.7143  0.7963  0.1371
 8831TIP3   OH247907   1.700   1.358  14.455  0.1558 -0.2904 -0.0089
 8831TIP3    H147908   1.615   1.316  14.472  0.1158  0.3138  1.4046
 8831TIP3    H247909   1.677   1.444  14.419  0.1757 -0.1418  0.3378
 8832TIP3   OH247910   5.968   2.858  13.981  0.2291  0.0666  0.2883
 8832TIP3    H147911   5.956   2.789  13.916  1.1391  0.8998 -0.8087
 8832TIP3    H247912   6.010   2.815  14.055  0.6724 -0.5784 -0.3319
 8833TIP3   OH247913   5.385   2.273  12.902  0.0111 -0.2643 -0.4692
 8833TIP3    H147914   5.312   2.265  12.839 -1.1594  0.7181  0.6964
 8833TIP3    H247915   5.427   2.187  12.900 -0.2245 -0.3930 -2.2872
 8834TIP3   OH247916   0.666   0.195  13.261 -0.6674  0.4108 -0.2091
 8834TIP3    H147917   0.658   0.134  13.187 -2.8416 -1.2029  1.2314
 8834TIP3    H247918   0.760   0.198  13.280 -0.4400 -2.1460 -0.6364
 8835TIP3   OH247919   2.387   5.371  14.538  0.6892  0.2744 -0.5888
 8835TIP3    H147920   2.387   5.436  14.608  0.5574  0.0620 -0.3904
 8835TIP3    H247921   2.295   5.364  14.512  0.4774 -0.9122  0.4039
 8836TIP3   OH247922   0.478   0.996   1.316 -0.5932  0.1444 -0.3962
 8836TIP3    H147923   0.451   0.942   1.391 -0.0845  0.3380 -0.0656
 8836TIP3    H247924   0.573   0.983   1.311 -0.7786 -0.9192 -1.8451
 8837TIP3   OH247925   0.769   5.022  12.792 -0.0578  0.1002 -0.2571
 8837TIP3    H147926   0.833   5.084  12.758  0.1565 -0.6191 -1.2290
 8837TIP3    H247927   0.807   4.936  12.773 -0.6706 -0.3280  0.4196
 8838TIP3   OH247928   5.222   2.729   3.116  0.4186 -0.0032 -0.2797
 8838TIP3    H147929   5.200   2.638   3.135 -0.3470  0.4211  0.9726
 8838TIP3    H247930   5.160   2.756   3.049  0.3054 -0.2526 -0.2754
 8839TIP3   OH247931   1.236   3.025  14.984  0.3860 -0.2227  0.3283
 8839TIP3    H147932   1.233   2.930  14.982  1.8293 -0.3411  1.9314
 8839TIP3    H247933   1.176   3.049  15.055 -0.7917  0.1729 -0.7453
 8840TIP3   OH247934   2.940   3.382  12.099 -0.0238  0.1560  0.4346
 8840TIP3    H147935   3.003   3.371  12.028 -1.0843 -1.5365 -0.2987
 8840TIP3    H247936   2.981   3.446  12.157  2.2763 -0.7162 -0.1163
 8841TIP3   OH247937   2.933   1.266  15.604  0.0009  0.1234  0.4136
 8841TIP3    H147938   2.999   1.291  15.539  0.6783 -3.4781 -0.5146
 8841TIP3    H247939   2.850   1.270  15.557  0.3439 -1.2474 -0.3617
 8842TIP3   OH247940   0.978   1.699  14.574  0.5799  0.3311 -0.1179
 8842TIP3    H147941   0.902   1.648  14.600 -0.7499  1.9072 -0.7428
 8842TIP3    H247942   0.980   1.693  14.478  0.6595  1.0545 -0.1720
 8843TIP3   OH247943   4.886   5.218   4.818 -0.7857 -0.1742 -0.6464
 8843TIP3    H147944   4.885   5.124   4.830 -1.1988 -0.0137  0.7902
 8843TIP3    H247945   4.817   5.235   4.754 -2.2187 -0.6960  0.6820
 8844TIP3   OH247946   6.251   5.918  12.973 -0.0002  0.5814  0.4683
 8844TIP3    H147947   6.164   5.946  13.001 -0.2110  0.9357 -0.4879
 8844TIP3    H247948   6.265   5.963  12.890  1.8220  1.9117  1.4336
 8845TIP3   OH247949   0.699   6.272  15.779 -0.4147  0.1938  0.1883
 8845TIP3    H147950   0.639   6.217  15.831 -0.5015  0.1083 -0.0002
 8845TIP3    H247951   0.776   6.217  15.766  0.4589  0.9399  1.9466
 8846TIP3   OH247952   2.993   1.896   1.009  0.1232 -0.6170  0.2515
 8846TIP3    H147953   2.992   1.991   1.002 -2.3853 -0.5089  1.1177
 8846TIP3    H247954   2.984   1.865   0.919  2.6785 -0.1390 -0.2310
 8847TIP3   OH247955   5.247   0.371   0.823  0.4100  0.3621 -0.5527
 8847TIP3    H147956   5.159   0.341   0.849 -0.3540  3.2569  0.7442
 8847TIP3    H247957   5.307   0.312   0.868 -0.8976 -0.8060 -0.2812
 8848TIP3   OH247958   4.175   0.074  16.745 -0.1853  0.6631 -0.0317
 8848TIP3    H147959   4.165   0.164  16.776  0.0297  0.2993  1.1430
 8848TIP3    H247960   4.209   0.083  16.656  2.2260  1.7421  0.9031
 8849TIP3   OH247961   6.486   3.615   5.309 -0.2510  0.3770  0.1745
 8849TIP3    H147962   6.436   3.538   5.336 -1.5728  1.5258  1.1123
 8849TIP3    H247963   6.520   3.593   5.223 -0.3794 -1.3472  0.5355
 8850TIP3   OH247964   1.662   4.536   6.435 -0.8903  0.0854 -0.2360
 8850TIP3    H147965   1.608   4.459   6.422 -2.1094  0.9717 -0.6128
 8850TIP3    H247966   1.681   4.567   6.346  0.7083 -0.4896 -0.1427
 8851TIP3   OH247967   2.116   0.797   6.455 -0.1705  0.4500 -0.6201
 8851TIP3    H147968   2.072   0.868   6.408 -0.7183 -0.4857 -1.5637
 8851TIP3    H247969   2.131   0.730   6.388 -0.4437 -0.6880  0.4259
 8852TIP3   OH247970   1.267   4.765   5.906 -0.0142 -0.1223  0.1549
 8852TIP3    H147971   1.227   4.697   5.961 -0.6732  0.9000  0.9759
 8852TIP3    H247972   1.320   4.816   5.967  1.9692 -0.9656 -0.7703
 8853TIP3   OH247973   2.487   2.253  12.676  0.1578  0.9099  0.4035
 8853TIP3    H147974   2.503   2.159  12.673 -0.2963  0.8423  0.0326
 8853TIP3    H247975   2.414   2.267  12.617 -0.3776  1.3722  1.1601
 8854TIP3   OH247976   1.812   1.469   6.353  0.5520  0.5276 -0.4559
 8854TIP3    H147977   1.788   1.431   6.269  0.3476  0.9879 -0.6116
 8854TIP3    H247978   1.729   1.489   6.396  0.6455 -0.3380  0.1589
 8855TIP3   OH247979   2.416   2.261   4.193 -0.2626 -0.2664 -0.2921
 8855TIP3    H147980   2.355   2.235   4.124 -2.1367 -1.6493  1.7505
 8855TIP3    H247981   2.494   2.208   4.177 -0.3859 -0.0630 -1.7128
 8856TIP3   OH247982   4.447   6.674   3.448  0.2971  0.8245  0.4734
 8856TIP3    H147983   4.365   6.723   3.450 -1.2762 -1.2554 -2.9397
 8856TIP3    H247984   4.446   6.623   3.529 -2.3998  0.0811  0.0843
 8857TIP3   OH247985   3.917   3.420  13.927 -0.1443  0.7423 -0.3441
 8857TIP3    H147986   3.901   3.507  13.963  0.5785  2.0567 -2.9316
 8857TIP3    H247987   3.843   3.405  13.868 -1.5488 -1.5421  1.8130
 8858TIP3   OH247988   1.951   1.171  12.870  0.3827 -0.1737  0.3253
 8858TIP3    H147989   1.981   1.245  12.922 -0.1546  0.4157 -0.1995
 8858TIP3    H247990   1.993   1.182  12.785 -0.0799 -0.1975  0.0891
 8859TIP3   OH247991   5.219   2.257   0.653 -0.1729  0.3894 -0.4032
 8859TIP3    H147992   5.236   2.174   0.698 -1.3590  0.7505  0.7570
 8859TIP3    H247993   5.138   2.242   0.604 -0.2042  0.7581 -0.4651
 8860TIP3   OH247994   3.153   1.947   5.930 -0.2241  0.0603  0.5299
 8860TIP3    H147995   3.184   1.917   6.015 -0.6619 -0.2373  0.5853
 8860TIP3    H247996   3.114   2.033   5.947  0.6012  0.4705  0.4498
 8861TIP3   OH247997   3.473   0.586  11.155 -0.0866  0.4282 -0.0583
 8861TIP3    H147998   3.427   0.525  11.212 -1.5500  0.5160 -1.0997
 8861TIP3    H247999   3.467   0.548  11.068  1.7341  0.5189 -0.2707
 8862TIP3   OH248000   6.203   4.566  15.966  0.0792 -0.1085 -0.0702
 8862TIP3    H148001   6.224   4.606  15.881  0.7314 -0.5503 -0.1205
 8862TIP3    H248002   6.198   4.640  16.027 -0.5753  0.2349 -0.5182
 8863TIP3   OH248003   4.595   0.013   0.285 -0.0622 -0.2733 -0.4624
 8863TIP3    H148004   4.661   0.019   0.354 -0.4979  1.2692 -0.1495
 8863TIP3    H248005   4.593  -0.080   0.262  1.6067 -0.4902  0.1080
 8864TIP3   OH248006   4.857   1.293  15.785  0.5918 -0.4673  0.3700
 8864TIP3    H148007   4.850   1.300  15.690 -2.0154 -2.3465  0.2820
 8864TIP3    H248008   4.926   1.229  15.800  1.0952 -0.0744 -0.2466
 8865TIP3   OH248009   0.933   4.068   3.844 -0.1365 -0.2401 -0.6709
 8865TIP3    H148010   0.960   4.156   3.816 -2.4819  0.7202 -0.1604
 8865TIP3    H248011   0.918   4.021   3.762 -0.6406  0.4570 -0.9908
 8866TIP3   OH248012   4.192   3.859  15.300 -0.1394  0.1883  0.3776
 8866TIP3    H148013   4.158   3.797  15.235  2.7383 -1.0601 -0.1212
 8866TIP3    H248014   4.179   3.815  15.384 -0.4195  0.0591  0.2657
 8867TIP3   OH248015   4.975   6.454   3.024  0.1834  0.6226 -0.0911
 8867TIP3    H148016   5.048   6.476   3.083  0.8134 -0.0109 -0.6088
 8867TIP3    H248017   4.930   6.537   3.010  1.0976  1.1338 -0.1408
 8868TIP3   OH248018   5.997   0.015  16.606  0.6472 -0.1763  0.1480
 8868TIP3    H148019   5.972   0.024  16.514  1.6936  0.4436 -0.0894
 8868TIP3    H248020   5.925   0.055  16.654  1.2210  1.8180 -0.5311
 8869TIP3   OH248021   1.619   2.886   2.616 -0.4583 -0.4410  0.2812
 8869TIP3    H148022   1.568   2.863   2.694  1.5240  0.0437  1.8052
 8869TIP3    H248023   1.628   2.805   2.567 -3.0583 -0.4391 -0.3183
 8870TIP3   OH248024   4.845   1.456   5.739  0.2373  0.0758  0.2561
 8870TIP3    H148025   4.879   1.488   5.822 -0.4339 -0.8210  0.8943
 8870TIP3    H248026   4.771   1.400   5.763 -0.9501  1.0241 -1.0160
 8871TIP3   OH248027   6.799   0.361  13.948 -1.0654  0.0421  0.1466
 8871TIP3    H148028   6.798   0.440  13.895 -0.3423  1.0169  1.5163
 8871TIP3    H248029   6.880   0.316  13.923 -1.2126  0.0123 -0.2674
 8872TIP3   OH248030   4.074   3.290  16.680 -0.2684 -0.6058 -0.4234
 8872TIP3    H148031   4.097   3.382  16.676  0.3829 -0.7613 -0.3147
 8872TIP3    H248032   4.045   3.276  16.770  1.5356 -0.9352  0.1462
 8873TIP3   OH248033   3.122   5.832   1.941  0.1918 -0.3547 -0.3224
 8873TIP3    H148034   3.149   5.924   1.942 -2.4349  0.5020  0.0314
 8873TIP3    H248035   3.166   5.793   2.016  1.5949  0.4981 -0.6659
 8874TIP3   OH248036   6.365   3.762   2.216 -0.0859 -0.2238  0.1729
 8874TIP3    H148037   6.420   3.719   2.150  1.1726  0.1035  0.9741
 8874TIP3    H248038   6.375   3.708   2.294 -0.6110  0.0561  0.4365
 8875TIP3   OH248039   0.283   3.369   1.217 -0.4482 -0.2213  0.0683
 8875TIP3    H148040   0.237   3.340   1.138 -0.4881 -0.3054  0.1224
 8875TIP3    H248041   0.248   3.456   1.234  0.1528  0.1332 -0.4732
 8876TIP3   OH248042   5.775   4.026  16.675  0.1664  0.2275  0.2912
 8876TIP3    H148043   5.834   3.987  16.739  1.2850  0.1364 -0.7539
 8876TIP3    H248044   5.810   3.999  16.590  0.8585  3.2386 -0.5110
 8877TIP3   OH248045   5.789   1.365   1.889  0.0317  0.5407 -0.0077
 8877TIP3    H148046   5.812   1.332   1.803 -2.6005  0.7999 -0.9016
 8877TIP3    H248047   5.733   1.298   1.927 -0.6865  1.4254  0.5426
 8878TIP3   OH248048   6.216   2.123  16.496 -0.4392  0.0310  0.3361
 8878TIP3    H148049   6.296   2.091  16.537  0.1708 -0.9237 -1.4912
 8878TIP3    H248050   6.159   2.046  16.492 -0.5689  0.1538 -0.3576
 8879TIP3   OH248051   1.071   6.760  12.731  0.3685  0.4093 -0.5177
 8879TIP3    H148052   1.105   6.722  12.651  0.7065 -0.6284  0.0981
 8879TIP3    H248053   1.118   6.843  12.740  0.7243  0.2788 -1.1035
 8880TIP3   OH248054   6.379   6.773   2.512  0.0188  0.1143  0.0597
 8880TIP3    H148055   6.454   6.829   2.530  0.5294 -0.7008  0.5394
 8880TIP3    H248056   6.350   6.744   2.599 -0.0865 -0.5554 -0.1971
 8881TIP3   OH248057   5.362   3.161  14.859 -0.3571 -0.6596  0.4370
 8881TIP3    H148058   5.281   3.210  14.872 -1.6954 -2.8357  0.8419
 8881TIP3    H248059   5.431   3.221  14.888 -1.8647  0.9760  0.8418
 8882TIP3   OH248060   4.754   0.588  14.555  0.9343  0.4410  0.2415
 8882TIP3    H148061   4.680   0.609  14.611 -1.3232 -0.1709 -2.2924
 8882TIP3    H248062   4.800   0.671  14.544 -1.1759  1.5873 -0.4897
 8883TIP3   OH248063   4.236   3.160   5.061  0.3943 -0.6740  0.0093
 8883TIP3    H148064   4.285   3.077   5.059 -0.1668 -1.1462  2.7584
 8883TIP3    H248065   4.151   3.137   5.023  1.4685 -0.3076 -2.9396
 8884TIP3   OH248066   3.367   1.969  10.892  0.1389  0.1980 -0.8319
 8884TIP3    H148067   3.335   2.021  10.818  1.0928 -0.2964 -1.6148
 8884TIP3    H248068   3.459   1.993  10.901  0.8178 -1.8208 -1.6750
 8885TIP3   OH248069   3.890   6.641  16.222  0.1423 -0.0611  1.0024
 8885TIP3    H148070   3.864   6.648  16.314 -1.2021 -0.6227  0.6939
 8885TIP3    H248071   3.812   6.670  16.173  1.2232  1.3505  0.0402
 8886TIP3   OH248072   2.699   5.198   3.721  0.7731  0.1761  0.2587
 8886TIP3    H148073   2.684   5.106   3.743 -0.2833  0.2093 -0.2607
 8886TIP3    H248074   2.781   5.198   3.671  0.5183 -0.5648 -0.1800
 8887TIP3   OH248075   2.086   6.428  14.570 -0.4548 -0.9757 -0.0310
 8887TIP3    H148076   2.169   6.401  14.610 -0.1506  2.0497  1.6351
 8887TIP3    H248077   2.100   6.518  14.542 -2.3926 -1.2621 -2.2266
 8888TIP3   OH248078   2.447   1.207   1.031 -0.7749 -0.0439 -0.3882
 8888TIP3    H148079   2.491   1.187   1.113 -0.9682  0.8991 -0.0384
 8888TIP3    H248080   2.364   1.246   1.057 -1.0584 -0.1977 -1.0364
 8889TIP3   OH248081   2.030   3.870  13.595  0.1036  0.6683 -0.2357
 8889TIP3    H148082   2.029   3.782  13.633 -3.8642  0.3808 -0.6519
 8889TIP3    H248083   2.038   3.855  13.501  0.6567  0.8487 -0.2204
 8890TIP3   OH248084   2.361   4.542   3.169 -0.3971  0.1107 -0.3751
 8890TIP3    H148085   2.382   4.581   3.254  0.4096  1.9815 -1.3784
 8890TIP3    H248086   2.424   4.471   3.159  2.6959  2.7959 -1.3569
 8891TIP3   OH248087   1.366   1.603  12.197 -0.1446 -0.2699  0.5037
 8891TIP3    H148088   1.412   1.686  12.213  1.3161 -1.0209  0.3406
 8891TIP3    H248089   1.277   1.619  12.227  0.3379  1.0852  1.3129
 8892TIP3   OH248090   0.860   6.344  16.055  0.4183  0.3471 -0.0354
 8892TIP3    H148091   0.894   6.366  15.968 -0.2457 -0.8630 -0.6362
 8892TIP3    H248092   0.790   6.407  16.070 -1.1085 -0.8817 -1.4884
 8893TIP3   OH248093   4.256   0.424   0.387 -0.0234 -0.2136  0.1473
 8893TIP3    H148094   4.320   0.355   0.408  1.6902  0.8985 -1.0797
 8893TIP3    H248095   4.173   0.391   0.422  1.0105 -2.1908  0.9478
 8894TIP3   OH248096   1.759   2.877   1.745 -0.2220  0.0725 -0.4848
 8894TIP3    H148097   1.685   2.834   1.787  1.0951 -1.2411  0.6130
 8894TIP3    H248098   1.791   2.813   1.681  1.6423 -0.6274  1.0345
 8895TIP3   OH248099   2.889   3.808  15.132 -0.0487  0.4370 -0.8545
 8895TIP3    H148100   2.967   3.773  15.087 -1.0345 -1.1783 -1.4146
 8895TIP3    H248101   2.818   3.752  15.101 -1.1761  0.8683  0.8588
 8896TIP3   OH248102   5.657   1.039  12.536 -0.5191  0.0191  0.2352
 8896TIP3    H148103   5.688   0.965  12.484  1.0370 -0.4538  1.7708
 8896TIP3    H248104   5.572   1.061  12.497  0.6460 -0.1091 -2.6717
 8897TIP3   OH248105   3.757   6.015  15.944 -0.3527 -0.0869  0.2998
 8897TIP3    H148106   3.766   6.034  16.037 -2.2915  1.2835  0.2503
 8897TIP3    H248107   3.721   5.926  15.941 -0.0554 -0.2288  0.8326
 8898TIP3   OH248108   1.096   3.474  15.925  0.2206 -0.0447  0.3006
 8898TIP3    H148109   1.122   3.566  15.924  0.6714 -0.1652 -0.4729
 8898TIP3    H248110   1.144   3.435  15.851 -1.2553 -0.5377 -0.4352
 8899TIP3   OH248111   2.270   1.207   4.179  0.5296  0.0244 -0.4431
 8899TIP3    H148112   2.186   1.215   4.223  1.1083 -1.0178  0.9031
 8899TIP3    H248113   2.251   1.230   4.088 -1.0436  0.5295 -0.0189
 8900TIP3   OH248114   2.748   0.232  13.591 -0.2700  0.1686 -0.1277
 8900TIP3    H148115   2.752   0.266  13.502 -0.8823 -0.5868 -0.4541
 8900TIP3    H248116   2.689   0.157  13.585  0.5452 -0.5509  0.7003
 8901TIP3   OH248117   5.716   5.621  15.937 -0.2132  0.3615  0.0744
 8901TIP3    H148118   5.695   5.698  15.884 -0.9797  0.9900  1.2586
 8901TIP3    H248119   5.785   5.651  15.996 -2.1443  0.9186  2.1832
 8902TIP3   OH248120   2.124   3.489  16.309  0.0198  0.5642 -0.4881
 8902TIP3    H148121   2.130   3.402  16.348  1.4741  0.4461 -0.9425
 8902TIP3    H248122   2.049   3.530  16.354 -0.3081 -0.6917  0.1481
 8903TIP3   OH248123   4.925   1.591   5.947 -0.0812 -0.1708  0.1138
 8903TIP3    H148124   5.020   1.583   5.959  0.1386  1.1616 -0.5840
 8903TIP3    H248125   4.888   1.557   6.028  1.0249  0.2688  0.8323
 8904TIP3   OH248126   4.862   5.708  11.677 -0.0645  0.1680 -0.1636
 8904TIP3    H148127   4.852   5.783  11.618  1.7876  0.2707 -0.4104
 8904TIP3    H248128   4.929   5.653  11.636  1.2982  0.2489  1.7864
 8905TIP3   OH248129   4.875   4.798  13.165  0.2004 -0.5235 -0.2424
 8905TIP3    H148130   4.919   4.809  13.249 -0.6306  1.1775  0.0105
 8905TIP3    H248131   4.854   4.704  13.162  1.5837 -0.9022  0.7311
 8906TIP3   OH248132   3.023   3.050  13.249 -0.5573  0.2910  0.9019
 8906TIP3    H148133   2.935   3.088  13.255 -1.0090 -0.2086 -1.4429
 8906TIP3    H248134   3.042   3.019  13.338 -3.4703 -1.1220  1.1546
 8907TIP3   OH248135   2.372   0.921   2.572 -0.0962  0.1074 -0.9369
 8907TIP3    H148136   2.377   0.939   2.478  0.2843  1.7150 -0.6333
 8907TIP3    H248137   2.299   0.974   2.602  0.3490  0.2915 -0.1756
 8908TIP3   OH248138   3.250   1.017   5.706 -0.5232  1.1514  0.0384
 8908TIP3    H148139   3.255   0.954   5.635 -0.4881  2.1089 -0.8348
 8908TIP3    H248140   3.312   0.984   5.772 -0.1657  0.5253 -0.5996
 8909TIP3   OH248141   0.684   4.608   0.255  0.1469 -0.1847 -0.0780
 8909TIP3    H148142   0.617   4.546   0.284  1.0834 -1.7181 -1.0720
 8909TIP3    H248143   0.765   4.574   0.292  0.3294  2.2282  2.0124
 8910TIP3   OH248144   2.676   5.992   0.640  0.3695  0.5143 -0.0345
 8910TIP3    H148145   2.659   6.075   0.596 -0.3055  1.2395  1.5006
 8910TIP3    H248146   2.651   5.925   0.576 -0.6187  1.5117 -0.7383
 8911TIP3   OH248147   0.606   6.480   3.379  0.8400  0.2200  0.6803
 8911TIP3    H148148   0.589   6.387   3.360 -0.3822  0.7031 -0.7745
 8911TIP3    H248149   0.696   6.482   3.410  0.7823 -1.4954  1.0577
 8912TIP3   OH248150   3.306   2.932  15.522  0.0735  0.0940 -0.4435
 8912TIP3    H148151   3.359   2.852  15.509  1.7328  1.2063 -0.8434
 8912TIP3    H248152   3.369   2.998  15.550 -1.5653  0.8572  1.6348
 8913TIP3   OH248153   5.022   0.161  15.509  0.3278 -0.0305  0.3284
 8913TIP3    H148154   5.091   0.203  15.457 -0.7706  1.4021 -0.0553
 8913TIP3    H248155   5.054   0.164  15.599  1.1356 -0.2047  0.0584
 8914TIP3   OH248156   5.961   3.800  16.770 -0.0797 -0.7637 -0.1629
 8914TIP3    H148157   6.045   3.841  16.749 -0.4729 -0.6249 -1.5853
 8914TIP3    H248158   5.967   3.779  16.863  1.2460 -0.0975 -0.0728
 8915TIP3   OH248159   4.312   1.773  12.457  0.6561 -0.1694  0.6894
 8915TIP3    H148160   4.303   1.783  12.362 -0.2289 -2.3978  0.4909
 8915TIP3    H248161   4.380   1.836  12.481  0.6053  0.7407 -1.3458
 8916TIP3   OH248162   6.379   1.881   3.553 -0.9784  0.6056  0.2354
 8916TIP3    H148163   6.410   1.965   3.521  0.3726  0.2407  0.5156
 8916TIP3    H248164   6.386   1.886   3.648 -2.0452  0.5939  0.3272
 8917TIP3   OH248165   2.408   4.482   1.813 -0.0431  0.0271 -0.3785
 8917TIP3    H148166   2.490   4.495   1.765  0.0900  0.5789 -0.0170
 8917TIP3    H248167   2.433   4.490   1.905 -0.5255  0.3344 -0.2687
 8918TIP3   OH248168   2.148   3.005   0.744  0.1587  0.4900  0.4880
 8918TIP3    H148169   2.151   3.030   0.836  0.2867  0.0388  0.6132
 8918TIP3    H248170   2.183   2.915   0.743 -0.1124  0.3874  0.0378
 8919TIP3   OH248171   3.084   5.334  11.484 -0.2424  0.4973 -0.2059
 8919TIP3    H148172   3.018   5.355  11.418  0.3424  0.1590 -0.8982
 8919TIP3    H248173   3.166   5.330  11.436 -0.0305 -1.3016  0.2564
 8920TIP3   OH248174   6.190   6.315  14.518  0.2115  0.2928 -0.3746
 8920TIP3    H148175   6.208   6.238  14.464 -1.1338 -0.6841  0.4789
 8920TIP3    H248176   6.275   6.340  14.554  0.5222 -1.6758  0.4213
 8921TIP3   OH248177   1.793   5.612   3.989 -0.3452 -0.1167 -0.1970
 8921TIP3    H148178   1.859   5.669   3.950  1.3369 -2.1020 -0.3993
 8921TIP3    H248179   1.807   5.527   3.949 -1.8177 -1.0620  1.1490
 8922TIP3   OH248180   5.082   2.414   5.197  0.2101 -0.6135 -0.0767
 8922TIP3    H148181   5.168   2.395   5.159  1.1727 -0.1663  1.7526
 8922TIP3    H248182   5.081   2.366   5.280 -0.1213  1.5793  1.2677
 8923TIP3   OH248183   0.763   2.617   2.724 -0.4658 -0.0587  0.3947
 8923TIP3    H148184   0.784   2.545   2.784  0.7080 -0.8285 -0.8802
 8923TIP3    H248185   0.758   2.575   2.638  0.7678  1.4601 -0.4546
 8924TIP3   OH248186   2.776   2.364  11.387 -0.1548  0.8300 -0.5500
 8924TIP3    H148187   2.791   2.454  11.414  0.4670  0.5000  0.2358
 8924TIP3    H248188   2.841   2.348  11.318 -0.7457  1.1940 -1.2137
 8925TIP3   OH248189   0.889   6.297  13.249 -0.0973  0.0742  0.0072
 8925TIP3    H148190   0.794   6.281  13.246 -0.0403 -0.1942 -0.5153
 8925TIP3    H248191   0.927   6.222  13.202  0.3747  0.1579  0.2580
 8926TIP3   OH248192   3.717   5.865  10.726  0.4613 -0.5524 -0.0301
 8926TIP3    H148193   3.622   5.870  10.717  0.6931  1.1794 -3.2764
 8926TIP3    H248194   3.744   5.956  10.739  1.7199 -0.8093 -0.6843
 8927TIP3   OH248195   3.276   6.082   4.094 -0.4537 -0.7201  0.3634
 8927TIP3    H148196   3.349   6.098   4.034 -0.4539 -0.1188  0.5127
 8927TIP3    H248197   3.234   6.168   4.103 -0.1978 -0.7054  1.5542
 8928TIP3   OH248198   5.553   3.041   4.145 -0.0239  0.2151  0.1325
 8928TIP3    H148199   5.607   3.041   4.066 -0.0530 -0.2274  0.1061
 8928TIP3    H248200   5.561   2.952   4.179  1.0887  0.7670  1.3934
 8929TIP3   OH248201   4.508   4.865   2.064 -0.3248  0.1527  0.2869
 8929TIP3    H148202   4.557   4.845   1.984 -1.0034 -2.7680  0.4827
 8929TIP3    H248203   4.576   4.891   2.127  0.3218  1.4580 -0.8757
 8930TIP3   OH248204   1.129   6.714   3.458  0.0686  0.1943  0.0731
 8930TIP3    H148205   1.100   6.686   3.544  0.6751 -2.3823 -0.4640
 8930TIP3    H248206   1.054   6.761   3.421 -1.2337 -1.1369  0.9292
 8931TIP3   OH248207   2.643   3.544   3.065 -0.2765  0.3664 -0.4049
 8931TIP3    H148208   2.622   3.624   3.018 -3.9935 -0.5799 -0.6701
 8931TIP3    H248209   2.642   3.569   3.157  0.5178  0.9563 -0.5454
 8932TIP3   OH248210   4.082   1.409   2.051 -0.3872 -0.3725  0.0052
 8932TIP3    H148211   4.104   1.374   1.965 -0.7466  0.2008 -0.3338
 8932TIP3    H248212   4.165   1.441   2.086 -0.3005 -0.2598 -0.2977
 8933TIP3   OH248213   4.568   5.247   4.978  0.1295  0.1379 -0.4943
 8933TIP3    H148214   4.535   5.256   4.888  2.4569  0.5480 -1.3872
 8933TIP3    H248215   4.550   5.157   5.002 -1.9672  0.4575 -0.7347
 8934TIP3   OH248216   0.542   5.892   2.450 -0.3708  0.4372 -0.2078
 8934TIP3    H148217   0.516   5.963   2.391 -0.8172 -0.5912 -1.2895
 8934TIP3    H248218   0.484   5.902   2.526 -1.0101  0.7300 -0.7199
 8935TIP3   OH248219   3.945   6.435   3.984 -0.7046 -0.1373 -0.3338
 8935TIP3    H148220   3.955   6.437   3.889 -1.1824  1.3389 -0.3721
 8935TIP3    H248221   3.854   6.457   4.000 -0.7854 -0.9487  0.4681
 8936TIP3   OH248222   3.902   1.653   5.745  0.5001 -0.0434 -0.9538
 8936TIP3    H148223   3.940   1.636   5.832 -1.5591 -1.4822 -0.2424
 8936TIP3    H248224   3.912   1.747   5.732 -0.7329  0.5623  1.7317
 8937TIP3   OH248225   4.427   6.125  16.729 -0.4712 -0.3662  0.3290
 8937TIP3    H148226   4.437   6.098  16.821 -1.0703 -1.1049  0.1769
 8937TIP3    H248227   4.439   6.045  16.679 -0.8688 -0.0975 -0.2015
 8938TIP3   OH248228   4.594   1.478   0.884 -0.0691  0.0458  0.2571
 8938TIP3    H148229   4.582   1.454   0.976  0.0489 -0.8629  0.0469
 8938TIP3    H248230   4.554   1.565   0.876 -0.9476 -0.2834  0.9426
 8939TIP3   OH248231   2.626   1.909  15.500 -0.2595 -0.7023  0.5102
 8939TIP3    H148232   2.678   1.988  15.483 -0.6562 -0.5463  0.0250
 8939TIP3    H248233   2.691   1.841  15.519  0.0779 -0.1877  1.2489
 8940TIP3   OH248234   5.808   2.572  11.656  0.6710  0.6377  0.5011
 8940TIP3    H148235   5.834   2.635  11.723  1.4262  2.3028 -1.2672
 8940TIP3    H248236   5.887   2.556  11.605  0.1595 -0.7450  0.0701
 8941TIP3   OH248237   5.244   5.105  13.695 -0.2847 -0.4149 -0.1073
 8941TIP3    H148238   5.202   5.150  13.622 -0.1479 -1.1515 -0.6510
 8941TIP3    H248239   5.311   5.165  13.726 -2.2264  1.1562  1.3073
 8942TIP3   OH248240   6.229   4.319   2.486 -0.2511 -0.2898  0.2370
 8942TIP3    H148241   6.155   4.340   2.543 -0.1898  1.0762 -0.1354
 8942TIP3    H248242   6.243   4.399   2.435 -0.4516 -1.5342 -1.8733
 8943TIP3   OH248243   1.681   3.877   4.915  0.2655 -0.3513 -0.5782
 8943TIP3    H148244   1.607   3.849   4.860  0.0314  1.8756 -1.5047
 8943TIP3    H248245   1.757   3.870   4.858  0.4540 -0.6334 -0.2943
 8944TIP3   OH248246   0.609   4.502   2.324  0.1332  0.2242 -0.3942
 8944TIP3    H148247   0.572   4.572   2.379  0.2904 -0.4133  0.5491
 8944TIP3    H248248   0.613   4.426   2.382 -0.7424 -0.7952 -1.6180
 8945TIP3   OH248249   5.423   2.551   3.701  0.2713  0.0365 -0.4845
 8945TIP3    H148250   5.396   2.504   3.780  0.1475 -0.6624 -0.9305
 8945TIP3    H248251   5.347   2.603   3.676 -0.2867 -1.0470 -1.0919
 8946TIP3   OH248252   3.503   0.241  15.628  0.1018 -0.1019 -0.1428
 8946TIP3    H148253   3.556   0.253  15.707 -0.2216  0.5907 -0.0290
 8946TIP3    H248254   3.472   0.328  15.606  0.5679 -0.2148 -1.3049
 8947TIP3   OH248255   3.231   6.344   1.622  0.6192  0.0527  0.3033
 8947TIP3    H148256   3.136   6.355   1.630  0.7641  1.8694 -0.0368
 8947TIP3    H248257   3.245   6.249   1.628 -1.2173 -0.2564  0.2385
 8948TIP3   OH248258   2.214   0.510  13.879  0.4822  0.2219  0.0188
 8948TIP3    H148259   2.204   0.541  13.789 -0.3789 -0.7040 -0.2215
 8948TIP3    H248260   2.233   0.416  13.870 -0.3890 -0.0415  0.8169
 8949TIP3   OH248261   2.664   1.743  12.023 -0.0835  0.3881  0.3079
 8949TIP3    H148262   2.707   1.691  11.955 -0.4945 -0.0160  0.3526
 8949TIP3    H248263   2.573   1.713  12.022 -0.4280  1.4310  0.0239
 8950TIP3   OH248264   0.555   1.133  14.986 -0.1563 -0.1229  0.1209
 8950TIP3    H148265   0.582   1.220  14.957  0.4248 -0.4781 -0.4421
 8950TIP3    H248266   0.623   1.075  14.952  0.0050 -0.6776  1.3480
 8951TIP3   OH248267   6.725   4.595   2.991 -0.2154 -0.1093  0.7775
 8951TIP3    H148268   6.648   4.617   3.043 -1.2721  1.0830 -1.1320
 8951TIP3    H248269   6.690   4.575   2.904  1.5782 -0.2409  0.0287
 8952TIP3   OH248270   1.271   4.870  13.462 -0.0962  0.1103  0.0859
 8952TIP3    H148271   1.246   4.957  13.429 -0.6689  0.6000  1.7073
 8952TIP3    H248272   1.194   4.816  13.447 -0.5995  0.5022  1.1592
 8953TIP3   OH248273   5.816   6.617   1.502 -0.3343 -0.2456 -0.4825
 8953TIP3    H148274   5.733   6.632   1.548 -0.0145  0.0913 -0.0035
 8953TIP3    H248275   5.846   6.533   1.535 -0.3198 -0.2094 -0.4030
 8954TIP3   OH248276   2.487   6.524   5.829 -0.2034  0.8612  0.1701
 8954TIP3    H148277   2.456   6.562   5.911 -0.7851 -1.5017  1.1393
 8954TIP3    H248278   2.565   6.475   5.853 -0.2531  0.3194 -0.7324
 8955TIP3   OH248279   0.720   4.239  11.981 -0.8097 -0.2473 -0.4483
 8955TIP3    H148280   0.667   4.270  11.909  0.4052  1.2527 -0.7612
 8955TIP3    H248281   0.810   4.250  11.951 -0.1752  2.6736  2.0696
 8956TIP3   OH248282   0.777   5.202  14.676  0.2389 -0.5410  0.2465
 8956TIP3    H148283   0.706   5.140  14.694 -0.7046  0.5007  0.1848
 8956TIP3    H248284   0.817   5.169  14.595 -0.0832 -1.2130  0.3563
 8957TIP3   OH248285   4.436   6.194   3.854  0.0605  0.1007 -0.3164
 8957TIP3    H148286   4.502   6.157   3.913  0.1269 -2.5396 -1.8800
 8957TIP3    H248287   4.485   6.254   3.798  0.2891  1.3995  1.2177
 8958TIP3   OH248288   3.565   3.668   0.522 -0.0571  1.1296 -0.0838
 8958TIP3    H148289   3.494   3.688   0.460 -1.1619  1.7832  1.3412
 8958TIP3    H248290   3.565   3.741   0.583  0.1058 -0.1279  1.4890
 8959TIP3   OH248291   3.887   5.392  14.074  0.5220 -0.2309 -0.1831
 8959TIP3    H148292   3.795   5.374  14.091  0.8906 -0.9318  1.2591
 8959TIP3    H248293   3.933   5.316  14.109  1.6079 -0.3439 -1.7585
 8960TIP3   OH248294   6.210   6.277   5.768  0.1468  0.1436  0.0338
 8960TIP3    H148295   6.228   6.216   5.840 -0.1656 -0.7001 -0.5770
 8960TIP3    H248296   6.296   6.297   5.731  0.3715  1.1198  1.0548
 8961TIP3   OH248297   6.756   1.160   5.104 -0.1120  0.1695  0.7086
 8961TIP3    H148298   6.671   1.163   5.061  0.2589  0.5079 -0.0082
 8961TIP3    H248299   6.780   1.067   5.103 -0.4862  0.0668  0.9559
 8962TIP3   OH248300   2.680   5.991  11.824  0.1942  0.0330  0.0756
 8962TIP3    H148301   2.720   6.054  11.762 -1.4028  2.5035  1.3936
 8962TIP3    H248302   2.726   6.008  11.907 -0.1966 -0.6195  0.4255
 8963TIP3   OH248303   2.815   1.400   2.294  0.2010  0.2405 -0.5200
 8963TIP3    H148304   2.757   1.433   2.226  0.6467 -0.2772 -1.1609
 8963TIP3    H248305   2.758   1.347   2.350 -0.0733  0.2558 -0.7833
 8964TIP3   OH248306   2.866   2.804   5.567  0.3243 -0.2046  0.5647
 8964TIP3    H148307   2.941   2.832   5.514 -0.1925  2.1315  0.9427
 8964TIP3    H248308   2.795   2.794   5.504  0.3635 -0.0907  0.5028
 8965TIP3   OH248309   3.650   5.378   4.681  0.5132 -0.1355  0.4085
 8965TIP3    H148310   3.601   5.315   4.733 -0.8440  1.5206  1.1972
 8965TIP3    H248311   3.613   5.463   4.703  4.1599  1.3544  1.5961
 8966TIP3   OH248312   4.736   0.004   5.415 -0.2851  0.0075  0.4185
 8966TIP3    H148313   4.777  -0.082   5.401 -1.1000 -0.2964 -0.1206
 8966TIP3    H248314   4.810   0.065   5.417  0.1387 -0.3399 -1.9300
 8967TIP3   OH248315   0.879   2.499  12.454  0.7605  0.3878  0.1823
 8967TIP3    H148316   0.882   2.445  12.374  0.4103  1.9473 -0.9449
 8967TIP3    H248317   0.785   2.513  12.469  0.8394  0.3987  0.6719
 8968TIP3   OH248318   1.077   2.105  13.308 -0.2540  0.7444 -0.0433
 8968TIP3    H148319   1.078   2.195  13.341 -2.2847  0.9638 -0.4496
 8968TIP3    H248320   1.019   2.058  13.368  2.3391 -0.8767  1.3996
 8969TIP3   OH248321   4.772   4.977   0.643  0.3145  0.1378  0.5304
 8969TIP3    H148322   4.793   4.903   0.585  1.0818 -1.3872  2.6323
 8969TIP3    H248323   4.855   4.997   0.686 -0.4785  0.3660  2.0203
 8970TIP3   OH248324   1.274   2.583   0.035  0.0294  0.1100  0.0699
 8970TIP3    H148325   1.342   2.519   0.012  0.8569  1.0481 -0.1873
 8970TIP3    H248326   1.320   2.650   0.085 -0.2381  1.8067 -1.8131
 8971TIP3   OH248327   4.001   3.650  12.405  0.4071 -0.5205  0.0901
 8971TIP3    H148328   4.042   3.564  12.393  2.6695  0.6052 -1.0013
 8971TIP3    H248329   3.971   3.675  12.317  2.7191  1.0756 -0.3658
 8972TIP3   OH248330   5.496   3.354  12.839  0.1976 -0.2418  0.8936
 8972TIP3    H148331   5.441   3.291  12.793  0.2068  0.2782  0.1433
 8972TIP3    H248332   5.582   3.313  12.843  0.1320 -0.4005  0.6732
 8973TIP3   OH248333   6.753   0.606  14.978  0.2467  0.3522 -0.3617
 8973TIP3    H148334   6.758   0.606  14.882  0.1474  1.4995 -0.3894
 8973TIP3    H248335   6.834   0.564  15.007  0.8111  0.9950 -0.9529
 8974TIP3   OH248336   2.365   5.159  13.929  0.5079 -0.0277 -0.3028
 8974TIP3    H148337   2.352   5.116  13.845 -0.8955 -0.4785  0.1063
 8974TIP3    H248338   2.403   5.092  13.985  1.4399  0.2718 -0.5679
 8975TIP3   OH248339   1.096   4.126   1.308 -0.2152 -0.2267  0.5159
 8975TIP3    H148340   1.131   4.119   1.219  1.1368  0.1404  0.9945
 8975TIP3    H248341   1.089   4.035   1.338  0.4056 -0.3110  0.4244
 8976TIP3   OH248342   0.044   6.324   5.103 -0.2657  0.3013  0.3101
 8976TIP3    H148343   0.101   6.390   5.143 -0.0710 -0.7822  1.8860
 8976TIP3    H248344   0.095   6.242   5.108 -1.7113 -0.5777  1.2119
 8977TIP3   OH248345   3.939   5.518  12.993  0.1284  0.0817  0.3043
 8977TIP3    H148346   3.877   5.591  12.991  1.0043  0.8621  0.7279
 8977TIP3    H248347   3.893   5.450  13.042  0.0111  1.0498  1.6027
 8978TIP3   OH248348   0.319   6.233  17.008  0.2044 -0.8992 -0.1054
 8978TIP3    H148349   0.365   6.315  17.021  0.7114 -1.1345 -0.3599
 8978TIP3    H248350   0.308   6.226  16.913 -0.1106 -0.9787 -0.0667
 8979TIP3   OH248351   3.734   5.716   1.242 -0.0995  0.1753  0.3567
 8979TIP3    H148352   3.793   5.654   1.285  0.3159  0.4776  0.2330
 8979TIP3    H248353   3.646   5.687   1.267  0.1263  0.3433  1.4253
 8980TIP3   OH248354   0.499   6.453   3.720 -0.7314  0.3706  0.4321
 8980TIP3    H148355   0.579   6.400   3.724  0.6579  2.3843  1.1372
 8980TIP3    H248356   0.443   6.417   3.789 -0.6346 -1.3126 -0.3183
 8981TIP3   OH248357   6.174   1.263  16.679 -0.1847 -0.7780 -0.6084
 8981TIP3    H148358   6.221   1.190  16.638 -1.5427 -0.5674 -2.7125
 8981TIP3    H248359   6.102   1.221  16.726  0.9447 -0.9678  1.0295
 8982TIP3   OH248360   5.630   0.633   3.156  0.0181 -0.0459 -0.3432
 8982TIP3    H148361   5.622   0.567   3.087 -0.8995  0.1931 -0.4759
 8982TIP3    H248362   5.697   0.598   3.214 -1.3125 -1.7299  0.2682
 8983TIP3   OH248363   2.393   0.951  13.189 -0.3980  0.6767 -0.0141
 8983TIP3    H148364   2.407   0.982  13.100 -0.3134  1.0844  0.1400
 8983TIP3    H248365   2.387   1.031  13.242  1.7526  0.4193  0.6936
 8984TIP3   OH248366   0.445   4.557   6.624  0.0543  0.0326  0.7218
 8984TIP3    H148367   0.448   4.645   6.588 -0.5857 -0.0615  0.4237
 8984TIP3    H248368   0.358   4.525   6.602  0.6525 -1.0768 -0.1243
 8985TIP3   OH248369   4.440   1.229   0.376 -0.1801  0.3531 -0.4090
 8985TIP3    H148370   4.463   1.269   0.460 -1.3568 -0.4396  0.3201
 8985TIP3    H248371   4.487   1.146   0.376  1.4079  1.2033 -1.4502
 8986TIP3   OH248372   6.251   4.031   3.741 -0.2856 -0.1798  0.1245
 8986TIP3    H148373   6.243   4.049   3.835  0.4197  0.2321  0.1117
 8986TIP3    H248374   6.251   3.935   3.736 -0.5817 -0.2052  0.5230
 8987TIP3   OH248375   3.621   5.245   3.637 -0.0499 -0.2877  0.1141
 8987TIP3    H148376   3.643   5.152   3.639 -0.8801 -0.4864  0.6562
 8987TIP3    H248377   3.706   5.290   3.642  0.3419 -1.0150  0.1455
 8988TIP3   OH248378   0.151   0.858   3.488  0.0225  0.9214 -0.2893
 8988TIP3    H148379   0.220   0.920   3.512  0.6236  0.4954 -0.8757
 8988TIP3    H248380   0.070   0.909   3.494  0.3660  1.3883  0.5634
 8989TIP3   OH248381   6.303   6.634   0.576  0.2546 -0.1971 -0.2874
 8989TIP3    H148382   6.226   6.653   0.630  1.4505 -1.0841  1.8498
 8989TIP3    H248383   6.311   6.539   0.579  3.5359 -0.0773  2.8814
 8990TIP3   OH248384   2.305   4.983   1.264  0.0048 -0.3895 -0.3596
 8990TIP3    H148385   2.292   4.891   1.243 -0.8749 -0.0663 -1.3158
 8990TIP3    H248386   2.286   5.030   1.182 -3.4203  0.9125  0.9710
 8991TIP3   OH248387   3.755   1.286   2.450 -0.2811 -0.3662  0.8040
 8991TIP3    H148388   3.826   1.264   2.388 -1.2452 -0.6186 -0.2512
 8991TIP3    H248389   3.797   1.286   2.536  1.1549  0.2189  0.1342
 8992TIP3   OH248390   2.054   1.364  16.527  0.0787 -0.4822 -0.3301
 8992TIP3    H148391   2.146   1.388  16.541  0.3303 -2.1181  1.2286
 8992TIP3    H248392   2.012   1.385  16.610 -0.6605 -0.9992 -0.5685
 8993TIP3   OH248393   3.465   1.317   2.408 -0.0175 -0.5479 -0.2369
 8993TIP3    H148394   3.535   1.282   2.463 -0.7044  0.2666  1.2419
 8993TIP3    H248395   3.445   1.247   2.346  1.1050 -1.3396  0.2637
 8994TIP3   OH248396   6.184   4.533  10.502 -0.3592 -0.0937 -0.9635
 8994TIP3    H148397   6.250   4.584  10.454  0.9709 -0.9034 -0.0540
 8994TIP3    H248398   6.226   4.449  10.519 -1.0635 -0.1031  0.9683
 8995TIP3   OH248399   0.095   3.024   2.744 -0.3537  0.3142 -0.2874
 8995TIP3    H148400   0.033   3.033   2.671 -0.6822 -2.2294 -0.3995
 8995TIP3    H248401   0.070   3.094   2.805 -1.6934  0.9165 -1.4641
 8996TIP3   OH248402   5.000   2.170   6.265  0.1907 -0.1543  0.6707
 8996TIP3    H148403   5.025   2.197   6.353 -1.5473  1.8051  0.6392
 8996TIP3    H248404   4.932   2.104   6.278 -0.2435  0.3149  0.8207
 8997TIP3   OH248405   3.069   5.461  14.021 -0.2188 -0.2058  0.4219
 8997TIP3    H148406   2.982   5.496  14.042  0.2050  0.4560  1.1518
 8997TIP3    H248407   3.092   5.409  14.098  0.8995  1.3432  1.1905
 8998TIP3   OH248408   0.511   4.965   3.155 -0.1020  0.1853 -0.2686
 8998TIP3    H148409   0.436   4.907   3.142 -0.0105  0.3260 -1.5518
 8998TIP3    H248410   0.480   5.030   3.218 -0.0934 -1.4090  1.4643
 8999TIP3   OH248411   1.646   1.019   0.923 -0.1876 -0.1123  0.2458
 8999TIP3    H148412   1.570   1.023   0.865 -0.1359  0.8721  0.2399
 8999TIP3    H248413   1.694   0.941   0.894 -0.4780  0.0339 -0.6493
 9000TIP3   OH248414   3.599   3.573   5.644 -0.0152 -0.4714  0.0541
 9000TIP3    H148415   3.686   3.600   5.676 -0.4029  2.6702 -1.1393
 9000TIP3    H248416   3.538   3.623   5.698 -1.0423 -1.4793 -0.1478
 9001TIP3   OH248417   2.747   2.176   5.523  0.4445  0.1752 -0.2286
 9001TIP3    H148418   2.700   2.257   5.542  1.2139 -0.0127  3.0418
 9001TIP3    H248419   2.715   2.114   5.588  0.4177 -1.9888 -2.1924
 9002TIP3   OH248420   0.288   5.719  16.455 -0.5367 -0.0899  0.0804
 9002TIP3    H148421   0.211   5.666  16.475 -1.8148  1.7360  0.1708
 9002TIP3    H248422   0.302   5.772  16.533  2.1445 -1.8156  0.9141
 9003TIP3   OH248423   2.836   2.247   4.679  0.0381  0.0069 -0.0127
 9003TIP3    H148424   2.831   2.289   4.765  0.1448  0.1160 -0.0585
 9003TIP3    H248425   2.920   2.277   4.643  1.1638 -1.9547  0.8277
 9004TIP3   OH248426   2.260   0.484   5.295 -0.5238  0.3988  0.6529
 9004TIP3    H148427   2.319   0.450   5.227 -0.6039  0.2332  0.6656
 9004TIP3    H248428   2.181   0.431   5.286 -0.3725  0.0768  1.1643
 9005TIP3   OH248429   2.659   0.530   0.682 -0.1185  0.0931  0.4397
 9005TIP3    H148430   2.740   0.573   0.707 -1.0689  1.8183  0.7581
 9005TIP3    H248431   2.625   0.493   0.763  0.3269 -0.6120  0.3097
 9006TIP3   OH248432   6.233   5.585  11.502  0.6143 -0.3317  0.3121
 9006TIP3    H148433   6.183   5.593  11.420  1.0147  0.5592  0.1409
 9006TIP3    H248434   6.166   5.572  11.569  0.1397  0.6249  0.0517
 9007TIP3   OH248435   3.251   1.256   5.467 -0.5356 -0.5833 -0.4217
 9007TIP3    H148436   3.165   1.230   5.432  0.0543 -0.7557 -1.8230
 9007TIP3    H248437   3.274   1.187   5.528 -0.8901 -1.1410 -0.9014
 9008TIP3   OH248438   1.737   3.900  15.529  0.3301 -0.1328  0.8163
 9008TIP3    H148439   1.736   3.919  15.623  0.6985  1.7981  0.4682
 9008TIP3    H248440   1.830   3.882  15.510  0.5071  1.0361  0.5489
 9009TIP3   OH248441   1.707   0.962   3.215 -0.5772 -0.0714  0.5516
 9009TIP3    H148442   1.636   1.025   3.207  0.5585  1.1235 -0.4349
 9009TIP3    H248443   1.664   0.877   3.202 -1.5335  0.7296 -2.3500
 9010TIP3   OH248444   2.095   5.748  15.422 -1.1441 -0.1359 -0.1709
 9010TIP3    H148445   2.074   5.840  15.407 -2.4599 -0.5543 -1.0351
 9010TIP3    H248446   2.020   5.699  15.387  0.0250 -1.5947 -0.7917
 9011TIP3   OH248447   4.161   1.131   1.381 -0.7200 -0.0938  0.5197
 9011TIP3    H148448   4.080   1.083   1.392  0.0964 -1.2254  1.8502
 9011TIP3    H248449   4.230   1.069   1.405  0.4716  1.1962  0.5880
 9012TIP3   OH248450   6.404   0.418   0.935  0.1273  0.3317  0.1408
 9012TIP3    H148451   6.466   0.437   0.865  2.1925 -3.2863  0.7499
 9012TIP3    H248452   6.458   0.413   1.014 -0.7390 -3.1035  0.6779
 9013TIP3   OH248453   5.400   4.408  11.423  0.1277 -0.4376 -0.6763
 9013TIP3    H148454   5.342   4.335  11.402  0.2219 -0.4134 -1.0228
 9013TIP3    H248455   5.456   4.375  11.493 -0.6673 -0.2824  0.0529
 9014TIP3   OH248456   4.845   1.136   2.991 -0.0809  0.1725 -0.1871
 9014TIP3    H148457   4.783   1.066   2.970 -0.4449  0.3600  0.2605
 9014TIP3    H248458   4.930   1.091   2.997 -0.1917 -0.1036 -0.6655
 9015TIP3   OH248459   4.913   4.195   1.838 -0.1384  0.0103  0.3422
 9015TIP3    H148460   4.827   4.204   1.880 -0.1298  0.1150  0.3398
 9015TIP3    H248461   4.974   4.186   1.910 -0.4592 -3.2846  0.3335
 9016TIP3   OH248462   0.862   3.587  14.438 -0.0599 -0.2267 -0.4906
 9016TIP3    H148463   0.808   3.511  14.418  0.4331 -0.6701 -0.1243
 9016TIP3    H248464   0.798   3.657  14.455 -0.5450 -0.8622  0.4174
 9017TIP3   OH248465   0.537   6.742   4.780 -0.4265 -0.2969  0.7287
 9017TIP3    H148466   0.520   6.665   4.726  0.7206  0.3902 -0.6825
 9017TIP3    H248467   0.461   6.748   4.838 -0.9272 -1.9978  0.3149
 9018TIP3   OH248468   5.068   0.219   3.668 -0.8288 -0.5166 -0.0922
 9018TIP3    H148469   5.101   0.157   3.733  1.0681 -0.6692 -1.1104
 9018TIP3    H248470   5.095   0.305   3.701 -0.8386 -0.4998 -0.1282
 9019TIP3   OH248471   4.169   4.890  15.448 -0.4507  0.4543 -0.0603
 9019TIP3    H148472   4.091   4.944  15.433 -0.0773  0.7030 -1.1474
 9019TIP3    H248473   4.146   4.837  15.525 -1.1126  1.6107  0.5726
 9020TIP3   OH248474   1.431   4.005  14.040  0.1892  0.4983 -0.7442
 9020TIP3    H148475   1.463   4.023  13.952 -0.0004 -0.3698 -1.0020
 9020TIP3    H248476   1.337   3.988  14.029  0.4277 -1.0562 -0.6080
 9021TIP3   OH248477   5.848   5.910  11.049 -0.1976  0.1972  0.0937
 9021TIP3    H148478   5.907   5.934  10.978 -0.8897  0.1904 -0.4954
 9021TIP3    H248479   5.814   5.824  11.024 -0.7807  0.3896  0.2136
 9022TIP3   OH248480   6.764   0.188  15.187 -0.2977  0.3932 -0.3099
 9022TIP3    H148481   6.751   0.104  15.232 -1.6911  0.7144 -0.0458
 9022TIP3    H248482   6.675   0.219  15.169  0.2061  1.5003 -1.0023
 9023TIP3   OH248483   4.287   4.510   4.712  0.2919  0.8691 -0.7566
 9023TIP3    H148484   4.194   4.489   4.720  0.5497 -0.0364  0.2189
 9023TIP3    H248485   4.294   4.602   4.737 -0.4661  1.2388 -1.8731
 9024TIP3   OH248486   0.640   0.187  12.870  0.2132  0.1147 -0.0995
 9024TIP3    H148487   0.712   0.152  12.922  0.2645 -0.2071 -0.3863
 9024TIP3    H248488   0.572   0.119  12.875  0.1921  0.1148 -0.3946
 9025TIP3   OH248489   0.627   6.508  11.375 -0.1519  0.7570 -0.1227
 9025TIP3    H148490   0.684   6.581  11.352 -1.3229  2.3360  1.7720
 9025TIP3    H248491   0.542   6.547  11.392 -0.8330 -1.0498  0.9435
 9026TIP3   OH248492   3.559   6.050   2.397 -0.0481 -0.2438 -0.0181
 9026TIP3    H148493   3.482   6.025   2.345  0.7495  0.9412 -1.8653
 9026TIP3    H248494   3.567   5.980   2.462 -2.8241 -0.2638  0.4398
 9027TIP3   OH248495   5.197   0.692  12.973 -0.3039 -0.2243 -0.2008
 9027TIP3    H148496   5.280   0.720  13.011  1.3124 -0.5029 -3.2457
 9027TIP3    H248497   5.165   0.770  12.927 -0.3207 -0.8719 -1.3029
 9028TIP3   OH248498   2.469   3.574  10.436 -0.1269 -0.6467 -0.2748
 9028TIP3    H148499   2.391   3.601  10.484 -0.9360 -2.3833 -0.5102
 9028TIP3    H248500   2.456   3.605  10.347  0.1240  0.2751  0.0025
 9029TIP3   OH248501   4.876   6.552   4.455  0.8131  0.0073  0.0144
 9029TIP3    H148502   4.834   6.613   4.394  1.9258  0.9287  0.1363
 9029TIP3    H248503   4.839   6.466   4.432  0.1929  0.5305 -1.0338
 9030TIP3   OH248504   6.651   2.878  15.439  0.1499 -0.4348 -0.4997
 9030TIP3    H148505   6.677   2.834  15.358  1.6316 -0.0006 -0.2977
 9030TIP3    H248506   6.592   2.948  15.411  2.5364  1.2908 -1.5523
 9031TIP3   OH248507   0.890   3.937  14.373 -0.0123  0.0280 -0.0725
 9031TIP3    H148508   0.837   3.893  14.440 -1.2660  0.6942 -0.5883
 9031TIP3    H248509   0.955   3.871  14.347 -0.7186 -0.8989  0.4302
 9032TIP3   OH248510   6.769   0.647  14.684 -0.1524 -0.3575 -0.1897
 9032TIP3    H148511   6.743   0.738  14.698 -2.1680 -0.9986  0.5488
 9032TIP3    H248512   6.805   0.646  14.595  1.4564  1.4439  0.3731
 9033TIP3   OH248513   1.165   5.847  11.521 -0.2076  0.2547 -0.6142
 9033TIP3    H148514   1.218   5.915  11.562 -1.7339  1.0615  0.1109
 9033TIP3    H248515   1.129   5.797  11.595 -2.0238  0.9685 -0.9465
 9034TIP3   OH248516   6.428   4.705  11.369 -0.0013  0.0624 -0.0512
 9034TIP3    H148517   6.427   4.713  11.274 -1.2241 -1.8189 -0.2558
 9034TIP3    H248518   6.520   4.709  11.394  0.2996  1.0559 -1.2326
 9035TIP3   OH248519   4.726   5.487  14.285 -0.4518  0.5149 -0.4469
 9035TIP3    H148520   4.692   5.410  14.240  1.0059 -0.7720  0.5384
 9035TIP3    H248521   4.815   5.497  14.251 -0.1944  0.9908  0.3463
 9036TIP3   OH248522   1.996   0.759   0.606 -0.2529 -0.1491 -0.1907
 9036TIP3    H148523   1.971   0.797   0.690 -2.1243 -2.9340  0.6673
 9036TIP3    H248524   1.924   0.781   0.547  0.8756  1.4709 -1.0440
 9037TIP3   OH248525   0.467   6.777  12.842  0.5205  0.6748 -0.0422
 9037TIP3    H148526   0.478   6.705  12.780 -0.7095  1.0874 -0.7815
 9037TIP3    H248527   0.379   6.763  12.878  0.1922  1.8788 -0.3349
 9038TIP3   OH248528   4.530   2.781   1.822 -0.5346 -0.8719 -0.5265
 9038TIP3    H148529   4.528   2.844   1.894 -3.0387 -1.0862 -0.2914
 9038TIP3    H248530   4.621   2.777   1.795  0.1865  0.5096  1.4960
 9039TIP3   OH248531   1.195   6.053  16.746 -0.1565 -0.1069  0.4606
 9039TIP3    H148532   1.193   6.012  16.832  1.6772  0.9120  1.0515
 9039TIP3    H248533   1.191   6.147  16.764  0.4634  0.1338 -0.5522
 9040TIP3   OH248534   5.293   2.358   5.034 -0.2322 -0.0323  0.5618
 9040TIP3    H148535   5.317   2.276   5.077  0.5870 -1.4705 -2.3819
 9040TIP3    H248536   5.376   2.405   5.024 -0.3069 -0.0030  0.0488
 9041TIP3   OH248537   2.566   4.575  12.405  0.1543 -0.0744  0.1853
 9041TIP3    H148538   2.633   4.617  12.460 -0.8143 -0.5216  1.7966
 9041TIP3    H248539   2.501   4.643  12.391 -0.5992 -0.5095  1.3833
 9042TIP3   OH248540   0.691   1.577   1.652 -0.1990 -0.1764  0.6954
 9042TIP3    H148541   0.735   1.586   1.567 -0.6763 -2.8770  0.0607
 9042TIP3    H248542   0.662   1.486   1.654 -1.6614  0.2598  3.0890
 9043TIP3   OH248543   3.876   0.565   3.443 -0.8513 -0.0064 -0.0121
 9043TIP3    H148544   3.945   0.591   3.504 -0.0009  1.0673 -1.3529
 9043TIP3    H248545   3.863   0.472   3.458  0.6580 -0.1502  0.5149
 9044TIP3   OH248546   2.986   6.484  12.930 -0.1020 -0.3080  0.4106
 9044TIP3    H148547   3.037   6.433  12.867  0.0073 -1.8786  1.7082
 9044TIP3    H248548   2.895   6.469  12.906 -0.0777  1.7976 -1.3660
 9045TIP3   OH248549   2.597   0.494   2.019 -0.3242  0.0371  0.0521
 9045TIP3    H148550   2.569   0.411   1.980  0.1315 -0.2242  0.2686
 9045TIP3    H248551   2.532   0.512   2.088  0.0511 -0.5775  0.5732
 9046TIP3   OH248552   6.809   0.917  13.673 -0.0477  0.2391 -0.9253
 9046TIP3    H148553   6.760   0.971  13.612 -2.7390  1.7429  2.2428
 9046TIP3    H248554   6.848   0.979  13.735  1.6675 -1.2326 -0.4324
 9047TIP3   OH248555   0.628   2.515   1.379 -0.1462 -0.0160  0.0396
 9047TIP3    H148556   0.570   2.563   1.438  0.2175 -0.6658  0.9483
 9047TIP3    H248557   0.613   2.423   1.400 -0.6697 -0.3215 -1.5216
 9048TIP3   OH248558   1.118   5.826   1.998 -0.5093 -0.1153  0.1479
 9048TIP3    H148559   1.114   5.921   1.988 -1.4924 -0.3702 -2.7268
 9048TIP3    H248560   1.209   5.804   1.980  0.1529  0.3222  2.4998
 9049TIP3   OH248561   1.211   4.099   5.294  0.5448  0.3354  0.7829
 9049TIP3    H148562   1.148   4.069   5.229  1.2080  1.8902 -0.6727
 9049TIP3    H248563   1.271   4.155   5.244  2.1511  0.1487  2.4124
 9050TIP3   OH248564   0.582   0.776  10.919  0.3421 -0.2683  0.4762
 9050TIP3    H148565   0.605   0.717  10.991 -0.9086 -2.1260 -0.5616
 9050TIP3    H248566   0.652   0.765  10.855  0.6783  0.2402  0.7491
 9051TIP3   OH248567   0.952   4.037  16.595  0.2561 -0.3050  0.6757
 9051TIP3    H148568   1.035   4.033  16.642  0.8474  1.0059 -0.1893
 9051TIP3    H248569   0.948   4.127  16.561 -1.1302 -0.5872  0.0092
 9052TIP3   OH248570   0.759   0.868  11.876 -0.0394  0.7559  0.0067
 9052TIP3    H148571   0.716   0.946  11.842  0.0034  0.5835 -0.4594
 9052TIP3    H248572   0.807   0.898  11.953 -2.1446  0.6922  1.4332
 9053TIP3   OH248573   6.555   2.736  10.076  0.1348 -0.2775  0.3843
 9053TIP3    H148574   6.480   2.787  10.107 -1.4566 -1.8260 -0.7343
 9053TIP3    H248575   6.591   2.788  10.004  0.1518  0.4780  0.9258
 9054TIP3   OH248576   4.271   3.708   5.600  0.1436  0.0378  0.1470
 9054TIP3    H148577   4.323   3.742   5.673  0.8353 -1.5487  0.4212
 9054TIP3    H248578   4.328   3.645   5.556  0.1581  1.7005 -2.4587
 9055TIP3   OH248579   6.190   2.996   5.360 -0.2389 -0.3928 -0.7955
 9055TIP3    H148580   6.224   2.907   5.349 -0.1391 -0.6157  0.9753
 9055TIP3    H248581   6.263   3.053   5.339  0.0268 -0.7631 -0.8900
 9056TIP3   OH248582   0.977   6.650  12.131 -0.1589  0.3788 -0.2178
 9056TIP3    H148583   0.922   6.605  12.196  0.6754  0.1695  0.3632
 9056TIP3    H248584   0.920   6.660  12.055 -0.9666  0.0669  0.3228
 9057TIP3   OH248585   4.059   6.422  12.820 -0.5187 -0.4591  0.2994
 9057TIP3    H148586   4.094   6.458  12.902 -0.4580  2.1284 -0.7648
 9057TIP3    H248587   3.965   6.416  12.835 -0.6743  1.2670  0.1603
 9058TIP3   OH248588   5.259   3.506   1.311  0.2874 -0.2117  0.1410
 9058TIP3    H148589   5.242   3.426   1.261  0.3571 -0.3864  0.3983
 9058TIP3    H248590   5.333   3.484   1.367 -1.5753 -0.9509  2.4415
 9059TIP3   OH248591   2.158   3.140   4.418 -0.1434 -0.8622  0.2004
 9059TIP3    H148592   2.065   3.144   4.442 -0.3300  1.9335 -0.6634
 9059TIP3    H248593   2.205   3.138   4.501 -0.9040  3.2241  0.9207
 9060TIP3   OH248594   4.091   3.453   1.204 -0.4139  0.3547 -0.4382
 9060TIP3    H148595   4.117   3.384   1.144  0.5852 -2.2393  2.6761
 9060TIP3    H248596   4.054   3.408   1.279 -0.6782  3.2724  1.3715
 9061TIP3   OH248597   6.653   1.376  14.100 -0.3199 -0.1189  0.2885
 9061TIP3    H148598   6.688   1.383  14.011 -1.0142  2.3448  0.1086
 9061TIP3    H248599   6.563   1.345  14.088 -0.3451  0.0111  0.1330
 9062TIP3   OH248600   3.009   1.604   4.318 -0.5165  0.0384  0.0990
 9062TIP3    H148601   2.958   1.611   4.399 -0.9315 -2.2383  0.0922
 9062TIP3    H248602   3.080   1.545   4.339  0.9511  1.5173 -0.5096
 9063TIP3   OH248603   5.925   0.349   3.169  0.2761 -0.5160 -0.5288
 9063TIP3    H148604   5.878   0.363   3.086 -0.6617 -0.7999 -0.0628
 9063TIP3    H248605   5.907   0.427   3.221 -2.6638 -2.0071  0.9952
 9064TIP3   OH248606   4.642   5.095   0.229  0.1517 -0.8906  0.4380
 9064TIP3    H148607   4.588   5.105   0.151  1.6035 -0.7702 -0.5894
 9064TIP3    H248608   4.691   5.177   0.235  0.4339 -1.1051  1.1775
 9065TIP3   OH248609   4.953   2.883  11.188  0.4517  0.2037 -0.4077
 9065TIP3    H148610   4.927   2.875  11.280 -1.3704  2.1445 -0.6747
 9065TIP3    H248611   4.897   2.821  11.141 -1.5244  2.0012 -0.5869
 9066TIP3   OH248612   3.859   4.531  12.604  0.1776 -0.0993  0.0722
 9066TIP3    H148613   3.880   4.614  12.561 -1.9072 -0.3796 -1.6721
 9066TIP3    H248614   3.942   4.484  12.608  1.1952  1.6169  0.1262
 9067TIP3   OH248615   2.998   3.076   3.824 -0.2380 -0.1275 -0.2910
 9067TIP3    H148616   3.086   3.104   3.799 -0.6433  0.9582 -0.5486
 9067TIP3    H248617   2.956   3.052   3.741 -0.8534  1.3446 -0.4272
 9068TIP3   OH248618   4.086   3.734  15.081 -0.1934  0.3721  0.4563
 9068TIP3    H148619   4.043   3.657  15.119 -0.7618  0.8641  0.8161
 9068TIP3    H248620   4.170   3.700  15.049 -0.5589 -0.4593  0.3482
 9069TIP3   OH248621   3.695   1.045  16.763  0.4285 -0.0119 -0.3091
 9069TIP3    H148622   3.678   1.057  16.856  4.5816 -2.1597  0.9654
 9069TIP3    H248623   3.621   0.994  16.731 -0.8200  0.2871  1.9355
 9070TIP3   OH248624   2.396   5.601   5.143  0.4886 -0.0106  0.1968
 9070TIP3    H148625   2.406   5.562   5.230 -1.7128 -0.6018  0.2474
 9070TIP3    H248626   2.414   5.528   5.082  4.6774  0.9767 -0.0884
 9071TIP3   OH248627   1.544   4.174   5.478  0.5993  0.0924  0.6024
 9071TIP3    H148628   1.638   4.177   5.500  0.7233 -1.0158  0.2830
 9071TIP3    H248629   1.511   4.259   5.506  2.3728  1.9273 -2.3508
 9072TIP3   OH248630   0.759   2.272   2.191 -0.6240 -0.4724 -0.0240
 9072TIP3    H148631   0.678   2.282   2.140 -0.1375 -2.3479 -1.2850
 9072TIP3    H248632   0.740   2.202   2.253 -0.0616 -0.7074 -0.1112
 9073TIP3   OH248633   5.421   3.847  15.988  0.5557  0.7196  0.5431
 9073TIP3    H148634   5.387   3.763  16.021  1.5538  1.8118  4.9354
 9073TIP3    H248635   5.342   3.895  15.962 -0.1272 -1.0300 -0.8866
 9074TIP3   OH248636   0.301   5.465  11.789  0.1486 -0.1805  1.0900
 9074TIP3    H148637   0.349   5.395  11.833  1.0284 -1.1215 -1.2018
 9074TIP3    H248638   0.211   5.433  11.784  0.3980 -0.8241  0.6977
 9075TIP3   OH248639   3.295   0.127  14.342  0.2858 -0.2774  0.1274
 9075TIP3    H148640   3.211   0.145  14.384  1.5901  1.7293  2.0913
 9075TIP3    H248641   3.350   0.091  14.411  1.3210 -0.7433 -0.8891
 9076TIP3   OH248642   6.162   6.123   5.523 -0.0859  0.2164 -0.2728
 9076TIP3    H148643   6.086   6.071   5.548 -0.5069  0.4685 -1.0036
 9076TIP3    H248644   6.187   6.170   5.604 -0.9794  0.4746 -0.1384
 9077TIP3   OH248645   5.701   1.159   0.561  0.6304  0.3782  0.2563
 9077TIP3    H148646   5.641   1.089   0.585  1.6707 -0.8220 -0.4437
 9077TIP3    H248647   5.780   1.112   0.531  0.4033  1.7293 -2.8747
 9078TIP3   OH248648   3.111   2.411   3.441 -0.0134  0.5970 -0.1328
 9078TIP3    H148649   3.065   2.332   3.412  0.7445  0.5712 -1.3130
 9078TIP3    H248650   3.097   2.475   3.371  0.1655  1.2142  0.3822
 9079TIP3   OH248651   0.612   6.438  14.659 -0.6983 -1.2052 -0.1006
 9079TIP3    H148652   0.573   6.379  14.594  1.4466 -1.5200 -1.1599
 9079TIP3    H248653   0.632   6.518  14.611  0.5766 -1.3038  0.2330
 9080TIP3   OH248654   1.908   0.953   1.669  0.2274 -0.3936  0.2505
 9080TIP3    H148655   1.846   1.007   1.719 -1.4524 -2.0781  0.0999
 9080TIP3    H248656   1.939   0.888   1.732  0.0153 -1.0107 -0.2755
 9081TIP3   OH248657   4.550   0.638  12.852 -0.1639  0.3378 -0.0135
 9081TIP3    H148658   4.603   0.642  12.773  0.9036  0.2030  0.6706
 9081TIP3    H248659   4.506   0.554  12.847  0.4727  0.0012 -0.1201
 9082TIP3   OH248660   4.608   6.122  14.497  0.6092 -0.7984  0.6807
 9082TIP3    H148661   4.672   6.193  14.503 -0.7591  0.3788  1.9389
 9082TIP3    H248662   4.599   6.107  14.403 -0.0769  1.6893  0.2770
 9083TIP3   OH248663   0.527   6.134  11.848 -0.1183 -0.2928  0.0631
 9083TIP3    H148664   0.467   6.072  11.806  0.5105  0.4709 -2.0860
 9083TIP3    H248665   0.494   6.220  11.824  1.4197  0.1482 -0.6526
 9084TIP3   OH248666   2.268   5.988   1.137 -0.2307  0.0020  0.4615
 9084TIP3    H148667   2.286   6.050   1.067  1.0950 -1.2780 -0.3940
 9084TIP3    H248668   2.173   5.975   1.134 -0.4230  1.3506  0.1550
 9085TIP3   OH248669   3.271   6.532  14.151  0.1305  0.5356  0.4539
 9085TIP3    H148670   3.208   6.535  14.222  0.4184  1.7761  0.6799
 9085TIP3    H248671   3.308   6.443  14.155 -0.9255  0.1043  0.8893
 9086TIP3   OH248672   0.763   4.656  17.032  0.0944  0.4208 -0.3057
 9086TIP3    H148673   0.724   4.668  17.119  0.8095  1.2666 -0.0948
 9086TIP3    H248674   0.834   4.720  17.028  0.8429 -0.4317 -1.0617
 9087TIP3   OH248675   1.266   5.041   0.665  0.0387 -0.1698  0.0663
 9087TIP3    H148676   1.240   4.959   0.623 -0.8630 -0.2439  0.7472
 9087TIP3    H248677   1.360   5.049   0.645 -0.1205 -0.7687 -0.9847
 9088TIP3   OH248678   2.097   5.677  13.833  0.0084  0.0151 -0.6676
 9088TIP3    H148679   2.005   5.700  13.822 -0.3271 -1.1618 -0.4793
 9088TIP3    H248680   2.123   5.643  13.747 -0.0520 -0.6764 -0.4193
 9089TIP3   OH248681   3.821   5.223  11.093 -0.8209  0.1490  0.6368
 9089TIP3    H148682   3.768   5.302  11.102 -0.6589  0.6073 -1.7338
 9089TIP3    H248683   3.796   5.188  11.007  0.9810 -0.9294  0.5150
 9090TIP3   OH248684   3.601   3.812   2.435  0.7351 -0.2051 -0.5398
 9090TIP3    H148685   3.531   3.878   2.439  1.0932  0.1842 -0.6069
 9090TIP3    H248686   3.659   3.843   2.366  1.0338 -0.4650 -0.4068
 9091TIP3   OH248687   3.165   1.551   3.729  0.3357  0.7660 -0.3309
 9091TIP3    H148688   3.162   1.481   3.664  1.7493  0.2030  0.1707
 9091TIP3    H248689   3.251   1.541   3.771  0.6370  2.8859 -0.3419
 9092TIP3   OH248690   5.755   5.335   4.697 -0.0581 -0.0078 -0.0509
 9092TIP3    H148691   5.780   5.243   4.688 -0.3504  0.0319 -1.5472
 9092TIP3    H248692   5.676   5.334   4.751  0.1033 -0.6051  0.1785
 9093TIP3   OH248693   0.968   3.246  14.944  0.0201  0.2962  0.3154
 9093TIP3    H148694   0.948   3.291  15.026  1.6734  0.2598  0.7780
 9093TIP3    H248695   1.009   3.163  14.971 -0.0344 -0.0269 -0.5396
 9094TIP3   OH248696   1.133   3.956   4.010  0.1174 -0.4086  0.0874
 9094TIP3    H148697   1.192   3.965   3.936  0.5143 -3.3110 -0.0810
 9094TIP3    H248698   1.049   3.988   3.979  0.3838 -1.1775 -1.5063
 9095TIP3   OH248699   2.722   0.457  12.759 -0.1846  0.2610 -0.3572
 9095TIP3    H148700   2.740   0.441  12.667  0.3027 -0.3285 -0.1743
 9095TIP3    H248701   2.630   0.435  12.770  0.0641 -0.9223 -0.4565
 9096TIP3   OH248702   4.368   3.297  12.288 -0.4427 -0.2746  0.0233
 9096TIP3    H148703   4.418   3.375  12.312  0.4455 -0.4071 -1.3085
 9096TIP3    H248704   4.341   3.312  12.198 -1.0423 -1.1084  0.0535
 9097TIP3   OH248705   6.018   5.525  14.929  0.0250 -0.0210 -0.4191
 9097TIP3    H148706   6.092   5.502  14.986 -1.0272 -1.4858  0.3985
 9097TIP3    H248707   5.974   5.442  14.912 -0.3407  0.5456 -2.4943
 9098TIP3   OH248708   2.739   6.280   0.973 -0.3399 -0.0437 -0.3201
 9098TIP3    H148709   2.710   6.325   0.893 -0.2119  0.0596 -0.3082
 9098TIP3    H248710   2.775   6.349   1.028  0.1546 -0.2020 -0.4355
 9099TIP3   OH248711   6.741   1.511  14.325 -0.1903 -0.2570 -0.0925
 9099TIP3    H148712   6.703   1.463  14.251  2.4547 -0.9782 -1.0841
 9099TIP3    H248713   6.708   1.465  14.402 -0.4132 -1.5799 -0.9317
 9100TIP3   OH248714   2.200   4.316   4.114  0.7868  0.0176  0.1878
 9100TIP3    H148715   2.152   4.349   4.190 -0.5623 -1.5894  0.0802
 9100TIP3    H248716   2.287   4.294   4.148 -0.1982 -1.9013  1.6117
 9101TIP3   OH248717   0.118   4.723  13.753  0.2452 -0.3254  0.3676
 9101TIP3    H148718   0.200   4.717  13.704  0.8724 -0.2868  1.3729
 9101TIP3    H248719   0.083   4.634  13.752  0.1751 -0.2986 -0.2512
 9102TIP3   OH248720   2.365   6.619   2.079 -0.3448 -0.2148  0.5676
 9102TIP3    H148721   2.431   6.606   2.010 -0.3583 -1.1416  0.7101
 9102TIP3    H248722   2.406   6.679   2.141 -0.2165  0.3955 -0.0904
 9103TIP3   OH248723   0.386   6.506   5.557  0.1569 -0.2015 -0.2015
 9103TIP3    H148724   0.443   6.561   5.611 -1.4280  0.5740  0.7814
 9103TIP3    H248725   0.445   6.444   5.515  1.9811  1.9139 -0.9731
 9104TIP3   OH248726   3.348   6.186   0.115  0.3021 -0.2216  0.2533
 9104TIP3    H148727   3.311   6.189   0.203 -0.1182 -1.4733  0.1432
 9104TIP3    H248728   3.278   6.149   0.061  0.2349  1.3555 -0.7998
 9105TIP3   OH248729   2.918   5.000  11.505 -0.2368  0.4861  0.0332
 9105TIP3    H148730   2.886   5.090  11.497 -0.5238  0.2544 -2.1850
 9105TIP3    H248731   2.937   4.974  11.415  1.6429 -1.0549  0.7983
 9106TIP3   OH248732   6.635   0.832   2.456 -0.4609 -0.4705  0.1622
 9106TIP3    H148733   6.701   0.856   2.521 -0.0341 -1.3842  0.0756
 9106TIP3    H248734   6.552   0.860   2.495  0.0786  2.3929 -0.5084
 9107TIP3   OH248735   0.201   6.121  12.806  0.0005 -0.2391 -0.1590
 9107TIP3    H148736   0.111   6.089  12.802 -0.0398 -0.0433 -1.0586
 9107TIP3    H248737   0.210   6.178  12.729  0.2580  1.4224  1.0526
 9108TIP3   OH248738   5.894   2.043  10.624 -0.2337  0.0104  0.3335
 9108TIP3    H148739   5.827   2.109  10.638  1.3671  1.8206 -0.0314
 9108TIP3    H248740   5.915   2.011  10.712 -1.0493 -0.0516  0.5133
 9109TIP3   OH248741   4.360   1.834  16.246  0.2496  0.2179  0.3003
 9109TIP3    H148742   4.306   1.772  16.294  2.4732 -0.7897  1.6739
 9109TIP3    H248743   4.332   1.825  16.155 -3.0248  1.0521  1.1137
 9110TIP3   OH248744   2.808   0.891  14.845 -0.2234 -0.6148  0.2095
 9110TIP3    H148745   2.859   0.892  14.926 -1.1223  0.2818  0.7803
 9110TIP3    H248746   2.718   0.874  14.873 -1.1208  2.7527 -0.2058
 9111TIP3   OH248747   2.994   1.333  15.937  0.2342 -0.2569  0.0006
 9111TIP3    H148748   2.953   1.249  15.916  1.8927 -0.8343 -1.1733
 9111TIP3    H248749   3.042   1.356  15.857  1.7116  0.6339  1.0992
 9112TIP3   OH248750   3.175   4.402  14.940  0.6384  0.4144 -0.0959
 9112TIP3    H148751   3.123   4.344  14.995  1.3251  2.0251  2.4126
 9112TIP3    H248752   3.260   4.407  14.984  1.1498  1.9451 -1.1889
 9113TIP3   OH248753   4.495   4.442  13.194 -0.2003  0.2939 -0.1565
 9113TIP3    H148754   4.400   4.449  13.205 -0.0775  1.0850  0.5804
 9113TIP3    H248755   4.521   4.376  13.258 -0.1131  1.0850  0.6630
 9114TIP3   OH248756   0.405   6.066   4.349 -0.3144  0.4589 -0.0956
 9114TIP3    H148757   0.334   6.030   4.401 -0.1912  0.5659  0.1530
 9114TIP3    H248758   0.485   6.031   4.389 -0.2683 -1.5995 -1.8329
 9115TIP3   OH248759   1.932   4.318   5.216  0.1183  0.3745 -0.4142
 9115TIP3    H148760   2.009   4.334   5.270  0.9961  0.6871 -1.7061
 9115TIP3    H248761   1.859   4.315   5.278  1.0545  0.8718  0.7509
 9116TIP3   OH248762   3.404   3.844   1.807  0.3706 -0.2915 -0.2674
 9116TIP3    H148763   3.496   3.827   1.783  0.8283  1.5267  0.0390
 9116TIP3    H248764   3.365   3.881   1.728 -0.0286 -0.7409 -0.2877
 9117TIP3   OH248765   2.038   2.175  14.980  0.0150  0.0881 -0.0869
 9117TIP3    H148766   2.045   2.111  15.051  1.6749  0.0395 -0.2682
 9117TIP3    H248767   2.017   2.122  14.902 -0.3909 -0.0196  0.0937
 9118TIP3   OH248768   5.889   0.250  13.377 -0.2571  0.3250  0.1735
 9118TIP3    H148769   5.939   0.274  13.456  0.0190 -0.6275  0.3043
 9118TIP3    H248770   5.921   0.162  13.355 -3.7353 -1.5463  1.8267
 9119TIP3   OH248771   3.397   2.148   5.304 -0.1582  0.7219 -0.4334
 9119TIP3    H148772   3.361   2.085   5.242  0.1200  0.4651 -0.3391
 9119TIP3    H248773   3.374   2.233   5.268 -0.5563  0.5679 -0.5523
 9120TIP3   OH248774   3.440   5.167   0.419  0.2870  0.3726 -0.2114
 9120TIP3    H148775   3.393   5.213   0.349  0.2854  0.4772 -0.1417
 9120TIP3    H248776   3.470   5.237   0.477 -0.6177  0.2270  0.4527
 9121TIP3   OH248777   3.734   6.421   4.589  0.9356  0.3153  0.4169
 9121TIP3    H148778   3.795   6.478   4.542  0.7848 -1.1398 -1.6954
 9121TIP3    H248779   3.777   6.336   4.589 -0.1392 -0.2401  0.8950
 9122TIP3   OH248780   2.605   3.380  11.120  0.0619 -0.8664 -0.2440
 9122TIP3    H148781   2.692   3.418  11.111 -0.2664 -0.1972 -0.5890
 9122TIP3    H248782   2.545   3.449  11.093 -0.5878 -1.2731  0.1298
 9123TIP3   OH248783   5.030   0.396  12.700 -0.2432  0.3909 -0.2773
 9123TIP3    H148784   5.047   0.489  12.718 -0.8252  0.8001 -1.7292
 9123TIP3    H248785   5.016   0.391  12.606  3.5939 -1.8078 -0.9375
 9124TIP3   OH248786   2.638   6.586   5.011  0.7557 -0.3983 -0.4857
 9124TIP3    H148787   2.621   6.670   5.053 -2.0884  0.3524 -2.7908
 9124TIP3    H248788   2.718   6.600   4.959  2.3656 -0.3476  1.8434
 9125TIP3   OH248789   6.401   1.440   4.173 -0.0821  0.0573 -0.5503
 9125TIP3    H148790   6.406   1.376   4.244 -0.1974 -0.3470 -0.9038
 9125TIP3    H248791   6.362   1.517   4.213 -0.4488 -0.2804 -0.2534
 9126TIP3   OH248792   2.286   4.482  11.020 -0.3671  0.3512 -0.1810
 9126TIP3    H148793   2.251   4.467  10.932  0.5735 -0.2104 -0.4793
 9126TIP3    H248794   2.373   4.520  11.005 -0.4811  0.8987  0.5185
 9127TIP3   OH248795   0.401   2.970  16.123 -0.0174 -0.3182 -0.2814
 9127TIP3    H148796   0.456   2.900  16.087  0.5052 -0.2077  0.2822
 9127TIP3    H248797   0.429   3.048  16.075 -1.1024 -0.5986 -1.4214
 9128TIP3   OH248798   6.456   2.488  15.231  0.2620 -0.1080  0.7349
 9128TIP3    H148799   6.545   2.476  15.197  0.2068  1.1497  0.0809
 9128TIP3    H248800   6.448   2.422  15.300  1.5156 -0.5883  0.4568
 9129TIP3   OH248801   4.655   3.945   5.148 -0.2108 -0.7107  0.1027
 9129TIP3    H148802   4.734   3.902   5.116  1.0342  1.6192 -0.1694
 9129TIP3    H248803   4.658   3.933   5.243  2.3105  1.9790  0.5323
 9130TIP3   OH248804   5.593   5.458  10.857  0.4401  0.4652  0.5391
 9130TIP3    H148805   5.667   5.483  10.802 -0.4957 -2.6010 -2.4679
 9130TIP3    H248806   5.523   5.517  10.831  0.8096  0.9464  0.6274
 9131TIP3   OH248807   1.721   5.819   0.745 -0.4919 -0.5829  0.0235
 9131TIP3    H148808   1.630   5.847   0.757 -0.1414  0.0950  1.1850
 9131TIP3    H248809   1.773   5.897   0.761  0.4455 -1.5717  2.3469
 9132TIP3   OH248810   0.234   2.722   1.698 -0.2848  1.2309 -0.0488
 9132TIP3    H148811   0.239   2.768   1.782 -1.4495  1.7730 -0.2666
 9132TIP3    H248812   0.181   2.645   1.715  0.6667  0.5676  0.0281
 9133TIP3   OH248813   1.568   2.861  12.924 -0.1536 -0.1472  0.0911
 9133TIP3    H148814   1.473   2.861  12.923 -0.1617  0.1903 -1.1628
 9133TIP3    H248815   1.592   2.780  12.879  0.1003  0.8272 -1.6527
 9134TIP3   OH248816   4.885   2.008   2.591 -0.0978  0.1158 -0.4371
 9134TIP3    H148817   4.963   2.044   2.548  0.6078  0.0233  0.7172
 9134TIP3    H248818   4.850   2.080   2.643  0.1774 -0.2951  0.3340
 9135TIP3   OH248819   3.874   0.533  13.288 -0.2718 -0.0317 -0.0860
 9135TIP3    H148820   3.817   0.457  13.287 -0.5646  0.1717 -1.9441
 9135TIP3    H248821   3.829   0.596  13.345  0.5371 -1.5801  2.4394
 9136TIP3   OH248822   6.606   5.361   5.348  0.6788 -0.8829 -0.0085
 9136TIP3    H148823   6.651   5.279   5.365  0.3907 -0.9514  0.4320
 9136TIP3    H248824   6.545   5.371   5.421 -0.1770 -0.8971 -0.7107
 9137TIP3   OH248825   0.445   3.828  16.912  0.3034 -0.1964 -0.3503
 9137TIP3    H148826   0.455   3.866  17.000  1.7036 -0.5040 -0.3444
 9137TIP3    H248827   0.530   3.788  16.894  0.4091  0.7967 -2.3063
 9138TIP3   OH248828   1.477   4.843   2.127  0.1308 -0.2174 -0.0568
 9138TIP3    H148829   1.418   4.880   2.193 -1.7193 -0.5699 -1.4519
 9138TIP3    H248830   1.453   4.751   2.121  2.1868 -0.8637  0.7165
 9139TIP3   OH248831   1.211   3.901   1.759 -0.5944  0.1816 -0.3286
 9139TIP3    H148832   1.269   3.928   1.831 -0.5301  2.6841 -1.2137
 9139TIP3    H248833   1.267   3.847   1.703  0.4895  1.2873 -0.3714
 9140TIP3   OH248834   2.931   5.542   5.592  0.4134 -0.2907  0.3973
 9140TIP3    H148835   3.010   5.520   5.642  0.7236  0.4250  0.2273
 9140TIP3    H248836   2.898   5.622   5.633 -0.5353 -0.8784  0.8147
 9141TIP3   OH248837   2.810   6.434   1.420  0.1922 -0.1217  0.1176
 9141TIP3    H148838   2.868   6.496   1.376 -0.0159 -0.2364 -0.3293
 9141TIP3    H248839   2.842   6.348   1.394  0.0881 -0.1926  0.2195
 9142TIP3   OH248840   0.017   2.968   5.506  0.1755  0.2031 -0.1772
 9142TIP3    H148841  -0.006   3.061   5.502 -0.3640  0.1112  0.5865
 9142TIP3    H248842   0.010   2.946   5.599 -1.3906 -1.0188 -0.5382
 9143TIP3   OH248843   5.650   5.146   5.124  0.2653 -0.2630 -0.2195
 9143TIP3    H148844   5.632   5.121   5.215  0.5017  0.6569  0.0992
 9143TIP3    H248845   5.664   5.064   5.078  1.0351 -0.7152  0.7738
 9144TIP3   OH248846   6.156   0.319  12.755  0.7039 -0.1319 -0.5375
 9144TIP3    H148847   6.168   0.224  12.762 -0.8974 -0.2177  2.4600
 9144TIP3    H248848   6.070   0.329  12.713  0.5418 -0.0438 -0.1911
 9145TIP3   OH248849   1.156   5.654   2.604 -0.1442  0.4883 -0.8218
 9145TIP3    H148850   1.134   5.699   2.686 -0.2647 -1.9083  0.5560
 9145TIP3    H248851   1.163   5.724   2.539 -0.2157  2.4605  1.1871
 9146TIP3   OH248852   2.163   5.109  16.569 -0.1939  0.2435  0.4753
 9146TIP3    H148853   2.074   5.096  16.536  0.1761 -1.7802  0.1444
 9146TIP3    H248854   2.218   5.109  16.491  0.1463  1.3772  0.6885
 9147TIP3   OH248855   6.647   3.105   6.122 -0.1909  0.2663 -0.2554
 9147TIP3    H148856   6.567   3.052   6.124  0.2246 -0.3828 -0.4073
 9147TIP3    H248857   6.697   3.069   6.048  1.1655 -0.7211  1.0761
 9148TIP3   OH248858   3.832   4.415  13.540  0.3919  0.0643 -0.7762
 9148TIP3    H148859   3.817   4.449  13.629  1.5972 -1.0555 -0.1030
 9148TIP3    H248860   3.750   4.430  13.494 -0.8987 -0.9554  1.0781
 9149TIP3   OH248861   1.658   4.042  12.937  0.0006  0.2422  0.3726
 9149TIP3    H148862   1.598   3.986  12.985 -0.3552 -1.9923 -2.4081
 9149TIP3    H248863   1.634   4.030  12.845  3.1709  1.0808 -0.7150
 9150TIP3   OH248864   0.918   0.328  15.469  0.4335  0.0653  0.2660
 9150TIP3    H148865   0.908   0.239  15.502 -0.3096 -0.9251 -2.3942
 9150TIP3    H248866   1.009   0.335  15.443  0.6059  0.2619  0.9092
 9151TIP3   OH248867   2.374   5.379   2.894 -0.3803 -1.1974 -0.0781
 9151TIP3    H148868   2.424   5.328   2.958 -1.0236 -1.3200  0.3400
 9151TIP3    H248869   2.283   5.369   2.922 -0.4776  0.7849  0.4841
 9152TIP3   OH248870   4.736   4.868  16.540  0.1257  0.5563 -0.5513
 9152TIP3    H148871   4.709   4.818  16.617  3.2564  1.5022  1.3461
 9152TIP3    H248872   4.766   4.802  16.478  0.4132 -0.1194  0.2890
 9153TIP3   OH248873   3.885   4.051  11.711 -0.2872 -0.4985 -0.2766
 9153TIP3    H148874   3.925   4.052  11.624 -0.7531 -0.7865 -0.4995
 9153TIP3    H248875   3.791   4.044  11.694 -0.5919  1.7683  0.1964
 9154TIP3   OH248876   1.382   3.197   2.600 -0.2073 -0.6287  0.3272
 9154TIP3    H148877   1.419   3.108   2.606  1.2410 -0.1463 -0.6961
 9154TIP3    H248878   1.329   3.206   2.679  0.8271 -1.8729  1.2188
 9155TIP3   OH248879   1.996   5.437  15.750 -0.0557 -0.4050  0.3339
 9155TIP3    H148880   2.037   5.427  15.664 -1.1882 -2.8844  0.0099
 9155TIP3    H248881   2.053   5.499  15.796  2.0256 -0.9808 -1.3030
 9156TIP3   OH248882   3.798   0.727   5.235 -0.0423 -0.4039 -0.2411
 9156TIP3    H148883   3.726   0.665   5.228 -0.5317  0.2496 -1.1266
 9156TIP3    H248884   3.785   0.771   5.319 -0.9735  0.0682 -0.6253
 9157TIP3   OH248885   4.822   6.469   3.349  0.1101  0.2363  0.0769
 9157TIP3    H148886   4.887   6.529   3.385  0.4528  1.5846 -2.5643
 9157TIP3    H248887   4.870   6.420   3.282 -0.5565 -1.9924  1.1361
 9158TIP3   OH248888   1.226   4.417  12.124 -0.2649 -0.0324 -0.2380
 9158TIP3    H148889   1.178   4.427  12.042 -0.0248 -0.0802 -0.3846
 9158TIP3    H248890   1.158   4.402  12.190 -0.3655 -2.4867 -0.8022
 9159TIP3   OH248891   4.192   5.324   1.986 -0.2235 -0.0102  0.3187
 9159TIP3    H148892   4.285   5.326   2.004 -0.1682 -0.4326  0.1048
 9159TIP3    H248893   4.153   5.382   2.051  0.3073  1.1432 -0.3543
 9160TIP3   OH248894   6.262   1.209   3.985 -0.9160  0.1227 -0.8080
 9160TIP3    H148895   6.215   1.128   4.003  1.3647 -0.8550  1.3468
 9160TIP3    H248896   6.215   1.276   4.036 -1.1548 -0.4135 -0.3109
 9161TIP3   OH248897   0.713   3.029   2.873  0.1738 -0.3730  0.2249
 9161TIP3    H148898   0.755   2.990   2.950  0.3161  0.7802  0.7547
 9161TIP3    H248899   0.722   3.123   2.886  0.1348 -0.1558 -1.1842
 9162TIP3   OH248900   4.223   2.595  14.853  0.1897 -0.7516 -0.3224
 9162TIP3    H148901   4.142   2.636  14.823  0.7823  0.8806  0.2244
 9162TIP3    H248902   4.206   2.574  14.945 -0.2136 -2.0607 -0.6739
 9163TIP3   OH248903   1.464   4.497   6.025 -0.2330  0.1959 -1.0906
 9163TIP3    H148904   1.541   4.473   6.076 -1.4405 -2.5907 -0.3702
 9163TIP3    H248905   1.391   4.494   6.088 -1.0062  2.9832 -1.6879
 9164TIP3   OH248906   1.171   5.723  15.687  0.2995 -0.2153 -0.4917
 9164TIP3    H148907   1.200   5.668  15.614 -0.1828 -0.4755 -0.4914
 9164TIP3    H248908   1.106   5.670  15.733 -0.0119  0.2696 -0.3656
 9165TIP3   OH248909   1.296   6.355   0.287  0.5163 -0.1745  0.5881
 9165TIP3    H148910   1.321   6.446   0.270  2.0431 -0.6029  0.3180
 9165TIP3    H248911   1.324   6.339   0.377 -0.6304 -0.1196  0.9721
 9166TIP3   OH248912   6.704   5.270   0.814 -0.1995 -0.4800  0.3338
 9166TIP3    H148913   6.652   5.195   0.785  0.5078 -0.5689 -0.7628
 9166TIP3    H248914   6.770   5.233   0.873  1.2272 -1.0487 -1.4980
 9167TIP3   OH248915   4.558   3.176   0.335 -0.3252  0.3098 -0.0954
 9167TIP3    H148916   4.524   3.249   0.387 -0.9609  0.9870 -1.4031
 9167TIP3    H248917   4.640   3.208   0.298 -0.7961  0.5314 -0.9851
 9168TIP3   OH248918   1.476   0.370  17.014 -0.4974 -0.1072  0.4089
 9168TIP3    H148919   1.510   0.320  17.088 -3.9074  0.3612  2.5492
 9168TIP3    H248920   1.438   0.448  17.054 -2.4368  0.1954 -1.8136
 9169TIP3   OH248921   5.271   0.994   6.069 -0.0600  0.1954  0.1357
 9169TIP3    H148922   5.365   1.014   6.066 -0.1158  0.5259  0.5690
 9169TIP3    H248923   5.257   0.953   6.154 -0.1031 -0.9522 -0.3972
 9170TIP3   OH248924   4.815   5.234  16.144  0.3983 -0.2568 -0.2853
 9170TIP3    H148925   4.720   5.227  16.155  0.5229 -1.9926 -0.0052
 9170TIP3    H248926   4.851   5.166  16.201  1.8907  1.1430  0.5045
 9171TIP3   OH248927   6.348   4.996   2.398  0.4240 -0.0466  0.2487
 9171TIP3    H148928   6.278   5.037   2.348 -0.2383 -0.1690  1.0448
 9171TIP3    H248929   6.368   5.059   2.468 -1.1091 -1.3112  1.9287
 9172TIP3   OH248930   4.390   5.820   5.140  0.0161  0.2523 -0.4723
 9172TIP3    H148931   4.335   5.745   5.118  0.5059 -0.4248  0.5629
 9172TIP3    H248932   4.472   5.782   5.171  0.5513  1.2327 -0.6324
 9173TIP3   OH248933   3.926   3.130   2.981  0.5788  0.1442 -0.7302
 9173TIP3    H148934   3.922   3.159   3.072  1.1464 -1.2357 -0.2457
 9173TIP3    H248935   3.840   3.091   2.965  0.5399  0.2287 -0.7275
 9174TIP3   OH248936   6.132   0.720  11.868  0.2119  0.1147 -0.1767
 9174TIP3    H148937   6.064   0.678  11.922  1.0496 -0.9425  0.0903
 9174TIP3    H248938   6.183   0.771  11.931  2.1401 -2.3320  0.4085
 9175TIP3   OH248939   4.352   1.569   0.701 -0.2757  0.2626 -0.6874
 9175TIP3    H148940   4.411   1.644   0.713 -1.7374  1.5614 -1.3064
 9175TIP3    H248941   4.266   1.601   0.727 -0.7105 -1.6929  0.4982
 9176TIP3   OH248942   3.893   1.369  12.865  0.1499  0.9065  0.3857
 9176TIP3    H148943   3.986   1.361  12.842  0.0480  1.0667 -0.0807
 9176TIP3    H248944   3.888   1.451  12.915  0.0752  1.5111 -0.5773
 9177TIP3   OH248945   2.119   0.904  12.469 -0.5850  0.2940 -0.8068
 9177TIP3    H148946   2.162   0.821  12.491 -1.4687 -0.1189 -0.6127
 9177TIP3    H248947   2.061   0.921  12.543 -0.7423  0.8554 -1.0598
 9178TIP3   OH248948   6.663   2.097  15.399  0.0137 -0.2166 -0.1571
 9178TIP3    H148949   6.729   2.075  15.334  0.1318 -0.3356  0.0040
 9178TIP3    H248950   6.647   2.015  15.447 -0.1556 -0.1584 -0.1125
 9179TIP3   OH248951   2.547   5.095   2.707 -0.1889 -0.0019  0.3306
 9179TIP3    H148952   2.474   5.060   2.758 -0.1110 -1.2515 -0.3908
 9179TIP3    H248953   2.508   5.126   2.626 -0.1086  0.6764  0.5425
 9180TIP3   OH248954   4.599   4.196  16.803 -0.1792 -0.1481  0.0604
 9180TIP3    H148955   4.664   4.145  16.851  0.6425  1.1852  0.4296
 9180TIP3    H248956   4.650   4.264  16.758 -0.9617 -1.0478 -2.3649
 9181TIP3   OH248957   5.143   4.470   5.715  0.5721  0.3936  0.8774
 9181TIP3    H148958   5.088   4.417   5.773  0.2711  0.1738  0.4086
 9181TIP3    H248959   5.102   4.459   5.628  0.2559  1.7288  0.8376
 9182TIP3   OH248960   6.403   3.674  14.174  0.5608  1.1779  1.5628
 9182TIP3    H148961   6.462   3.717  14.235  0.3465  0.1302  2.5522
 9182TIP3    H248962   6.396   3.584  14.206 -1.7461  1.3074  1.6609
 9183TIP3   OH248963   2.269   1.369   0.250  0.4007  0.1612  0.6528
 9183TIP3    H148964   2.233   1.281   0.263  0.9165 -0.3502 -1.0951
 9183TIP3    H248965   2.208   1.410   0.189  0.0622  1.1057  1.6035
 9184TIP3   OH248966   6.506   2.192  15.199 -0.0119  0.4992 -0.3876
 9184TIP3    H148967   6.566   2.266  15.192 -0.9163  1.1129 -2.5330
 9184TIP3    H248968   6.542   2.137  15.269  1.3097  2.3761  0.4592
 9185TIP3   OH248969   4.380   3.055   5.988 -0.0104 -0.2714  0.1599
 9185TIP3    H148970   4.364   3.131   5.932 -0.8524  0.3363  1.1801
 9185TIP3    H248971   4.295   3.012   5.996  0.0613 -0.2685  1.0575
 9186TIP3   OH248972   4.501   4.382  15.577 -0.4470 -0.0914  0.0747
 9186TIP3    H148973   4.538   4.391  15.490 -1.2763 -1.5151 -0.4508
 9186TIP3    H248974   4.406   4.390  15.564 -0.6025 -0.6661  0.7879
 9187TIP3   OH248975   6.340   1.388   2.731  0.5954 -0.8555 -0.3477
 9187TIP3    H148976   6.266   1.444   2.755  1.3875  0.2322 -0.4217
 9187TIP3    H248977   6.398   1.390   2.807  0.8672 -1.1895 -0.5402
 9188TIP3   OH248978   1.313   4.267  14.043  0.4150 -0.7154  0.0316
 9188TIP3    H148979   1.368   4.290  14.118 -0.4376  1.1629  0.1229
 9188TIP3    H248980   1.369   4.279  13.967  0.4708  0.1007  0.1982
 9189TIP3   OH248981   0.887   0.976   5.623 -0.1432  0.5757 -0.2595
 9189TIP3    H148982   0.810   0.920   5.636  1.0171 -1.1103 -0.3263
 9189TIP3    H248983   0.855   1.048   5.569 -1.9928  0.6827  0.8871
 9190TIP3   OH248984   2.154   1.963   1.938  0.1089  0.1296 -0.0415
 9190TIP3    H148985   2.190   2.041   1.979 -0.6236  0.4109  0.0870
 9190TIP3    H248986   2.087   1.996   1.879 -0.0442 -0.3856 -0.1605
 9191TIP3   OH248987   1.564   5.819   5.477 -0.3147 -0.4702  0.0568
 9191TIP3    H148988   1.543   5.801   5.568  0.6104  2.0818  0.8383
 9191TIP3    H248989   1.612   5.741   5.447  2.0643 -0.1541  2.6759
 9192TIP3   OH248990   6.507   3.676   5.592 -0.4371 -0.4808  0.3900
 9192TIP3    H148991   6.483   3.681   5.500 -0.1509  0.5763  0.3629
 9192TIP3    H248992   6.538   3.763   5.614  0.1624 -0.9060  1.3117
 9193TIP3   OH248993   6.484   0.754   1.139  0.5411  0.3810 -0.3671
 9193TIP3    H148994   6.438   0.674   1.165  0.7232  0.7591  1.1952
 9193TIP3    H248995   6.434   0.825   1.180  0.9253  1.0094 -0.9652
 9194TIP3   OH248996   4.421   0.078   2.061  0.0441 -0.4333 -0.3185
 9194TIP3    H148997   4.480   0.140   2.105 -1.9442  0.3494  1.4314
 9194TIP3    H248998   4.411   0.007   2.124 -0.3141 -0.9040 -0.9004
 9195TIP3   OH248999   1.962   3.977   3.457 -0.0482 -0.3508 -0.2266
 9195TIP3    H149000   1.984   3.982   3.550  0.6554  0.5938 -0.4227
 9195TIP3    H249001   1.916   4.059   3.440 -3.0415 -1.8660 -0.0391
 9196TIP3   OH249002   0.192   6.512   5.229  0.4804 -0.3546  0.0675
 9196TIP3    H149003   0.238   6.441   5.274  1.0804  0.3798  0.6484
 9196TIP3    H249004   0.204   6.588   5.287 -0.6171  0.0869 -0.2751
 9197TIP3   OH249005   2.416   3.905   2.993  0.5810  0.6065  0.2608
 9197TIP3    H149006   2.436   3.997   2.975  1.5909  0.2265 -0.7457
 9197TIP3    H249007   2.502   3.864   3.006  0.3283 -0.5497 -1.3104
 9198TIP3   OH249008   1.418   0.121   4.808 -0.9976 -0.0430 -0.4149
 9198TIP3    H149009   1.367   0.200   4.793 -1.5594 -0.1454  0.8476
 9198TIP3    H249010   1.468   0.139   4.888 -0.7357 -0.7688 -0.4025
 9199TIP3   OH249011   2.863   3.869  16.414 -0.1178  0.2239  0.3542
 9199TIP3    H149012   2.871   3.948  16.360  0.4324  0.1978  0.3898
 9199TIP3    H249013   2.868   3.797  16.351 -1.5506  0.2257  0.2201
 9200TIP3   OH249014   0.928   0.858  13.250 -0.0911  0.1263  0.0500
 9200TIP3    H149015   0.900   0.948  13.238  0.2209  0.3051  0.6223
 9200TIP3    H249016   0.896   0.812  13.172  1.1793  1.0618 -1.0678
 9201TIP3   OH249017   3.304   1.450   1.581 -0.2668  0.2609  0.4350
 9201TIP3    H149018   3.270   1.360   1.582  0.6523 -0.1224 -0.8675
 9201TIP3    H249019   3.392   1.443   1.616  0.5943  0.2792 -1.6209
 9202TIP3   OH249020   5.149   2.657   4.683 -0.3852 -0.3428  0.5026
 9202TIP3    H149021   5.133   2.713   4.607  0.0832  0.0362  0.6810
 9202TIP3    H249022   5.138   2.714   4.759  1.4160 -0.1255  0.6468
 9203TIP3   OH249023   0.056   1.496  11.927  0.8086 -0.4586  1.1052
 9203TIP3    H149024   0.085   1.502  11.836  1.2519 -0.9940  1.2049
 9203TIP3    H249025   0.010   1.412  11.932  0.0716 -0.0628  1.1872
 9204TIP3   OH249026   5.982   4.243   5.021  0.4732 -0.6995 -0.2927
 9204TIP3    H149027   5.983   4.335   5.047 -1.3089 -0.4693 -0.9060
 9204TIP3    H249028   6.071   4.226   4.989  1.0606  0.5642  0.5715
 9205TIP3   OH249029   2.498   2.347  13.715  0.3742 -0.0090 -0.4410
 9205TIP3    H149030   2.528   2.438  13.706  0.0617  0.0163 -1.3164
 9205TIP3    H249031   2.548   2.298  13.650  1.7521 -0.7851  1.1557
 9206TIP3   OH249032   2.847   4.356  11.819  0.5580 -0.4175  0.1443
 9206TIP3    H149033   2.852   4.262  11.836  2.0490 -0.4551 -0.3751
 9206TIP3    H249034   2.937   4.387  11.822  0.0141  1.2276  1.3778
 9207TIP3   OH249035   0.289   4.081   2.651 -0.1543  0.1151  0.0306
 9207TIP3    H149036   0.266   4.162   2.606 -0.1913 -0.8830 -1.8285
 9207TIP3    H249037   0.375   4.057   2.615 -0.7528 -1.3663 -0.4743
 9208TIP3   OH249038   3.162   0.224  12.432  0.6217 -0.1463 -0.3604
 9208TIP3    H149039   3.077   0.186  12.455  0.5620 -0.2998 -0.8231
 9208TIP3    H249040   3.162   0.310  12.473 -0.5287  0.6349 -1.8858
 9209TIP3   OH249041   1.686   5.057  12.607 -0.3248 -0.0220 -0.2259
 9209TIP3    H149042   1.704   5.092  12.695 -0.3075 -0.6822  0.0384
 9209TIP3    H249043   1.618   4.991  12.621 -0.1165 -0.3309 -0.6731
 9210TIP3   OH249044   2.329   0.872  14.214  0.4441 -0.1828 -0.1205
 9210TIP3    H149045   2.325   0.898  14.306  2.6867 -3.3953  1.0416
 9210TIP3    H249046   2.239   0.850  14.192 -0.1252  0.5311  1.3212
 9211TIP3   OH249047   0.078   3.740   5.184  0.2561 -0.2575  0.7564
 9211TIP3    H149048   0.142   3.775   5.246  0.1410 -1.5313  1.6537
 9211TIP3    H249049   0.059   3.652   5.218 -1.5677 -0.1111  0.2113
 9212TIP3   OH249050   0.753   3.372  12.175  0.1574 -0.2316 -0.2680
 9212TIP3    H149051   0.667   3.383  12.215  0.9363  0.6257  1.2591
 9212TIP3    H249052   0.814   3.370  12.249  1.4497 -0.8957 -1.3102
 9213TIP3   OH249053   0.478   5.613   3.670  0.6493 -0.6725 -0.7122
 9213TIP3    H149054   0.519   5.673   3.731  1.3633 -1.6433 -0.2048
 9213TIP3    H249055   0.435   5.669   3.605  0.5011  0.3730  0.2592
 9214TIP3   OH249056   5.648   1.450  12.539  0.0305  0.8208  0.5927
 9214TIP3    H149057   5.621   1.507  12.611 -0.0008  1.6996 -0.1046
 9214TIP3    H249058   5.610   1.490  12.461  0.7915  0.3646 -0.0247
 9215TIP3   OH249059   0.961   0.468   0.253  0.0288 -0.1903  0.6190
 9215TIP3    H149060   0.879   0.468   0.302  0.5457 -0.4390  1.4981
 9215TIP3    H249061   0.967   0.380   0.215 -0.5863  0.1419 -0.2759
 9216TIP3   OH249062   1.370   3.641  16.569 -0.0755 -0.4811 -0.0507
 9216TIP3    H149063   1.281   3.605  16.564 -0.1742 -0.3956  0.9005
 9216TIP3    H249064   1.361   3.720  16.622  0.5731 -0.4929  0.0855
 9217TIP3   OH249065   6.186   4.926  13.437  0.0064  0.0477 -0.8255
 9217TIP3    H149066   6.162   4.958  13.350 -1.0965 -2.2371 -1.4423
 9217TIP3    H249067   6.282   4.923  13.436  0.1516  2.6477 -0.9026
 9218TIP3   OH249068   2.665   0.746   1.618 -0.0068 -0.6753 -0.6226
 9218TIP3    H149069   2.589   0.731   1.674  0.5904 -1.3441  0.0396
 9218TIP3    H249070   2.713   0.816   1.662  0.3755 -1.0880 -0.3633
 9219TIP3   OH249071   4.791   6.008  11.667 -0.6691  0.4074  0.4821
 9219TIP3    H149072   4.864   6.062  11.696 -0.9968  0.5457  1.0654
 9219TIP3    H249073   4.724   6.021  11.734 -0.7077 -0.8110  0.6944
 9220TIP3   OH249074   1.898   6.077  14.039  0.1777 -0.4979  0.5971
 9220TIP3    H149075   1.833   6.052  14.105 -0.9709 -0.6738 -0.5704
 9220TIP3    H249076   1.853   6.143  13.986  1.6856  0.9197  1.0166
 9221TIP3   OH249077   5.237   0.509   4.244 -0.2835  0.0675 -0.1065
 9221TIP3    H149078   5.239   0.501   4.339 -1.4207  0.9148  0.0015
 9221TIP3    H249079   5.223   0.602   4.227  3.0725  0.5248 -1.1893
 9222TIP3   OH249080   5.360   4.388  10.782  0.2122 -0.2218  0.5499
 9222TIP3    H149081   5.298   4.430  10.723  0.3806  1.5033  1.5461
 9222TIP3    H249082   5.316   4.308  10.810 -1.3012  0.6491  0.7619
 9223TIP3   OH249083   1.840   2.675   1.600 -0.1665  0.0300  0.2591
 9223TIP3    H149084   1.779   2.700   1.530 -0.2135 -1.6726 -0.3548
 9223TIP3    H249085   1.911   2.630   1.554  0.7130  0.4873  1.1491
 9224TIP3   OH249086   6.686   2.761   2.099  0.2794 -0.1597  0.0439
 9224TIP3    H149087   6.618   2.695   2.112  0.9824 -0.8994  0.0837
 9224TIP3    H249088   6.664   2.801   2.015  1.1396 -2.1168 -1.1930
 9225TIP3   OH249089   3.084   4.213   5.186  0.3921 -0.3490 -0.0998
 9225TIP3    H149090   3.153   4.271   5.216  1.2647 -0.4668 -1.7729
 9225TIP3    H249091   3.125   4.127   5.181 -0.0352 -0.5323 -0.5616
 9226TIP3   OH249092   2.500   3.215   0.932 -0.9106  0.9182  0.0528
 9226TIP3    H149093   2.540   3.129   0.941  0.4240  1.5986  0.9219
 9226TIP3    H249094   2.534   3.249   0.849  2.1192  2.3160  1.6998
 9227TIP3   OH249095   4.735   6.299   5.531  0.6416 -0.3894 -0.0005
 9227TIP3    H149096   4.663   6.251   5.492  1.1637 -2.1504  1.0812
 9227TIP3    H249097   4.712   6.391   5.520 -0.2172 -0.8392 -2.4969
 9228TIP3   OH249098   2.920   3.798  13.731  0.3017  0.2261 -0.4511
 9228TIP3    H149099   2.997   3.767  13.780  1.0344  2.4748 -0.0915
 9228TIP3    H249100   2.860   3.828  13.799 -0.4126 -0.3867 -0.7953
 9229TIP3   OH249101   3.161   0.596   3.430 -0.2405 -0.0600  0.1255
 9229TIP3    H149102   3.110   0.563   3.504 -0.9147  0.3193 -0.1498
 9229TIP3    H249103   3.105   0.665   3.392 -0.8927 -1.6210 -2.0045
 9230TIP3   OH249104   2.958   0.884   4.347  0.1900 -0.5982  0.3714
 9230TIP3    H149105   3.035   0.829   4.333  0.0502 -0.9566  0.9464
 9230TIP3    H249106   2.993   0.973   4.352  0.5399 -0.7331  0.3854
 9231TIP3   OH249107   1.064   5.545   0.530 -0.1089  0.4177 -0.5020
 9231TIP3    H149108   1.026   5.484   0.468  0.6356 -0.2338 -0.3398
 9231TIP3    H249109   1.099   5.489   0.600  2.5848  0.7937 -1.4075
 9232TIP3   OH249110   4.347   2.850   2.154 -0.5145  0.3143  0.1982
 9232TIP3    H149111   4.293   2.887   2.223 -0.4846 -0.6824  0.7805
 9232TIP3    H249112   4.431   2.895   2.162  0.0446 -0.9268  1.9187
 9233TIP3   OH249113   3.607   0.147  11.875  0.1352 -0.5868 -0.2435
 9233TIP3    H149114   3.686   0.121  11.923 -0.4883  2.0279  2.4236
 9233TIP3    H249115   3.541   0.084  11.902  1.2152 -3.0773 -2.8333
 9234TIP3   OH249116   2.735   6.140  11.388  0.1829  0.0604  0.1304
 9234TIP3    H149117   2.644   6.150  11.360  0.1901  1.2564  0.4538
 9234TIP3    H249118   2.769   6.230  11.390  1.4760 -0.4002 -0.3161
 9235TIP3   OH249119   2.147   6.598   5.369  0.8793 -0.6601  0.1462
 9235TIP3    H149120   2.117   6.623   5.281  3.3598  1.1261 -0.2876
 9235TIP3    H249121   2.241   6.582   5.360  1.0957 -1.0343  2.3756
 9236TIP3   OH249122   3.286   3.264   4.111  0.2416  0.2374 -0.5087
 9236TIP3    H149123   3.303   3.170   4.122 -0.9295  0.1410  0.6327
 9236TIP3    H249124   3.200   3.268   4.069 -0.0339  0.7979  0.0901
 9237TIP3   OH249125   0.766   5.214  11.469  0.0547 -0.2126 -0.1792
 9237TIP3    H149126   0.712   5.292  11.458  0.9436  0.2805 -1.2028
 9237TIP3    H249127   0.818   5.232  11.548 -1.2103 -0.6796  0.7936
 9238TIP3   OH249128   4.713   5.308   2.148 -0.4308  0.0894 -0.2156
 9238TIP3    H149129   4.637   5.313   2.206 -0.3206 -2.8162  0.3151
 9238TIP3    H249130   4.776   5.369   2.187 -0.6213 -1.2402  2.4074
 9239TIP3   OH249131   5.064   3.635   1.938  0.4492 -0.1431  0.5960
 9239TIP3    H149132   5.136   3.688   1.903  1.5626  0.3213  3.3683
 9239TIP3    H249133   4.989   3.695   1.940  0.7061  0.1966  0.2297
 9240TIP3   OH249134   6.654   0.173   5.821  0.5036 -0.5325  0.1559
 9240TIP3    H149135   6.626   0.207   5.906  0.7827 -0.0719  0.0685
 9240TIP3    H249136   6.622   0.238   5.758  0.9214 -0.5013 -0.0263
 9241TIP3   OH249137   2.664   6.409   5.414  0.4813  0.3971 -0.4028
 9241TIP3    H149138   2.610   6.366   5.480 -0.1037  0.1763 -1.0151
 9241TIP3    H249139   2.651   6.503   5.430 -1.2199  0.3722 -1.4193
 9242TIP3   OH249140   0.264   2.574  12.063 -0.6378  0.0537 -0.8712
 9242TIP3    H149141   0.312   2.494  12.040  1.1273  0.8080 -0.0299
 9242TIP3    H249142   0.173   2.555  12.040 -0.2763 -2.1988 -0.6833
 9243TIP3   OH249143   6.305   0.336  13.960  0.7926 -0.0745  0.6570
 9243TIP3    H149144   6.227   0.333  14.016  1.0878 -0.6192  1.0490
 9243TIP3    H249145   6.293   0.415  13.908 -1.4191 -1.5726 -1.3435
 9244TIP3   OH249146   2.591   2.640  11.449 -0.1394 -0.7377 -0.5589
 9244TIP3    H149147   2.537   2.719  11.438  0.4418 -0.2727 -0.1363
 9244TIP3    H249148   2.681   2.671  11.434  0.1097 -1.2855 -0.2052
 9245TIP3   OH249149   2.434   0.656   1.166  0.1486  0.3400  0.5098
 9245TIP3    H149150   2.355   0.630   1.119  0.6404  0.1034 -0.2052
 9245TIP3    H249151   2.493   0.581   1.156  0.0178 -0.0087  2.1060
 9246TIP3   OH249152   3.554   5.551  11.277  0.3955  0.4831 -0.4983
 9246TIP3    H149153   3.571   5.493  11.202 -0.2070  0.7013 -0.8056
 9246TIP3    H249154   3.511   5.628  11.239 -0.9239  0.1213  0.1893
 9247TIP3   OH249155   0.980   0.530   0.965  0.7414  0.2327  0.2058
 9247TIP3    H149156   0.933   0.452   0.934  0.4863  0.8896 -1.1147
 9247TIP3    H249157   0.912   0.591   0.991  0.8469  0.8045 -0.7738
 9248TIP3   OH249158   0.835   4.341   1.848 -0.3042 -0.3496 -0.1308
 9248TIP3    H149159   0.764   4.318   1.789 -0.9970  0.1093  0.5073
 9248TIP3    H249160   0.792   4.361   1.931  0.5294  0.3273  0.1560
 9249TIP3   OH249161   6.526   2.225   5.112 -0.3532  0.4238 -0.1886
 9249TIP3    H149162   6.571   2.245   5.030  1.5146 -1.5248  0.2728
 9249TIP3    H249163   6.557   2.291   5.174 -0.5272  0.9385 -0.6500
 9250TIP3   OH249164   2.209   3.708   2.992  0.1627 -0.2782  0.2609
 9250TIP3    H149165   2.191   3.747   3.078  0.8546  1.0413 -0.1696
 9250TIP3    H249166   2.280   3.761   2.956  1.6502 -2.3728 -0.0740
 9251TIP3   OH249167   1.993   2.445  12.243  0.6736 -0.7327 -0.5890
 9251TIP3    H149168   2.040   2.474  12.165 -0.5768  0.3568 -0.9781
 9251TIP3    H249169   2.025   2.501  12.314 -1.0048  1.0598 -1.1417
 9252TIP3   OH249170   5.634   0.653  16.606 -0.2684  0.0908 -0.2976
 9252TIP3    H149171   5.715   0.677  16.561 -0.6148  0.7029 -0.5941
 9252TIP3    H249172   5.568   0.647  16.537 -0.2931 -1.3380 -0.1921
 9253TIP3   OH249173   4.821   5.108   1.479 -0.2678 -0.2262 -0.5068
 9253TIP3    H149174   4.793   5.066   1.398  0.0830 -0.8139 -0.3346
 9253TIP3    H249175   4.747   5.098   1.538 -0.1717 -0.6547 -0.4545
 9254TIP3   OH249176   4.534   6.690  11.621 -0.0418  0.5363 -0.0227
 9254TIP3    H149177   4.568   6.620  11.566 -0.2527 -0.1357  0.6876
 9254TIP3    H249178   4.498   6.754  11.559  1.9575  1.0108 -0.7745
 9255TIP3   OH249179   6.093   1.893  16.510 -0.2746 -0.5083 -0.0541
 9255TIP3    H149180   6.093   1.860  16.420  0.2777  1.2420 -0.7260
 9255TIP3    H249181   6.181   1.873  16.542 -0.0652 -0.0299 -0.3282
 9256TIP3   OH249182   6.778   3.346   6.152  0.1705  0.1053 -0.0249
 9256TIP3    H149183   6.839   3.312   6.087 -0.8542  0.6604 -1.3383
 9256TIP3    H249184   6.717   3.273   6.168 -0.3125  0.3611 -0.6507
 9257TIP3   OH249185   5.337   5.468   1.663  0.0799  0.4374 -0.1418
 9257TIP3    H149186   5.386   5.387   1.654 -0.1207 -0.0562  2.4568
 9257TIP3    H249187   5.394   5.535   1.626  0.8634 -0.6817 -1.0075
 9258TIP3   OH249188   6.314   0.464  12.945  0.1376 -0.0172  0.0750
 9258TIP3    H149189   6.282   0.429  12.862  2.1272  0.8797 -1.1308
 9258TIP3    H249190   6.290   0.397  13.010 -1.3779 -0.7716 -1.2096
 9259TIP3   OH249191   4.129   3.909  13.070  0.3639  0.5695 -0.0181
 9259TIP3    H149192   4.095   3.827  13.106 -0.0589  0.6562 -0.2193
 9259TIP3    H249193   4.222   3.891  13.054  0.3908  0.2955  0.4230
 9260TIP3   OH249194   5.300   3.515   3.845  0.6448 -0.3425  0.1964
 9260TIP3    H149195   5.236   3.553   3.905 -1.4868  1.0520 -2.7101
 9260TIP3    H249196   5.362   3.586   3.829 -0.0222  0.0211 -0.8365
 9261TIP3   OH249197   5.455   6.143   3.798 -0.3025 -0.7793  0.1991
 9261TIP3    H149198   5.495   6.214   3.848 -1.3292  0.1645 -0.2553
 9261TIP3    H249199   5.385   6.186   3.748 -1.8185 -2.2961  0.8901
 9262TIP3   OH249200   3.653   6.291   5.939 -0.1175  0.3571 -0.2719
 9262TIP3    H149201   3.561   6.311   5.923  0.7388  2.9472 -2.6731
 9262TIP3    H249202   3.697   6.308   5.856  2.5047 -1.3286  0.6274
 9263TIP3   OH249203   4.473   0.096  16.523  0.0590 -0.2746 -0.1061
 9263TIP3    H149204   4.496   0.165  16.462 -0.1939 -0.2060 -0.1255
 9263TIP3    H249205   4.552   0.042  16.529  0.3057  0.0971  0.0244
 9264TIP3   OH249206   1.741   2.632   3.594 -0.1127  0.2290 -0.3650
 9264TIP3    H149207   1.814   2.642   3.533 -0.6696  0.3489 -1.0262
 9264TIP3    H249208   1.695   2.716   3.591  0.9996  0.9787  1.7733
 9265TIP3   OH249209   3.175   1.054  15.760 -0.4150 -0.8295  0.5609
 9265TIP3    H149210   3.095   1.013  15.728  0.2362 -1.4833 -0.3037
 9265TIP3    H249211   3.227   1.070  15.681  0.7255 -1.3311  1.1786
 9266TIP3   OH249212   4.602   6.016  15.293  0.2004  0.4860  0.0888
 9266TIP3    H149213   4.646   5.949  15.241  0.0107  1.7773 -1.8530
 9266TIP3    H249214   4.509   5.996  15.284  0.1795  0.5454  0.1728
 9267TIP3   OH249215   2.447   5.957   3.289 -0.5660 -0.1151 -0.2587
 9267TIP3    H149216   2.495   5.932   3.210 -0.0327 -2.3470  0.7074
 9267TIP3    H249217   2.503   6.023   3.331 -0.4572  0.4706 -1.2869
 9268TIP3   OH249218   0.298   6.795   1.399  0.5166  0.0342 -0.1881
 9268TIP3    H149219   0.281   6.872   1.453 -0.1554 -0.6210  0.5712
 9268TIP3    H249220   0.330   6.729   1.460  1.2368 -0.2449 -0.8535
 9269TIP3   OH249221   4.125   0.397   3.530 -0.4651 -0.2324  0.1241
 9269TIP3    H149222   4.209   0.362   3.499 -0.8445 -1.2928  0.2620
 9269TIP3    H249223   4.149   0.474   3.583  0.4834 -0.9828  0.8207
 9270TIP3   OH249224   0.017   0.477   2.974 -0.6136  0.0446  0.2891
 9270TIP3    H149225   0.062   0.445   2.895 -0.3962  0.8453  0.0795
 9270TIP3    H249226   0.085   0.477   3.041  0.0806  2.3853 -0.3109
 9271TIP3   OH249227   2.780   2.311  14.193 -0.4139  0.2803  0.3733
 9271TIP3    H149228   2.793   2.298  14.287  1.0837  0.7951  0.2703
 9271TIP3    H249229   2.728   2.236  14.165  1.4007 -1.3747  1.1573
 9272TIP3   OH249230   6.533   3.358   1.768 -0.0962  0.6980  0.6723
 9272TIP3    H149231   6.536   3.298   1.842  3.5089  0.0418  0.1727
 9272TIP3    H249232   6.513   3.303   1.693  0.4804  0.5636  0.6079
 9273TIP3   OH249233   2.619   1.145  15.919  0.1058  0.0544 -0.5368
 9273TIP3    H149234   2.712   1.131  15.899  0.2648 -0.1470  0.2842
 9273TIP3    H249235   2.620   1.190  16.004 -0.5645 -1.3466  0.2501
 9274TIP3   OH249236   3.715   6.595   5.509  0.2610 -0.8724 -0.4655
 9274TIP3    H149237   3.706   6.572   5.417 -0.0815 -0.0295 -0.6500
 9274TIP3    H249238   3.797   6.643   5.515  0.3000 -0.9546 -0.3242
 9275TIP3   OH249239   4.505   5.346  15.851 -0.2705 -0.3129 -0.0657
 9275TIP3    H149240   4.493   5.252  15.838 -0.5432 -0.5053  1.3833
 9275TIP3    H249241   4.599   5.360  15.848 -0.2867 -0.3518 -1.8730
 9276TIP3   OH249242   6.564   5.706   0.423  0.0031 -0.5045 -0.2023
 9276TIP3    H149243   6.599   5.668   0.504  0.6203 -0.8370 -0.6150
 9276TIP3    H249244   6.471   5.721   0.441  0.3564  0.4403  0.9410
 9277TIP3   OH249245   0.090   4.069  11.965  0.2115  0.2244 -0.0627
 9277TIP3    H149246   0.162   4.039  12.021  0.2160 -0.0414 -0.2059
 9277TIP3    H249247   0.100   4.017  11.885 -0.9301 -0.8028  0.4223
 9278TIP3   OH249248   3.398   6.557  12.094 -0.5638 -0.6584  0.4195
 9278TIP3    H149249   3.440   6.472  12.084 -0.2993 -0.6541  1.3768
 9278TIP3    H249250   3.306   6.537  12.112 -0.7826 -0.6970 -0.7099
 9279TIP3   OH249251   4.362   1.703   2.442 -0.1602  0.0771 -0.0605
 9279TIP3    H149252   4.331   1.631   2.496  0.8889  0.5682  1.2404
 9279TIP3    H249253   4.382   1.662   2.357  1.2435 -1.3655  0.9101
 9280TIP3   OH249254   2.508   6.641  16.357  0.4543 -0.3133 -0.1058
 9280TIP3    H149255   2.548   6.648  16.443  1.8056  0.0489 -0.7335
 9280TIP3    H249256   2.416   6.618  16.374  0.1671  1.7493  1.5062
 9281TIP3   OH249257   5.864   6.512  10.955  0.2482  0.2437  0.3003
 9281TIP3    H149258   5.876   6.442  11.019 -1.7830  0.4519  0.9745
 9281TIP3    H249259   5.867   6.467  10.870 -1.2575 -0.7269  0.7262
 9282TIP3   OH249260   4.602   3.651   0.021 -0.0931  1.1527  0.3230
 9282TIP3    H149261   4.518   3.654   0.067 -0.6350 -0.8439 -0.4572
 9282TIP3    H249262   4.601   3.727  -0.037 -1.3036  1.2405  0.4429
 9283TIP3   OH249263   4.959   3.896   3.935  0.2082  0.3036  0.3372
 9283TIP3    H149264   5.051   3.888   3.958  0.1138 -1.8436  0.2406
 9283TIP3    H249265   4.955   3.965   3.870  1.6412  0.8874  0.8454
 9284TIP3   OH249266   2.386   0.961  16.550  0.2113  0.1423  0.0528
 9284TIP3    H149267   2.364   0.907  16.626  0.3396  0.4252  0.2924
 9284TIP3    H249268   2.433   0.903  16.491  1.6495  0.3528  0.9482
 9285TIP3   OH249269   3.643   1.460   4.938 -0.6360  0.2885 -0.0141
 9285TIP3    H149270   3.656   1.455   4.844 -3.4653  0.4580 -0.5167
 9285TIP3    H249271   3.663   1.551   4.960  0.1193  0.2258 -0.4192
 9286TIP3   OH249272   1.079   3.325   0.541 -1.2991  0.1402  0.2516
 9286TIP3    H149273   1.044   3.266   0.608 -2.5491  1.0508  0.4290
 9286TIP3    H249274   1.003   3.352   0.490 -0.3327 -0.8844 -1.8875
 9287TIP3   OH249275   0.049   4.576   5.482 -0.0160 -0.4216  0.7666
 9287TIP3    H149276   0.047   4.512   5.553  1.7656 -0.8399  0.4716
 9287TIP3    H249277  -0.007   4.538   5.414 -2.0080  0.1297  1.9927
 9288TIP3   OH249278   2.671   5.203  16.019 -0.6076 -1.1494 -0.7384
 9288TIP3    H149279   2.665   5.191  15.924 -0.9042  0.3557 -0.9402
 9288TIP3    H249280   2.764   5.191  16.039 -0.3648 -0.4522 -1.3976
 9289TIP3   OH249281   6.678   1.375   4.729  0.8882 -0.4974 -0.3655
 9289TIP3    H149282   6.716   1.390   4.642  1.1796 -1.2833 -0.3788
 9289TIP3    H249283   6.627   1.454   4.746 -1.1605 -1.2862 -2.3052
 9290TIP3   OH249284   3.050   5.391  13.027 -0.0303 -0.4309  0.1345
 9290TIP3    H149285   3.024   5.476  12.992  1.0629  0.5348  1.5346
 9290TIP3    H249286   2.967   5.345  13.040 -0.6871  0.6033 -0.1978
 9291TIP3   OH249287   3.504   4.122  16.686  0.0528 -0.3603 -0.2124
 9291TIP3    H149288   3.533   4.072  16.763 -1.2743 -1.4223 -0.3670
 9291TIP3    H249289   3.414   4.146  16.706  0.5599  1.8559 -0.2472
 9292TIP3   OH249290   3.550   0.124   2.496  0.4485  0.1274  0.1559
 9292TIP3    H149291   3.541   0.133   2.591  0.7225 -1.4422  0.3589
 9292TIP3    H249292   3.461   0.130   2.463  0.3932  1.1485  0.4469
 9293TIP3   OH249293   1.612   6.203   0.717  0.0960  0.2555 -0.1249
 9293TIP3    H149294   1.584   6.248   0.797 -0.3757 -1.1228  0.5282
 9293TIP3    H249295   1.558   6.240   0.648 -0.4680  0.4932  0.4321
 9294TIP3   OH249296   4.836   1.144   4.657  0.4779  0.0174 -0.3458
 9294TIP3    H149297   4.776   1.184   4.720  1.2417 -1.2183  1.2428
 9294TIP3    H249298   4.782   1.082   4.608 -0.0166  0.6223 -0.5783
 9295TIP3   OH249299   3.307   4.085  13.319 -0.4113 -0.2891  0.6517
 9295TIP3    H149300   3.391   4.129  13.302 -0.3522 -0.2622  1.0189
 9295TIP3    H249301   3.294   4.030  13.242 -0.0858 -0.2474  0.5629
 9296TIP3   OH249302   6.056   6.008   4.732 -0.0950  0.3688 -0.0858
 9296TIP3    H149303   6.142   5.966   4.736  0.1160  0.6769 -1.0611
 9296TIP3    H249304   6.005   5.953   4.672 -0.8122 -0.1932  1.0059
 9297TIP3   OH249305   4.004   2.140   3.413 -0.1857  0.4499  0.1505
 9297TIP3    H149306   4.043   2.216   3.371 -2.8831  0.3268 -2.9561
 9297TIP3    H249307   3.952   2.175   3.485 -1.3270  1.6062 -1.1880
 9298TIP3   OH249308   2.259   3.012  10.439  0.5594 -0.2012 -0.2267
 9298TIP3    H149309   2.339   3.002  10.387  0.3589 -0.5971 -0.4672
 9298TIP3    H249310   2.207   3.076  10.391 -0.8234 -2.5126 -2.0574
 9299TIP3   OH249311   5.083   5.799   5.960 -0.1369 -0.1794  0.0027
 9299TIP3    H149312   5.011   5.750   6.000  0.6283 -2.7345 -1.5038
 9299TIP3    H249313   5.162   5.756   5.994  0.5948  0.4137 -0.9150
 9300TIP3   OH249314   1.025   3.086   0.646 -0.4330  0.0916 -0.5505
 9300TIP3    H149315   0.971   3.054   0.718 -1.0672  0.3887 -0.8898
 9300TIP3    H249316   1.046   3.007   0.596 -0.7302  0.0015 -0.5377
 9301TIP3   OH249317   4.036   4.334  11.589  0.1723  0.3342 -0.3069
 9301TIP3    H149318   4.111   4.325  11.648  1.1649  1.3381 -1.3553
 9301TIP3    H249319   4.020   4.428  11.585 -1.9273  0.0708  0.8030
 9302TIP3   OH249320   0.784   6.104   3.943 -0.0606 -0.0823 -0.5874
 9302TIP3    H149321   0.840   6.049   3.888  1.1927 -0.6425  1.1823
 9302TIP3    H249322   0.845   6.153   3.998 -1.1939 -2.4793  3.1368
 9303TIP3   OH249323   4.073   4.901  14.787 -0.0054  0.3831 -0.5494
 9303TIP3    H149324   4.130   4.978  14.789 -0.0233  0.3967 -0.5600
 9303TIP3    H249325   4.125   4.832  14.829 -0.2299  0.5632  0.0405
 9304TIP3   OH249326   3.860   3.112   1.898  0.2689 -0.3583  0.8064
 9304TIP3    H149327   3.784   3.053   1.898  0.4119 -0.6391 -1.2736
 9304TIP3    H249328   3.920   3.072   1.835 -0.6266  3.1604 -2.7059
 9305TIP3   OH249329   4.692   5.160   5.618  0.0286  0.1208  0.4003
 9305TIP3    H149330   4.630   5.212   5.670  0.4368 -0.5596  1.6247
 9305TIP3    H249331   4.755   5.127   5.683  1.4856  0.5309 -0.7692
 9306TIP3   OH249332   5.715   5.053   1.840 -0.2365 -0.2294 -0.1856
 9306TIP3    H149333   5.684   5.101   1.917  1.1321  0.1094  0.1842
 9306TIP3    H249334   5.693   4.961   1.858  1.5807 -0.3905  1.4196
 9307TIP3   OH249335   0.685   5.840   5.389  0.2372 -0.4354 -0.3286
 9307TIP3    H149336   0.683   5.793   5.472  0.4169  2.2183  1.3083
 9307TIP3    H249337   0.761   5.898   5.396 -0.7207  1.0656 -1.5921
 9308TIP3   OH249338   1.163   4.589  15.398  0.2467  0.1074 -0.1989
 9308TIP3    H149339   1.108   4.530  15.450  0.9799  0.7244  1.3211
 9308TIP3    H249340   1.105   4.663  15.378  0.3772  0.5819  1.0804
 9309TIP3   OH249341   6.113   3.686  12.241  0.1466 -0.0309  0.9561
 9309TIP3    H149342   6.146   3.674  12.330  0.3941  1.0504  1.0297
 9309TIP3    H249343   6.141   3.775  12.217  0.3554 -0.4133 -0.3119
 9310TIP3   OH249344   4.663   2.790  12.295  0.2000  0.2456 -0.2308
 9310TIP3    H149345   4.708   2.775  12.378  1.7333  0.2156 -1.0355
 9310TIP3    H249346   4.667   2.885  12.282 -2.4872  0.6246  1.0110
 9311TIP3   OH249347   2.285   6.665   3.422  0.8548  0.2364 -0.2641
 9311TIP3    H149348   2.225   6.740   3.422  0.9683  0.3304 -0.5002
 9311TIP3    H249349   2.305   6.652   3.329 -0.1193 -0.8528 -0.3504
 9312TIP3   OH249350   1.058   5.372  12.570 -0.6890 -0.9752  0.5746
 9312TIP3    H149351   1.120   5.444  12.584 -1.2951 -0.3071 -0.0818
 9312TIP3    H249352   1.113   5.295  12.557  0.1197 -0.0038 -2.3304
 9313TIP3   OH249353   2.920   3.179   5.320  0.5622  0.1124  0.1015
 9313TIP3    H149354   2.938   3.180   5.414 -0.2388  0.5377  0.2598
 9313TIP3    H249355   3.004   3.201   5.280  1.2723 -1.4594  0.6406
 9314TIP3   OH249356   5.742   3.570  12.833  0.5097  0.2794 -0.1353
 9314TIP3    H149357   5.756   3.479  12.859  3.0062  0.1664 -1.5438
 9314TIP3    H249358   5.754   3.570  12.738  0.3497  2.0592 -0.1908
 9315TIP3   OH249359   3.142   0.211  11.555 -0.1373 -0.0473  0.5347
 9315TIP3    H149360   3.226   0.189  11.596 -1.1682 -1.1377  2.2015
 9315TIP3    H249361   3.102   0.126  11.535 -0.9199  0.4521 -0.0973
 9316TIP3   OH249362   0.065   6.450  14.845 -0.3106  0.5828  0.4524
 9316TIP3    H149363   0.157   6.466  14.826 -0.3566 -0.6430 -0.9233
 9316TIP3    H249364   0.054   6.480  14.935  1.2490  1.4305  0.3970
 9317TIP3   OH249365   5.104   6.291  12.042  0.9071 -0.1586 -0.4385
 9317TIP3    H149366   5.194   6.263  12.057  0.6999 -0.8298 -0.4109
 9317TIP3    H249367   5.052   6.211  12.051  0.0935  0.5103  1.4130
 9318TIP3   OH249368   6.616   6.192   2.067  0.1150  0.5791  0.9305
 9318TIP3    H149369   6.532   6.151   2.049  0.4626 -0.4746  1.6015
 9318TIP3    H249370   6.626   6.185   2.162  0.8423  0.9392  0.8917
 9319TIP3   OH249371   0.850   0.357   3.450  0.1690  0.0846 -0.0740
 9319TIP3    H149372   0.826   0.446   3.474 -2.0730 -0.7309  1.0135
 9319TIP3    H249373   0.940   0.364   3.418 -0.3345  2.8958 -1.1827
 9320TIP3   OH249374   4.355   5.724   0.757  0.2660  0.0912 -0.0116
 9320TIP3    H149375   4.275   5.745   0.708 -0.0983  0.1946  0.6184
 9320TIP3    H249376   4.342   5.634   0.786 -0.3878  0.6409  1.5204
 9321TIP3   OH249377   1.761   4.364  16.410 -0.2731  0.1742 -0.3084
 9321TIP3    H149378   1.786   4.280  16.449 -0.0339 -0.1561 -1.1616
 9321TIP3    H249379   1.680   4.389  16.456 -0.0666 -0.2585  0.3079
 9322TIP3   OH249380   3.575   0.617   4.950  0.4529  0.0613  0.7581
 9322TIP3    H149381   3.584   0.592   5.042 -1.4401 -2.1961  0.4206
 9322TIP3    H249382   3.595   0.536   4.901 -2.0455  0.1756 -0.6069
 9323TIP3   OH249383   5.455   5.460  15.640  0.0288 -0.7090 -0.2340
 9323TIP3    H149384   5.539   5.422  15.667  0.2458 -0.4015 -0.4650
 9323TIP3    H249385   5.478   5.544  15.601 -0.4127 -0.5099 -0.0742
 9324TIP3   OH249386   3.686   5.063   0.418  0.2881  0.4230 -0.1216
 9324TIP3    H149387   3.594   5.084   0.428 -0.3148 -0.6616 -2.5955
 9324TIP3    H249388   3.688   4.997   0.349  2.7963 -0.7931  0.9650
 9325TIP3   OH249389   3.474   2.775   4.442  0.1283  0.2059  0.3075
 9325TIP3    H149390   3.439   2.734   4.362 -0.0585 -1.3123  1.1252
 9325TIP3    H249391   3.499   2.701   4.497 -0.5715  1.1960  2.0289
 9326TIP3   OH249392   0.967   4.880  13.464 -0.5415 -0.0211 -0.3708
 9326TIP3    H149393   1.008   4.947  13.519 -1.4693 -0.0216  0.3559
 9326TIP3    H249394   0.991   4.797  13.505  0.4990 -0.1510 -1.1959
 9327TIP3   OH249395   5.103   4.970  15.745 -0.0597  0.6810  0.1843
 9327TIP3    H149396   5.097   4.929  15.831  1.2008  2.5572  1.2258
 9327TIP3    H249397   5.013   4.994  15.724 -0.1937  1.7577  1.8070
 9328TIP3   OH249398   4.489   4.977  12.734  0.3945  0.1581 -0.2088
 9328TIP3    H149399   4.499   5.064  12.696 -1.4981  0.8801  0.8158
 9328TIP3    H249400   4.577   4.939  12.731  1.6921  2.7937  0.9345
 9329TIP3   OH249401   1.966   5.677   4.319 -0.5713  0.2656 -0.1132
 9329TIP3    H149402   2.034   5.631   4.269 -0.8921 -0.2897 -0.0459
 9329TIP3    H249403   2.010   5.703   4.400  0.0299  1.4143 -0.7741
 9330TIP3   OH249404   2.974   0.152   5.227 -0.1905  0.1465 -0.1290
 9330TIP3    H149405   2.880   0.167   5.232 -0.0674  0.9356 -0.0644
 9330TIP3    H249406   3.000   0.131   5.317 -0.1274  1.0794  0.0824
 9331TIP3   OH249407   3.621   3.066   6.523  0.5657 -0.2395  0.4278
 9331TIP3    H149408   3.538   3.026   6.497 -0.2718  1.4602  0.3094
 9331TIP3    H249409   3.639   3.030   6.610 -1.2598  0.6842  1.2422
 9332TIP3   OH249410   1.533   3.608  15.737 -0.1428 -0.2070 -0.3351
 9332TIP3    H149411   1.502   3.684  15.785  1.9672 -0.2343  1.2292
 9332TIP3    H249412   1.564   3.643  15.653 -2.0593  0.1308 -0.9497
 9333TIP3   OH249413   1.276   2.815  12.898 -0.1269 -0.1579 -0.1311
 9333TIP3    H149414   1.239   2.795  12.813 -0.7212  0.4868 -0.0343
 9333TIP3    H249415   1.245   2.904  12.918 -2.3009 -1.2563  1.9549
 9334TIP3   OH249416   0.750   2.101   1.390 -0.2501  0.2301  0.3114
 9334TIP3    H149417   0.811   2.134   1.324 -0.7979 -1.0069 -0.8611
 9334TIP3    H249418   0.779   2.011   1.406 -1.5214 -0.2557  0.0032
 9335TIP3   OH249419   2.831   5.483  13.701 -1.1303 -0.5457 -0.0796
 9335TIP3    H149420   2.923   5.458  13.697 -1.6494 -2.5525 -0.7228
 9335TIP3    H249421   2.822   5.556  13.639  0.0094 -0.3330 -0.0048
 9336TIP3   OH249422   3.733   1.014  14.255  0.1005 -0.2773  0.1204
 9336TIP3    H149423   3.737   0.952  14.328 -0.3321  2.1801  2.4194
 9336TIP3    H249424   3.768   1.095  14.292  1.6094  0.6302 -3.0372
 9337TIP3   OH249425   1.516   6.321   3.566 -0.3323  0.1410  0.0421
 9337TIP3    H149426   1.447   6.373   3.525  0.3866 -0.0424 -1.4707
 9337TIP3    H249427   1.596   6.347   3.520  0.2119 -1.5057 -0.0112
 9338TIP3   OH249428   1.384   3.204   5.045  0.1071  0.5419  0.1130
 9338TIP3    H149429   1.400   3.151   5.123 -1.9444 -2.6124 -1.3879
 9338TIP3    H249430   1.317   3.267   5.073  0.8236  0.7750  1.3693
 9339TIP3   OH249431   0.487   1.294   1.305 -0.0804 -0.5030  0.4358
 9339TIP3    H149432   0.404   1.246   1.308  1.4630 -3.4765  0.0240
 9339TIP3    H249433   0.551   1.228   1.278  2.5566  1.4806  1.4119
 9340TIP3   OH249434   3.043   0.144  11.295 -0.4248 -0.2335 -0.4338
 9340TIP3    H149435   3.084   0.189  11.368 -0.1262 -2.0085  0.5368
 9340TIP3    H249436   2.969   0.199  11.271 -1.1187 -0.0814  1.8657
 9341TIP3   OH249437   4.050   0.761   5.130  0.4030  0.5024  0.3601
 9341TIP3    H149438   4.019   0.810   5.054  0.9593  1.3111  0.6506
 9341TIP3    H249439   3.970   0.740   5.178 -0.1440 -1.4058 -1.2280
 9342TIP3   OH249440   0.665   5.691   1.026  0.0711 -0.6001 -0.5553
 9342TIP3    H149441   0.578   5.709   0.992  0.7530 -0.3786 -2.2788
 9342TIP3    H249442   0.651   5.624   1.094 -1.6422  0.9314  0.6949
 9343TIP3   OH249443   6.399   4.541  13.169 -0.1096  0.0622 -0.4068
 9343TIP3    H149444   6.376   4.487  13.244  0.3113  0.0760 -0.2693
 9343TIP3    H249445   6.346   4.505  13.097 -2.3565  1.5470  0.3877
 9344TIP3   OH249446   2.116   6.783  14.105 -0.4698  0.3898 -0.3464
 9344TIP3    H149447   2.175   6.812  14.035 -0.7220  0.8182 -0.3895
 9344TIP3    H249448   2.029   6.814  14.077 -0.4637  1.2389  0.5167
 9345TIP3   OH249449   3.977   0.741  12.433 -0.3746 -0.4111  0.2398
 9345TIP3    H149450   3.963   0.790  12.352  0.7838  0.4582  0.5511
 9345TIP3    H249451   4.064   0.767  12.463 -0.2206 -1.7502  1.0582
 9346TIP3   OH249452   3.094   2.862   2.282 -0.0507  0.0469 -0.5646
 9346TIP3    H149453   3.056   2.849   2.369  1.7638  2.2658  0.6772
 9346TIP3    H249454   3.159   2.793   2.273 -1.2367 -1.0746 -0.8315
 9347TIP3   OH249455   6.430   0.926   5.410  0.5381 -1.0173 -0.3589
 9347TIP3    H149456   6.412   0.941   5.318 -0.8888 -2.0080 -0.2725
 9347TIP3    H249457   6.378   0.992   5.456  2.1099  0.2253 -0.2350
 9348TIP3   OH249458   5.316   0.281   3.004  0.2814 -0.1457  0.6191
 9348TIP3    H149459   5.266   0.352   2.964  0.2460 -0.3764  0.2520
 9348TIP3    H249460   5.296   0.204   2.951 -0.1263 -0.5553  1.3528
 9349TIP3   OH249461   0.983   5.745   4.735 -0.3432  0.4521  0.4585
 9349TIP3    H149462   1.026   5.680   4.790 -0.6145 -0.7899 -0.7544
 9349TIP3    H249463   0.930   5.797   4.796 -0.0291 -0.3778  1.4581
 9350TIP3   OH249464   4.902   5.334  11.779  0.2373  0.1734 -0.3570
 9350TIP3    H149465   4.907   5.248  11.821 -0.2011  0.1126 -0.4264
 9350TIP3    H249466   4.981   5.338  11.724  0.6317  0.1117  0.1972
 9351TIP3   OH249467   0.120   1.437   4.521  0.1266 -0.5255  0.0975
 9351TIP3    H149468   0.202   1.390   4.508  0.0757 -1.1759  1.8634
 9351TIP3    H249469   0.143   1.509   4.580 -0.9301 -2.1288  2.6520
 9352TIP3   OH249470   5.412   4.592   3.793  0.0143 -0.0074 -0.4104
 9352TIP3    H149471   5.381   4.504   3.814  0.2671 -0.1015 -0.4208
 9352TIP3    H249472   5.379   4.608   3.704 -0.7046  0.2277 -0.1073
 9353TIP3   OH249473   2.841   0.968   6.005  0.1502 -0.5319 -0.0681
 9353TIP3    H149474   2.798   1.005   6.082 -0.1159 -2.1784  0.6164
 9353TIP3    H249475   2.930   1.003   6.008 -0.3462  0.7911 -0.0098
 9354TIP3   OH249476   3.869   6.693   5.004 -0.5725  0.1093  0.1054
 9354TIP3    H149477   3.910   6.609   5.022 -0.4028  0.3499  0.8708
 9354TIP3    H249478   3.892   6.748   5.079  1.3374  1.5946 -1.4590
 9355TIP3   OH249479   3.948   3.111   4.368  0.1051 -0.2070  0.4207
 9355TIP3    H149480   3.969   3.069   4.285  0.0107 -0.7036  0.6434
 9355TIP3    H249481   3.866   3.157   4.352 -1.8481 -3.1704  1.1532
 9356TIP3   OH249482   3.185   0.054   3.288  0.3207  0.2704  0.6003
 9356TIP3    H149483   3.169   0.144   3.316 -2.4469  0.5272 -1.4241
 9356TIP3    H249484   3.186   0.058   3.193  0.1503 -1.8360  0.4681
 9357TIP3   OH249485   2.049   2.425  16.902 -0.1888  0.6961  0.1760
 9357TIP3    H149486   2.083   2.429  16.813 -0.6418 -3.5144 -0.3844
 9357TIP3    H249487   2.126   2.438  16.958  0.6171  0.6236 -0.8821
 9358TIP3   OH249488   5.313   1.656   2.420 -0.0941  0.0413 -0.1206
 9358TIP3    H149489   5.360   1.647   2.503 -0.0784 -0.5526 -0.1836
 9358TIP3    H249490   5.381   1.672   2.355  0.1700 -1.8680 -0.3762
 9359TIP3   OH249491   4.184   5.321  12.072  0.4616 -0.2849  0.6202
 9359TIP3    H149492   4.114   5.323  12.007  0.2885  0.6766  0.8279
 9359TIP3    H249493   4.265   5.329  12.021  0.4669 -1.8388  0.3401
 9360TIP3   OH249494   6.096   0.462   1.216  0.1016 -0.5487 -0.1646
 9360TIP3    H149495   6.100   0.540   1.271  0.6919  0.0735 -1.0584
 9360TIP3    H249496   6.024   0.479   1.156  0.3494 -0.5978 -0.4813
 9361TIP3   OH249497   3.167   1.754  15.895  0.2949  0.3055  0.3829
 9361TIP3    H149498   3.076   1.731  15.880 -0.1901  2.3471 -0.1568
 9361TIP3    H249499   3.188   1.815  15.824  2.3860 -0.8253 -0.0551
 9362TIP3   OH249500   1.858   4.518   1.018  0.0093  0.4088  0.4161
 9362TIP3    H149501   1.861   4.568   0.937  0.1290  0.8755  0.7039
 9362TIP3    H249502   1.819   4.434   0.993  0.6656  0.2938 -0.2543
 9363TIP3   OH249503   4.357   2.178  16.114  0.0765 -0.2962 -0.0194
 9363TIP3    H149504   4.365   2.273  16.115  0.3271 -0.3161  0.7327
 9363TIP3    H249505   4.438   2.146  16.154  0.4911 -0.8760 -1.2632
 9364TIP3   OH249506   3.885   1.537  15.574 -0.2476 -0.2052 -0.8425
 9364TIP3    H149507   3.938   1.586  15.511 -3.0466 -0.9009 -4.0233
 9364TIP3    H249508   3.826   1.602  15.612 -0.2576 -0.2012 -0.8653
 9365TIP3   OH249509   1.119   2.377   0.220 -0.3848  0.0021  0.5318
 9365TIP3    H149510   1.149   2.451   0.272 -1.5824  1.5694 -0.8996
 9365TIP3    H249511   1.056   2.415   0.159 -1.8062 -2.3749  0.4117
 9366TIP3   OH249512   2.669   6.227   0.503  0.0401 -0.2296  0.3837
 9366TIP3    H149513   2.717   6.301   0.539 -0.2601 -0.2640  0.8735
 9366TIP3    H249514   2.706   6.214   0.416  1.4619 -0.7613  1.0380
 9367TIP3   OH249515   4.702   4.922   4.533 -0.8729 -0.1915 -0.3749
 9367TIP3    H149516   4.773   4.911   4.597 -0.4841 -2.3939 -1.0902
 9367TIP3    H249517   4.737   4.981   4.467 -0.7788  1.0161  0.7179
 9368TIP3   OH249518   2.071   2.263  15.739 -0.2400  0.2422 -0.2858
 9368TIP3    H149519   2.103   2.251  15.828 -1.7417  2.3789  0.6194
 9368TIP3    H249520   1.987   2.217  15.736 -0.5505  0.8035 -0.3467
 9369TIP3   OH249521   5.500   1.713  12.968 -0.6656 -0.3425 -0.7413
 9369TIP3    H149522   5.443   1.764  13.026 -2.4580 -1.9563 -0.9955
 9369TIP3    H249523   5.581   1.764  12.964 -2.3501  2.5057 -1.0668
 9370TIP3   OH249524   0.184   3.020   1.519 -0.0925 -0.7680  0.0019
 9370TIP3    H149525   0.132   3.061   1.450 -1.4937 -0.6598  1.0556
 9370TIP3    H249526   0.169   2.926   1.508  2.1789 -1.0014 -1.6933
 9371TIP3   OH249527   1.562   2.221  16.463 -0.1347  0.1084  0.2913
 9371TIP3    H149528   1.504   2.177  16.525 -0.2855  0.8419  0.6838
 9371TIP3    H249529   1.605   2.290  16.515 -0.5365  0.9713 -0.4878
 9372TIP3   OH249530   1.025   5.427  11.439 -0.2825 -0.7194 -0.3009
 9372TIP3    H149531   1.108   5.410  11.394 -0.1875  1.6866 -1.1534
 9372TIP3    H249532   1.017   5.354  11.501  2.5030 -0.9896 -0.1117
 9373TIP3   OH249533   4.341   4.674  14.679 -0.2525 -0.2256  0.0280
 9373TIP3    H149534   4.341   4.769  14.671  0.5020 -0.3026 -1.0958
 9373TIP3    H249535   4.298   4.657  14.763 -2.5480  0.9893 -0.8100
 9374TIP3   OH249536   4.419   5.611  15.862 -0.6842 -0.1200  0.1905
 9374TIP3    H149537   4.448   5.522  15.883 -1.5842 -0.1612  1.3393
 9374TIP3    H249538   4.389   5.605  15.772  0.7965 -0.5755 -0.3125
 9375TIP3   OH249539   6.145   6.509  11.845 -0.5394  0.0645 -0.0474
 9375TIP3    H149540   6.238   6.518  11.824  0.4809 -3.5276  2.0481
 9375TIP3    H249541   6.128   6.574  11.913  1.0453 -0.5636  0.9899
 9376TIP3   OH249542   5.878   1.227   1.156 -0.0664  0.0195 -0.0005
 9376TIP3    H149543   5.904   1.148   1.108 -1.2165 -0.5873  0.3604
 9376TIP3    H249544   5.958   1.255   1.200  0.3568 -0.9488 -0.1203
 9377TIP3   OH249545   1.649   1.717   0.673 -0.3124 -0.4258 -0.2721
 9377TIP3    H149546   1.647   1.811   0.654 -1.5766 -0.4222 -0.2031
 9377TIP3    H249547   1.609   1.676   0.597  0.6851 -0.9713 -0.5256
 9378TIP3   OH249548   2.440   4.786   6.100  0.4619 -0.0035 -0.7160
 9378TIP3    H149549   2.387   4.866   6.098  0.4198 -0.0003 -3.4299
 9378TIP3    H249550   2.388   4.723   6.148  0.7475  1.6862  2.0523
 9379TIP3   OH249551   6.667   0.803   4.278  0.5166  0.1459 -0.1753
 9379TIP3    H149552   6.662   0.819   4.184  2.9882  1.0633 -0.2336
 9379TIP3    H249553   6.706   0.716   4.285  2.4346  0.9714 -0.0796
 9380TIP3   OH249554   0.873   4.194  11.293 -0.1119  0.3183 -0.0107
 9380TIP3    H149555   0.784   4.211  11.325  0.3999  0.7615  1.2590
 9380TIP3    H249556   0.915   4.148  11.365  0.6851  0.0993 -0.6094
 9381TIP3   OH249557   5.649   3.766  16.658 -0.3915 -1.2829  0.1548
 9381TIP3    H149558   5.647   3.770  16.562  0.9494  0.5805  0.1378
 9381TIP3    H249559   5.606   3.847  16.686 -1.2605 -2.0738  1.1521
 9382TIP3   OH249560   1.697   0.005   4.726  0.6360 -0.2836 -0.0819
 9382TIP3    H149561   1.654  -0.049   4.792 -0.6918  0.6875 -0.1100
 9382TIP3    H249562   1.790  -0.002   4.746  0.2957 -0.3122  1.6512
 9383TIP3   OH249563   1.633   5.879   2.048 -0.5535  0.3948 -0.3702
 9383TIP3    H149564   1.655   5.903   1.958 -1.3555  0.5492 -0.5320
 9383TIP3    H249565   1.633   5.963   2.096 -0.5659  0.3655 -0.3186
 9384TIP3   OH249566   5.740   4.036  12.704 -0.0074  0.0087 -0.3446
 9384TIP3    H149567   5.736   4.073  12.616 -1.5220 -1.2188 -0.8535
 9384TIP3    H249568   5.786   4.101  12.756  1.2605  0.6027 -2.1206
 9385TIP3   OH249569   3.154   0.857  15.566 -0.5211 -0.7131  0.3546
 9385TIP3    H149570   3.115   0.771  15.579 -0.6094 -0.9378 -1.2460
 9385TIP3    H249571   3.216   0.845  15.494 -0.8058  0.6328 -0.1456
 9386TIP3   OH249572   2.532   0.653  13.341  0.3053  0.3379  1.0329
 9386TIP3    H149573   2.457   0.698  13.381  0.7381  1.9401  0.1354
 9386TIP3    H249574   2.495   0.603  13.269  0.0523  0.8715  0.7882
 9387TIP3   OH249575   5.417   2.900   5.612  0.4503 -0.6059  0.0443
 9387TIP3    H149576   5.414   2.871   5.521  1.8064  0.3959 -0.3506
 9387TIP3    H249577   5.494   2.957   5.617  0.1437 -0.2740  1.7140
 9388TIP3   OH249578   0.938   0.908   5.297 -0.3705 -0.7188 -0.1649
 9388TIP3    H149579   0.878   0.857   5.243  0.9745 -1.9177 -0.5892
 9388TIP3    H249580   1.004   0.942   5.236  0.7169 -1.4092  0.5803
 9389TIP3   OH249581   4.061   4.587  12.326  0.2092  0.5589  0.7645
 9389TIP3    H149582   4.018   4.615  12.246 -1.2129  0.0681  1.3221
 9389TIP3    H249583   4.082   4.668  12.372 -1.9983  0.8282  1.4102
 9390TIP3   OH249584   4.598   5.332  12.256  0.6143  0.4745  0.1755
 9390TIP3    H149585   4.543   5.270  12.303  1.3689  1.7862  3.0100
 9390TIP3    H249586   4.645   5.380  12.324  2.3404  2.0923 -1.9728
 9391TIP3   OH249587   2.755   4.286   2.485 -0.2524 -0.6275 -0.3301
 9391TIP3    H149588   2.804   4.243   2.554 -3.6855 -1.5710  1.7939
 9391TIP3    H249589   2.720   4.365   2.525  0.0921  0.4073 -1.9677
 9392TIP3   OH249590   0.651   4.181   3.741  0.0587  0.0177 -0.2699
 9392TIP3    H149591   0.653   4.264   3.693 -0.3273  0.9743  1.3030
 9392TIP3    H249592   0.678   4.204   3.830  0.7403 -1.7022  0.0105
 9393TIP3   OH249593   4.160   0.845   2.062 -0.1717  0.5171  0.3272
 9393TIP3    H149594   4.175   0.780   2.130 -0.4335 -0.7516 -0.7803
 9393TIP3    H249595   4.245   0.858   2.021 -0.8059 -2.4644 -2.2801
 9394TIP3   OH249596   2.874   3.036   3.062  0.4581 -0.2180  0.1642
 9394TIP3    H149597   2.862   3.131   3.052  1.6300 -0.2073 -1.3835
 9394TIP3    H249598   2.787   2.999   3.046  0.0269  0.5609  0.6166
 9395TIP3   OH249599   0.354   0.277  11.868 -0.4774 -0.0369  0.3921
 9395TIP3    H149600   0.416   0.282  11.940 -0.1064  2.0248  0.0060
 9395TIP3    H249601   0.347   0.367  11.836 -0.3410 -0.9132 -2.3888
 9396TIP3   OH249602   5.735   4.303  16.720 -0.2632  0.1732 -0.0270
 9396TIP3    H149603   5.745   4.302  16.625 -3.0260 -0.2691 -0.3880
 9396TIP3    H249604   5.772   4.220  16.750  1.0221  0.5091 -0.6237
 9397TIP3   OH249605   5.108   6.309  16.775 -0.6007 -0.0417 -0.5379
 9397TIP3    H149606   5.140   6.219  16.778  0.2346  0.2616  0.6987
 9397TIP3    H249607   5.153   6.348  16.701 -0.0825 -0.3298 -0.3779
 9398TIP3   OH249608   5.062   5.710  15.727 -0.1948  0.0482  0.4598
 9398TIP3    H149609   5.056   5.616  15.709  1.2589 -0.2643  1.4175
 9398TIP3    H249610   5.129   5.742  15.666 -0.4234  0.3978  0.3871
 9399TIP3   OH249611   0.179   3.513  11.479 -0.1756 -0.2235 -0.0529
 9399TIP3    H149612   0.120   3.439  11.467 -0.6469  0.0760  0.3627
 9399TIP3    H249613   0.219   3.498  11.565 -1.4126  0.7613  0.7371
 9400TIP3   OH249614   0.213   5.524  17.003  0.2780 -0.1013  0.6983
 9400TIP3    H149615   0.123   5.517  17.036  0.5397  2.4550  2.2845
 9400TIP3    H249616   0.264   5.466  17.060  0.2143  1.8045  2.8515
 9401TIP3   OH249617   4.289   2.974   5.376 -0.1969 -0.0585 -0.1376
 9401TIP3    H149618   4.210   3.025   5.358 -0.4913  0.1931  1.6818
 9401TIP3    H249619   4.340   3.029   5.435  1.7017  0.0705 -1.7652
 9402TIP3   OH249620   2.816   6.422  14.097 -0.1202 -0.5694 -0.8707
 9402TIP3    H149621   2.723   6.445  14.109 -0.6080 -1.7523 -2.0400
 9402TIP3    H249622   2.853   6.498  14.051 -0.2984  0.2526  0.3032
 9403TIP3   OH249623   5.543   3.816  13.632 -0.2498  0.0514  0.1385
 9403TIP3    H149624   5.552   3.773  13.547 -1.4775 -0.4796  0.2501
 9403TIP3    H249625   5.560   3.747  13.696  1.1167  0.5515  0.3568
 9404TIP3   OH249626   1.524   4.945   4.058  0.2481 -0.2722 -0.2052
 9404TIP3    H149627   1.559   4.898   4.134 -0.3203  0.0057  0.2364
 9404TIP3    H249628   1.597   4.999   4.028  0.3701 -0.1141  0.3665
 9405TIP3   OH249629   1.216   3.838  13.515 -0.6633  0.4194 -0.0990
 9405TIP3    H149630   1.246   3.927  13.534 -0.5971  0.4101 -0.1622
 9405TIP3    H249631   1.294   3.784  13.524 -0.6479  0.4041 -0.3297
 9406TIP3   OH249632   0.888   1.183   2.672 -0.3722 -0.4126  0.5474
 9406TIP3    H149633   0.804   1.152   2.704 -0.4591 -1.1649 -0.3961
 9406TIP3    H249634   0.867   1.257   2.615 -0.5559 -1.6261 -1.0211
 9407TIP3   OH249635   4.894   4.894   3.903  0.2155 -0.6869  0.2275
 9407TIP3    H149636   4.879   4.904   3.809  1.5355 -0.7964 -0.0262
 9407TIP3    H249637   4.849   4.813   3.926  1.8048 -1.9377 -0.8350
 9408TIP3   OH249638   5.834   4.722  16.416  0.0432 -0.3674  0.1145
 9408TIP3    H149639   5.784   4.644  16.440  0.0509 -0.6252 -0.6830
 9408TIP3    H249640   5.842   4.717  16.321 -1.2103  1.3677 -0.1195
 9409TIP3   OH249641   3.787   5.281  15.370 -0.3128 -0.2149 -0.1118
 9409TIP3    H149642   3.821   5.370  15.361 -0.2035 -0.1950  0.4494
 9409TIP3    H249643   3.713   5.290  15.430 -0.5553 -0.4404 -0.3758
 9410TIP3   OH249644   0.467   2.476   0.435 -0.2692 -0.4232  0.6936
 9410TIP3    H149645   0.556   2.452   0.461 -0.1191  0.5315  1.1178
 9410TIP3    H249646   0.477   2.514   0.348 -0.5444 -2.0770 -0.0991
 9411TIP3   OH249647   0.407   4.635  16.906  0.0726  0.1306  0.2809
 9411TIP3    H149648   0.453   4.642  16.822 -0.3142  3.1967  0.2048
 9411TIP3    H249649   0.367   4.721  16.918  0.9634  0.1841  4.1098
 9412TIP3   OH249650   2.900   0.881  12.663 -0.4026 -0.0983  0.4304
 9412TIP3    H149651   2.954   0.827  12.604  0.4487 -0.8365  1.8393
 9412TIP3    H249652   2.879   0.823  12.736 -0.0377  1.2754  1.6656
 9413TIP3   OH249653   6.290   6.284  14.170  0.6342 -0.0901 -0.3415
 9413TIP3    H149654   6.206   6.264  14.129  0.5887 -0.2590 -0.1667
 9413TIP3    H249655   6.355   6.247  14.111  0.5831 -0.0231 -0.4399
 9414TIP3   OH249656   1.703   6.742   5.834  0.1906 -0.4582  0.8754
 9414TIP3    H149657   1.665   6.706   5.753  4.1683 -2.0501 -0.5239
 9414TIP3    H249658   1.669   6.687   5.904 -1.6876 -0.3918  0.0705
 9415TIP3   OH249659   4.179   1.388   5.368  0.0654 -0.3640  0.1616
 9415TIP3    H149660   4.181   1.350   5.280 -0.3944 -1.0914  0.4562
 9415TIP3    H249661   4.182   1.483   5.353 -1.0827 -0.4320 -0.7026
 9416TIP3   OH249662   6.279   3.906   1.888 -0.4351 -0.4386  0.0920
 9416TIP3    H149663   6.306   3.815   1.904 -0.0921 -0.3972 -0.2419
 9416TIP3    H249664   6.272   3.912   1.793 -0.0222  0.0089  0.0901
 9417TIP3   OH249665   5.698   1.963  16.395 -0.2152  0.7949  0.6942
 9417TIP3    H149666   5.654   1.938  16.314  2.5409  0.8413 -0.9592
 9417TIP3    H249667   5.703   1.882  16.445 -0.1939  0.2793 -0.1204
 9418TIP3   OH249668   6.456   4.211   2.596 -0.5405 -0.1361  0.6562
 9418TIP3    H149669   6.368   4.247   2.584  0.9190  3.5103 -0.5149
 9418TIP3    H249670   6.457   4.133   2.542 -2.1251  1.5754 -2.1000
 9419TIP3   OH249671   4.345   4.316   2.121  0.6222  0.3005 -0.0089
 9419TIP3    H149672   4.311   4.380   2.059 -0.7249  1.9648  2.3119
 9419TIP3    H249673   4.271   4.257   2.137  1.2699 -0.7381 -0.6639
 9420TIP3   OH249674   0.334   1.462   0.740  0.1676 -0.2924 -0.4578
 9420TIP3    H149675   0.342   1.376   0.781  0.7431 -0.0983 -0.1547
 9420TIP3    H249676   0.364   1.523   0.807 -0.6508  0.1913 -0.5144
 9421TIP3   OH249677   4.988   6.103   4.927  0.7882 -0.0284 -0.1740
 9421TIP3    H149678   5.042   6.157   4.984  1.1513 -0.4619 -0.0945
 9421TIP3    H249679   5.047   6.079   4.855  0.7007 -0.5088 -0.0862
 9422TIP3   OH249680   4.568   5.632   0.081 -0.0776 -0.0683  0.3710
 9422TIP3    H149681   4.490   5.578   0.091  0.8202 -1.3585  0.6219
 9422TIP3    H249682   4.618   5.617   0.162  0.1542  1.2182  0.4880
 9423TIP3   OH249683   4.327   2.100  13.969 -0.1021  0.4700 -0.7426
 9423TIP3    H149684   4.341   2.064  14.057 -0.9349 -0.5505 -1.0010
 9423TIP3    H249685   4.325   2.194  13.982  1.1519  0.4023  0.1191
 9424TIP3   OH249686   2.324   2.595  12.670  0.5153 -1.0445  0.0685
 9424TIP3    H149687   2.352   2.548  12.749 -0.6986 -1.5798  0.2022
 9424TIP3    H249688   2.373   2.677  12.673  0.8983 -1.2877  1.0923
 9425TIP3   OH249689   3.342   0.077  13.578 -0.4041  0.3110 -0.4298
 9425TIP3    H149690   3.300   0.079  13.664 -0.2670  2.2063 -0.3621
 9425TIP3    H249691   3.401   0.002  13.581 -0.2978  0.4381  1.1824
 9426TIP3   OH249692   2.518   4.375   4.363 -0.3372 -0.2736  0.3658
 9426TIP3    H149693   2.483   4.293   4.397  3.4890 -1.9829  0.6953
 9426TIP3    H249694   2.586   4.349   4.302  0.4365  2.7180 -0.2288
 9427TIP3   OH249695   2.515   6.667  11.745  0.0668 -0.1159 -0.2743
 9427TIP3    H149696   2.505   6.583  11.790  0.8670  0.0595  0.2764
 9427TIP3    H249697   2.482   6.652  11.657  0.9081 -1.2473 -0.4287
 9428TIP3   OH249698   0.497   5.660   1.438  0.5839 -0.1308  0.1028
 9428TIP3    H149699   0.453   5.614   1.510  1.3518 -0.8331  0.1419
 9428TIP3    H249700   0.585   5.678   1.472 -0.3277  3.4334  0.9567
 9429TIP3   OH249701   4.216   2.936   2.661 -0.0935 -0.4960 -0.0465
 9429TIP3    H149702   4.256   2.945   2.748 -0.0116 -0.7485 -0.0560
 9429TIP3    H249703   4.128   2.971   2.672  0.7493  1.9235 -0.5267
 9430TIP3   OH249704   2.178   1.720  17.027  0.1083 -0.1448 -0.4513
 9430TIP3    H149705   2.185   1.755  16.938 -1.4055  1.3682 -0.0154
 9430TIP3    H249706   2.269   1.718  17.059  0.5269  0.5530 -1.5380
 9431TIP3   OH249707   0.062   4.595  12.085  0.0149 -0.6825 -0.2285
 9431TIP3    H149708   0.091   4.646  12.010 -0.2218 -0.3184 -0.0709
 9431TIP3    H249709   0.084   4.504  12.062 -0.5301 -0.6346 -0.9647
 9432TIP3   OH249710   0.067   4.940   4.786  0.0389 -0.4272 -0.2874
 9432TIP3    H149711   0.154   4.901   4.785  0.9789  1.5258 -1.9263
 9432TIP3    H249712   0.055   4.972   4.875  1.1398 -0.4202 -0.1325
 9433TIP3   OH249713   1.656   1.580   2.171  0.2763  0.3196 -0.2428
 9433TIP3    H149714   1.696   1.615   2.251 -0.5083  0.5329  0.0696
 9433TIP3    H249715   1.691   1.492   2.163  0.6695  0.4410  0.1217
 9434TIP3   OH249716   5.987   1.505  15.901 -0.2734 -0.1400 -0.1966
 9434TIP3    H149717   5.935   1.512  15.821  1.1385  2.4491 -0.9947
 9434TIP3    H249718   6.070   1.549  15.880 -0.1660  1.3931  2.8715
 9435TIP3   OH249719   5.223   1.418  11.689  0.0563 -0.0760  0.2254
 9435TIP3    H149720   5.229   1.425  11.784 -1.2239  0.5259  0.2780
 9435TIP3    H249721   5.134   1.388  11.673  0.2318 -0.0787 -0.7890
 9436TIP3   OH249722   1.217   1.504  14.612  0.3435  0.3557  0.4947
 9436TIP3    H149723   1.159   1.428  14.611  0.9670 -0.1605  1.4358
 9436TIP3    H249724   1.163   1.577  14.582  0.5401 -0.9449 -3.6199
 9437TIP3   OH249725   2.620   2.498   0.074  0.2365 -0.0189 -0.1328
 9437TIP3    H149726   2.587   2.587   0.057  2.4907  0.7445 -0.9343
 9437TIP3    H249727   2.681   2.481   0.003  1.9406 -1.0965  1.4934
 9438TIP3   OH249728   2.106   1.576   0.394 -0.3807 -0.3745  0.1562
 9438TIP3    H149729   2.173   1.508   0.392  0.0155 -0.0097 -2.8118
 9438TIP3    H249730   2.152   1.656   0.368 -1.5236  0.3727  0.3420
 9439TIP3   OH249731   3.747   5.976  10.995 -0.2800  0.0041  0.1690
 9439TIP3    H149732   3.753   5.911  10.925  1.2760 -0.1722  0.4334
 9439TIP3    H249733   3.825   6.030  10.985  0.4367 -0.5406  2.2520
 9440TIP3   OH249734   2.374   6.345   4.326  0.0520 -0.3892  0.4295
 9440TIP3    H149735   2.382   6.251   4.343  0.8558 -0.0662  2.0382
 9440TIP3    H249736   2.459   6.381   4.349 -0.7143  0.9271  1.3549
 9441TIP3   OH249737   1.570   3.087   0.221  0.0218  0.3220  0.0762
 9441TIP3    H149738   1.657   3.058   0.193 -0.3271  0.2905 -1.0297
 9441TIP3    H249739   1.561   3.053   0.310  1.7730  1.7156  0.8346
 9442TIP3   OH249740   5.577   0.738   5.427  0.1210 -0.5444 -0.3078
 9442TIP3    H149741   5.658   0.761   5.383 -0.3426 -1.3103 -1.6075
 9442TIP3    H249742   5.520   0.704   5.358 -1.3380  0.0375  0.5624
 9443TIP3   OH249743   4.678   6.122   3.942  0.5645  0.1543  0.3040
 9443TIP3    H149744   4.734   6.154   4.013 -0.0277 -1.0007  1.3333
 9443TIP3    H249745   4.729   6.052   3.901 -0.5566 -1.9065  2.1592
 9444TIP3   OH249746   6.813   5.830   2.265 -0.2375  0.2165  0.4593
 9444TIP3    H149747   6.875   5.869   2.204 -1.0512  0.4797 -0.2122
 9444TIP3    H249748   6.730   5.829   2.218 -1.1979  1.6746  2.0252
 9445TIP3   OH249749   3.724   0.056   4.806 -0.4520 -0.0633  0.2841
 9445TIP3    H149750   3.780   0.078   4.731 -1.8525  1.7427 -0.3146
 9445TIP3    H249751   3.777  -0.003   4.859  1.8772  1.2480 -0.4278
 9446TIP3   OH249752   5.765   2.266   2.675 -0.0897  0.3006 -0.4323
 9446TIP3    H149753   5.671   2.285   2.668 -0.4331 -0.8836  0.6389
 9446TIP3    H249754   5.778   2.244   2.767  0.9929 -0.8837 -0.8486
 9447TIP3   OH249755   1.943   2.455  16.532 -0.0159  0.6295 -0.3018
 9447TIP3    H149756   1.955   2.548  16.553 -1.4141  0.6276  0.6986
 9447TIP3    H249757   2.004   2.438  16.461  1.3053  1.9556  0.4489
 9448TIP3   OH249758   3.387   2.914  12.360  0.0378  0.1026 -0.1581
 9448TIP3    H149759   3.304   2.871  12.380  0.7182 -1.3538 -0.2896
 9448TIP3    H249760   3.431   2.923  12.444 -0.2264  0.8255 -0.0949
 9449TIP3   OH249761   5.427   4.898   1.611 -0.4860  0.3192  0.5788
 9449TIP3    H149762   5.388   4.842   1.543 -1.7688  0.3757  1.2197
 9449TIP3    H249763   5.450   4.837   1.682 -0.3560  0.4101  0.6151
 9450TIP3   OH249764   3.275   6.080   5.501 -0.2912  0.2107 -0.1416
 9450TIP3    H149765   3.246   6.154   5.554  0.5815 -0.1297  0.8525
 9450TIP3    H249766   3.363   6.104   5.472 -0.7545  0.3933 -1.4772
 9451TIP3   OH249767   4.320   5.229   0.453  0.2762 -0.3317 -0.2242
 9451TIP3    H149768   4.377   5.161   0.490  0.7178  0.7764  1.2299
 9451TIP3    H249769   4.374   5.308   0.452 -0.6853  0.3433 -0.5181
 9452TIP3   OH249770   5.201   2.941  11.869 -0.1831  0.4261  0.2928
 9452TIP3    H149771   5.251   2.860  11.875 -0.2574  0.4439  1.6613
 9452TIP3    H249772   5.189   2.956  11.776 -0.6061 -1.3995  0.0258
 9453TIP3   OH249773   3.219   3.036  16.894  0.2594 -0.6851  0.5483
 9453TIP3    H149774   3.178   3.054  16.810  3.4402  2.5673 -0.5753
 9453TIP3    H249775   3.149   3.048  16.958 -1.3133  1.3112 -1.3906
 9454TIP3   OH249776   4.136   4.726  16.935  0.4737  0.2437  0.4198
 9454TIP3    H149777   4.199   4.665  16.896  0.3570  0.1315  0.4079
 9454TIP3    H249778   4.080   4.751  16.862 -0.3989 -0.7725  0.7223
 9455TIP3   OH249779   4.772   3.294  11.980  0.1889  0.7880 -0.3042
 9455TIP3    H149780   4.810   3.355  11.916  0.1997  1.6554  0.5094
 9455TIP3    H249781   4.682   3.323  11.990 -0.1335 -0.0300 -0.7296
 9456TIP3   OH249782   4.890   1.206  12.149 -0.4101  0.1353  0.4704
 9456TIP3    H149783   4.968   1.186  12.098  0.4848  0.6319  1.6132
 9456TIP3    H249784   4.890   1.143  12.220 -0.1805  1.1203  1.3697
 9457TIP3   OH249785   2.676   3.819   1.235  0.4071  0.2010 -0.0416
 9457TIP3    H149786   2.700   3.747   1.177 -1.6023 -0.1082 -0.5771
 9457TIP3    H249787   2.609   3.782   1.293 -0.6451  1.5935 -0.3085
 9458TIP3   OH249788   1.026   2.295  16.466 -0.1443 -0.2655  0.5277
 9458TIP3    H149789   1.079   2.227  16.426  1.6877  0.5086  1.4821
 9458TIP3    H249790   1.026   2.367  16.402 -0.8751 -0.6216  0.1209
 9459TIP3   OH249791   2.433   3.332  15.925 -0.3020 -0.2323 -0.0938
 9459TIP3    H149792   2.351   3.321  15.974 -0.1246  0.6345  0.4223
 9459TIP3    H249793   2.422   3.415  15.879 -0.2188 -0.7487 -1.0555
 9460TIP3   OH249794   0.016   0.217  14.818  0.2304  0.3601 -0.8839
 9460TIP3    H149795  -0.060   0.268  14.845 -0.2072 -0.8478  0.3006
 9460TIP3    H249796   0.083   0.282  14.797  1.2697  1.7097  4.8353
 9461TIP3   OH249797   2.170   1.678   0.945  0.2267 -0.2553 -0.2100
 9461TIP3    H149798   2.086   1.707   0.911  0.4071 -0.5028 -0.8840
 9461TIP3    H249799   2.191   1.741   1.014  0.0122  0.4716 -0.7937
 9462TIP3   OH249800   6.399   5.314  16.978  0.4097 -0.4819 -0.1786
 9462TIP3    H149801   6.472   5.264  17.013  0.5872  0.1341  0.3352
 9462TIP3    H249802   6.439   5.374  16.915  0.7157  1.5671  1.8506
 9463TIP3   OH249803   6.063   0.451   0.746  0.1758  0.0715 -0.1907
 9463TIP3    H149804   6.016   0.492   0.819 -2.3947 -1.1535 -1.0303
 9463TIP3    H249805   6.128   0.395   0.788  1.6024  2.5031  1.0230
 9464TIP3   OH249806   6.681   1.248  10.818 -0.2048 -0.1527  0.2634
 9464TIP3    H149807   6.651   1.194  10.745 -0.5736  0.3941  0.0061
 9464TIP3    H249808   6.674   1.190  10.895 -2.0343 -0.0404  0.2374
 9465TIP3   OH249809   5.370   3.191  13.483 -0.2400  0.5231 -0.5595
 9465TIP3    H149810   5.447   3.137  13.501  0.2412  1.5056  0.5088
 9465TIP3    H249811   5.378   3.214  13.391  0.1864 -0.2310 -0.7215
 9466TIP3   OH249812   1.925   3.376  11.935  0.3583  0.4466 -0.2326
 9466TIP3    H149813   1.986   3.450  11.930  0.7600  0.0590 -1.7549
 9466TIP3    H249814   1.847   3.406  11.888  1.4195 -0.8345 -3.0674
 9467TIP3   OH249815   5.048   4.854   2.198 -0.2691  0.1031  0.3596
 9467TIP3    H149816   4.975   4.894   2.246 -0.3102 -0.0245  0.4036
 9467TIP3    H249817   5.123   4.865   2.256  0.0948  1.6520 -0.3443
 9468TIP3   OH249818   3.684   6.392   3.716  0.0656  0.1693 -0.1629
 9468TIP3    H149819   3.638   6.311   3.739 -0.9503  0.5258 -0.8483
 9468TIP3    H249820   3.625   6.461   3.745  0.5129  0.6502 -0.3965
 9469TIP3   OH249821   3.340   6.754  15.695 -0.2399 -0.0498  0.0843
 9469TIP3    H149822   3.328   6.688  15.764  1.7236 -0.4908  0.0591
 9469TIP3    H249823   3.434   6.754  15.678 -0.3567  1.9232 -0.7835
 9470TIP3   OH249824   5.076   0.244   0.598 -0.0175 -0.2946  0.7793
 9470TIP3    H149825   5.017   0.201   0.661  0.7221 -2.2389  0.2324
 9470TIP3    H249826   5.020   0.301   0.547 -0.9537 -0.0960  1.9780
 9471TIP3   OH249827   5.671   0.336   2.403  0.1121 -0.0185 -0.2841
 9471TIP3    H149828   5.616   0.395   2.351 -2.5222 -0.7264  1.4696
 9471TIP3    H249829   5.760   0.367   2.389 -0.9250  2.8266 -1.3408
 9472TIP3   OH249830   4.099   3.894  16.234 -0.4084  0.9021 -0.0235
 9472TIP3    H149831   4.140   3.838  16.300 -1.6973 -0.8167 -0.5965
 9472TIP3    H249832   4.070   3.971  16.284  2.0657  1.4977  0.6466
 9473TIP3   OH249833   5.775   6.337   4.816  0.3789 -0.5886 -0.6251
 9473TIP3    H149834   5.737   6.363   4.732 -0.3157  0.1153 -0.1100
 9473TIP3    H249835   5.854   6.390   4.824  0.4851 -0.7089 -0.8674
 9474TIP3   OH249836   0.993   3.325   2.789 -0.6992  0.2971  0.3396
 9474TIP3    H149837   1.011   3.414   2.819  0.5729  0.1692  0.0012
 9474TIP3    H249838   0.905   3.306   2.822 -0.7283  1.4367  0.9662
 9475TIP3   OH249839   5.164   0.970  14.373  0.1611  0.4599  0.1784
 9475TIP3    H149840   5.255   0.999  14.369  0.5009 -0.5756  0.1193
 9475TIP3    H249841   5.168   0.875  14.362 -0.5467 -0.1943  4.1196
 9476TIP3   OH249842   4.398   5.651  11.865 -0.0303  0.2549 -0.3226
 9476TIP3    H149843   4.484   5.649  11.822 -0.0995 -1.5133 -0.4143
 9476TIP3    H249844   4.336   5.629  11.796 -0.4689  0.5389 -0.0213
 9477TIP3   OH249845   6.758   1.420  11.292 -0.2090 -0.2050  0.2861
 9477TIP3    H149846   6.812   1.414  11.213 -0.2723  1.8979  0.0366
 9477TIP3    H249847   6.779   1.341  11.341  1.5923 -0.4192 -0.7456
 9478TIP3   OH249848   4.634   0.932   1.731  0.0505 -0.2155 -0.1979
 9478TIP3    H149849   4.675   0.855   1.691  2.9168  0.0978  1.8708
 9478TIP3    H249850   4.699   1.001   1.724 -1.2441  1.1741  0.7753
 9479TIP3   OH249851   3.660   4.816   6.374  0.6142  0.2004  0.2201
 9479TIP3    H149852   3.590   4.821   6.439  0.1340 -0.3934 -0.2421
 9479TIP3    H249853   3.670   4.906   6.343 -1.2497  0.0307 -1.0467
 9480TIP3   OH249854   5.041   0.232  11.116 -0.4761  0.0980  0.4446
 9480TIP3    H149855   5.055   0.139  11.134  0.0762 -0.0665 -0.6922
 9480TIP3    H249856   4.993   0.233  11.032 -0.2129  0.8364  0.2944
 9481TIP3   OH249857   1.588   2.140   3.704  0.1989  0.2621 -0.4302
 9481TIP3    H149858   1.589   2.199   3.629  0.9081 -0.5096 -1.0407
 9481TIP3    H249859   1.524   2.073   3.681  1.6298 -0.9140 -1.1030
 9482TIP3   OH249860   5.249   5.261  14.356 -0.0797  0.3010 -0.4305
 9482TIP3    H149861   5.196   5.304  14.289 -1.5635  0.9465  1.0950
 9482TIP3    H249862   5.186   5.214  14.410  1.1853 -1.0085 -0.0251
 9483TIP3   OH249863   0.604   6.214   3.269 -0.1697  0.1960 -0.3029
 9483TIP3    H149864   0.581   6.151   3.200 -2.5270 -0.7065  1.1689
 9483TIP3    H249865   0.684   6.178   3.308  0.6016  0.1563 -1.8371
 9484TIP3   OH249866   4.111   3.493  11.834  0.5419 -0.0104  0.3672
 9484TIP3    H149867   4.058   3.427  11.787 -1.9285  1.3578  1.0377
 9484TIP3    H249868   4.172   3.525  11.769 -1.4722  0.4297 -1.4286
 9485TIP3   OH249869   1.187   5.673  15.402  0.2268 -0.3828  0.3727
 9485TIP3    H149870   1.216   5.640  15.317  0.0392 -2.1652  0.9536
 9485TIP3    H249871   1.220   5.762  15.407  1.9260 -0.9211 -0.7440
 9486TIP3   OH249872   6.787   6.554   2.394  0.4017 -0.5729 -0.4795
 9486TIP3    H149873   6.744   6.614   2.455  2.0044 -0.0174  0.1613
 9486TIP3    H249874   6.768   6.467   2.428 -0.6344 -0.3652 -0.5103
 9487TIP3   OH249875   3.578   2.165   5.527 -0.3226 -0.1970  0.1544
 9487TIP3    H149876   3.555   2.094   5.588  1.9999 -0.1889  1.1313
 9487TIP3    H249877   3.513   2.158   5.457 -1.3274 -2.0526  1.1925
 9488TIP3   OH249878   6.722   4.676  14.371 -0.0859  0.2862 -0.0283
 9488TIP3    H149879   6.798   4.735  14.369  0.6260 -0.6177 -1.6232
 9488TIP3    H249880   6.727   4.627  14.289 -2.3977  0.1797 -0.1938
 9489TIP3   OH249881   2.708   4.796  13.501 -0.2295  0.3547  0.0013
 9489TIP3    H149882   2.680   4.764  13.587 -3.8148  1.3025 -0.6607
 9489TIP3    H249883   2.654   4.747  13.438 -0.1098  2.0462 -1.4872
 9490TIP3   OH249884   4.400   5.142   6.423 -0.0190 -0.6138  0.4270
 9490TIP3    H149885   4.462   5.160   6.494  0.3292 -1.7400  0.4280
 9490TIP3    H249886   4.370   5.229   6.395  1.4034 -0.0469  0.5705
 9491TIP3   OH249887   2.653   6.101   1.181  0.1094  0.7431  0.0698
 9491TIP3    H149888   2.703   6.159   1.123  0.5365 -0.1976 -0.5377
 9491TIP3    H249889   2.695   6.016   1.171 -1.0410  0.1334  0.2890
 9492TIP3   OH249890   5.221   3.178   1.780  0.0628  0.3752 -0.0888
 9492TIP3    H149891   5.221   3.200   1.687 -0.4866  1.0090  0.0551
 9492TIP3    H249892   5.183   3.255   1.823  1.7004  0.7465  0.8065
 9493TIP3   OH249893   5.243   2.293   3.701  0.0448  0.2871 -0.4551
 9493TIP3    H149894   5.330   2.256   3.714 -0.4066 -0.7666 -0.4094
 9493TIP3    H249895   5.257   2.364   3.638  1.5069  2.5109  2.1497
 9494TIP3   OH249896   6.427   4.125  15.217  0.6279 -0.0278 -0.0788
 9494TIP3    H149897   6.457   4.135  15.307 -1.8992  2.4321  0.6291
 9494TIP3    H249898   6.476   4.192  15.168  0.0173  0.5316  0.0607
 9495TIP3   OH249899   4.271   6.713  12.367 -0.0743 -0.2344  0.2588
 9495TIP3    H149900   4.300   6.803  12.356 -0.0145 -0.2735  0.0993
 9495TIP3    H249901   4.193   6.705  12.313 -0.0474 -0.2949  0.2289
 9496TIP3   OH249902   2.151   2.343   1.442  0.9710  0.7797  0.4520
 9496TIP3    H149903   2.227   2.298   1.478  0.9155  0.5227  0.2533
 9496TIP3    H249904   2.102   2.274   1.397  0.7132  0.9776  0.4285
 9497TIP3   OH249905   2.345   6.439  13.334  0.1453 -0.0545  0.2609
 9497TIP3    H149906   2.284   6.443  13.260  0.4937  1.2431  0.0127
 9497TIP3    H249907   2.318   6.362  13.383 -0.8044 -0.3051 -0.6078
 9498TIP3   OH249908   4.918   4.249   3.285 -0.2206 -0.0943  0.3703
 9498TIP3    H149909   4.830   4.286   3.290 -0.5949 -0.9647  0.3780
 9498TIP3    H249910   4.967   4.312   3.231 -0.8585  0.3700  0.3209
 9499TIP3   OH249911   3.301   3.222   2.946  0.7558  0.0733  0.4020
 9499TIP3    H149912   3.252   3.267   3.015 -0.0101 -0.1438  0.0119
 9499TIP3    H249913   3.318   3.135   2.981  0.5277  0.0230  0.3864
 9500TIP3   OH249914   1.849   6.038  16.055  0.2997 -0.2184  0.1192
 9500TIP3    H149915   1.849   5.984  16.134 -0.3290 -0.6099 -0.1375
 9500TIP3    H249916   1.855   5.975  15.983 -1.6554 -0.0812 -0.2386
 9501TIP3   OH249917   5.330   0.371   2.574  0.1727 -0.0966 -0.7464
 9501TIP3    H149918   5.246   0.390   2.532  0.0583  2.9286  0.5770
 9501TIP3    H249919   5.391   0.435   2.537  1.0975 -0.1463  0.6061
 9502TIP3   OH249920   5.682   1.539  13.782  0.4145  0.1699  0.0444
 9502TIP3    H149921   5.734   1.618  13.796 -0.1674  0.2787  1.9971
 9502TIP3    H249922   5.633   1.528  13.864  1.1554 -2.7173  0.2354
 9503TIP3   OH249923   6.668   6.735   2.546 -0.3340  0.3740 -0.0961
 9503TIP3    H149924   6.663   6.824   2.511  0.8304  0.2671 -0.5996
 9503TIP3    H249925   6.659   6.746   2.640 -1.8092  0.8478 -0.2663
 9504TIP3   OH249926   5.243   6.651  11.184 -0.4181 -0.6633 -0.3577
 9504TIP3    H149927   5.267   6.561  11.204 -0.7394 -0.6839 -0.0376
 9504TIP3    H249928   5.204   6.684  11.265 -0.5889 -0.3384 -0.5674
 9505TIP3   OH249929   1.471   2.866   3.886  0.0078  0.3342 -0.6567
 9505TIP3    H149930   1.486   2.792   3.827 -1.8691 -0.9574  0.3844
 9505TIP3    H249931   1.551   2.872   3.938  0.3847 -0.6247 -1.1070
 9506TIP3   OH249932   4.184   0.339  14.376  0.4765 -0.2302 -0.3281
 9506TIP3    H149933   4.154   0.338  14.467  0.1794  2.9839 -0.2541
 9506TIP3    H249934   4.271   0.379  14.381  1.0530 -1.2995 -1.3819
 9507TIP3   OH249935   6.373   4.692  12.315  0.3063 -0.5313  0.8881
 9507TIP3    H149936   6.393   4.677  12.222 -0.9764 -0.3368  0.5557
 9507TIP3    H249937   6.279   4.672  12.322  0.1050  0.6906  1.8802
 9508TIP3   OH249938   2.039   0.442   4.580  0.4161 -0.1453  0.1127
 9508TIP3    H149939   1.959   0.433   4.633  0.1055 -0.5679 -0.4214
 9508TIP3    H249940   2.035   0.532   4.547 -0.3228 -0.4533 -0.6691
 9509TIP3   OH249941   4.309   6.158  14.298 -0.0058  0.4764  0.2865
 9509TIP3    H149942   4.375   6.089  14.309 -1.2845 -0.9066 -0.3263
 9509TIP3    H249943   4.359   6.239  14.299  1.6365 -0.4843  0.4248
 9510TIP3   OH249944   5.692   2.723   4.343  0.7808  0.3680 -0.1058
 9510TIP3    H149945   5.710   2.804   4.391 -0.8977  1.0224 -0.5131
 9510TIP3    H249946   5.685   2.656   4.411  2.2968  0.5095  0.2292
 9511TIP3   OH249947   4.513   5.697   2.172 -0.2719  0.0794 -0.3566
 9511TIP3    H149948   4.576   5.654   2.113  0.2242  2.8396 -2.0608
 9511TIP3    H249949   4.567   5.753   2.228 -0.9812 -0.3032  0.7419
 9512TIP3   OH249950   3.306   1.105  11.734 -0.6444 -0.0844  0.0719
 9512TIP3    H149951   3.247   1.134  11.804  1.3759  0.0667  1.8361
 9512TIP3    H249952   3.334   1.186  11.691 -0.6071 -0.0371  0.1849
 9513TIP3   OH249953   2.774   5.273  12.305  0.0717 -0.0806 -0.3061
 9513TIP3    H149954   2.712   5.207  12.335  0.1201 -0.9458 -2.0227
 9513TIP3    H249955   2.727   5.322  12.237  0.6683  0.4465 -0.3531
 9514TIP3   OH249956   5.884   2.100   5.374 -0.0286 -0.5188  0.2218
 9514TIP3    H149957   5.810   2.056   5.334  0.2379  0.4354 -1.4341
 9514TIP3    H249958   5.846   2.170   5.426 -0.3173  0.4999 -1.2941
 9515TIP3   OH249959   1.326   2.110  13.602 -0.2783 -0.2296 -0.4984
 9515TIP3    H149960   1.320   2.027  13.555  0.9582 -0.8357  0.3596
 9515TIP3    H249961   1.243   2.118  13.648 -0.1714 -1.3049 -0.0942
 9516TIP3   OH249962   3.233   1.249   4.146 -0.2086 -0.1365  0.3435
 9516TIP3    H149963   3.202   1.338   4.129 -0.9560 -0.2480  1.0525
 9516TIP3    H249964   3.222   1.203   4.062  2.3531  1.0094 -0.7087
 9517TIP3   OH249965   6.352   1.913  14.106 -0.9173  0.5967 -0.1109
 9517TIP3    H149966   6.276   1.935  14.160 -1.2489 -2.8120  1.0813
 9517TIP3    H249967   6.421   1.973  14.136 -1.9329  0.7957  1.9894
 9518TIP3   OH249968   5.235   1.857  13.575  0.2081 -0.0552 -0.1401
 9518TIP3    H149969   5.150   1.896  13.554 -0.6799 -1.8208 -0.0381
 9518TIP3    H249970   5.229   1.835  13.668  0.2385 -1.3537 -0.4200
 9519TIP3   OH249971   5.343   5.307   0.387 -0.6131 -0.0250  0.0483
 9519TIP3    H149972   5.334   5.212   0.391  0.0736 -0.0922  0.0255
 9519TIP3    H249973   5.253   5.340   0.392 -1.0745 -0.7549 -2.3275
 9520TIP3   OH249974   0.287   0.608  13.138  0.3272  0.1652 -0.4008
 9520TIP3    H149975   0.290   0.671  13.210  1.6035 -0.7075  0.3355
 9520TIP3    H249976   0.193   0.590  13.127 -0.2194  3.0145 -1.4238
 9521TIP3   OH249977   1.105   1.707  16.924  0.2180  0.0196 -0.2801
 9521TIP3    H149978   1.082   1.800  16.927 -1.6850 -0.4097 -0.6498
 9521TIP3    H249979   1.129   1.691  16.833 -0.6642 -0.1015 -0.5009
 9522TIP3   OH249980   1.487   3.245   1.990 -0.4012 -0.0059 -0.4365
 9522TIP3    H149981   1.485   3.161   1.945  0.9439 -0.0339 -0.4968
 9522TIP3    H249982   1.519   3.224   2.078 -1.4306  0.2619  0.0106
 9523TIP3   OH249983   5.873   4.632  13.804  0.2701 -0.1160  0.1901
 9523TIP3    H149984   5.845   4.718  13.835  1.2547  1.0414 -1.9093
 9523TIP3    H249985   5.953   4.613  13.853 -0.6150 -0.4445  1.5516
 9524TIP3   OH249986   4.343   1.341  11.679  0.3640 -0.0286 -0.1035
 9524TIP3    H149987   4.424   1.290  11.689  1.4404  1.5992 -0.1404
 9524TIP3    H249988   4.372   1.425  11.642 -1.0278  1.4613  1.9670
 9525TIP3   OH249989   5.952   4.837  12.213 -0.5678  0.2236 -0.3156
 9525TIP3    H149990   5.870   4.818  12.258  0.0814  3.0368  2.4363
 9525TIP3    H249991   6.018   4.788  12.262 -0.1003  1.7342  0.6373
 9526TIP3   OH249992   1.508   0.113  15.798 -0.0445 -0.1039  0.4411
 9526TIP3    H149993   1.597   0.145  15.783  0.1800 -1.4719 -1.5464
 9526TIP3    H249994   1.478   0.084  15.712 -2.0752 -0.5597  1.2417
 9527TIP3   OH249995   6.041   0.767   5.766 -0.1964  0.5893 -0.5150
 9527TIP3    H149996   6.040   0.685   5.815 -2.1952  0.1853 -1.1384
 9527TIP3    H249997   5.994   0.829   5.821 -0.4428  0.7666 -0.9220
 9528TIP3   OH249998   2.774   4.413  13.974  0.0236  0.1683 -0.0615
 9528TIP3    H149999   2.755   4.327  14.012  1.2796  0.1735  0.6494
 9528TIP3    H250000   2.868   4.411  13.956 -0.4220  0.3135 -2.9074
 9529TIP3   OH250001   5.829   5.330   0.671 -0.5907  0.6767 -0.1892
 9529TIP3    H150002   5.890   5.264   0.639  0.6152  0.5407  2.1691
 9529TIP3    H250003   5.742   5.298   0.645 -0.0984 -2.2145  1.3437
 9530TIP3   OH250004   0.777   5.245   3.442 -0.1529 -0.1200  0.3792
 9530TIP3    H150005   0.801   5.209   3.528  0.0032 -0.3719  0.2321
 9530TIP3    H250006   0.690   5.283   3.456  0.1499  0.4235  0.8106
 9531TIP3   OH250007   3.701   0.842  11.669  0.8303 -0.1673  0.0717
 9531TIP3    H150008   3.796   0.853  11.658  1.1905 -3.0081 -0.3353
 9531TIP3    H250009   3.683   0.755  11.635 -1.6216 -0.5132  1.9918
 9532TIP3   OH250010   3.559   0.927   1.689 -0.3857  0.2096  0.6334
 9532TIP3    H150011   3.570   0.847   1.638 -0.2864  2.3817 -3.1175
 9532TIP3    H250012   3.637   0.932   1.745  2.0474 -0.0921 -2.4992
 9533TIP3   OH250013   0.485   5.791   4.641 -0.2423 -0.6391 -0.2077
 9533TIP3    H150014   0.480   5.866   4.581  1.2890 -1.4600 -1.4446
 9533TIP3    H250015   0.529   5.825   4.719 -0.5347 -0.0049 -0.3137
 9534TIP3   OH250016   0.263   0.015  16.998 -0.2827  0.2081  0.2198
 9534TIP3    H150017   0.250  -0.026  17.084  0.4989 -0.1708  0.1637
 9534TIP3    H250018   0.205  -0.034  16.939 -0.3950  0.0982  0.4194
 9535TIP3   OH250019   3.200   1.760  14.429 -0.2877 -0.1912 -0.0082
 9535TIP3    H150020   3.219   1.829  14.493 -0.9910 -0.0625  0.0659
 9535TIP3    H250021   3.107   1.742  14.440 -0.5439  0.2066 -1.3741
 9536TIP3   OH250022   1.431   2.612  13.310 -0.1119  0.5324  0.3073
 9536TIP3    H150023   1.381   2.618  13.228 -0.9168 -0.0109  0.7437
 9536TIP3    H250024   1.364   2.603  13.378  0.5609  0.6605  0.9994
 9537TIP3   OH250025   0.856   5.286   5.672 -0.3761 -0.6141 -0.0745
 9537TIP3    H150026   0.788   5.230   5.709  0.0246 -0.4805  0.9044
 9537TIP3    H250027   0.816   5.325   5.594 -2.7552  2.1647  2.2689
 9538TIP3   OH250028   3.327   4.697  15.934  0.7530  0.4898 -0.7749
 9538TIP3    H150029   3.316   4.614  15.887  1.0293 -0.6180  0.9910
 9538TIP3    H250030   3.399   4.741  15.889  2.1484 -1.2898 -0.4197
 9539TIP3   OH250031   1.058   4.903   1.194 -0.0129 -0.7649  0.3084
 9539TIP3    H150032   1.099   4.986   1.218 -0.7512 -0.3223  0.0863
 9539TIP3    H250033   1.085   4.888   1.104 -1.9385  0.5899 -0.5732
 9540TIP3   OH250034   2.050   6.266  15.346 -0.2309 -0.2802  0.0561
 9540TIP3    H150035   2.054   6.356  15.312  0.1291 -0.0353  0.7363
 9540TIP3    H250036   1.974   6.227  15.302 -0.6012  0.4637  0.0266
 9541TIP3   OH250037   1.434   0.096  14.035  0.1775  0.1861  0.0495
 9541TIP3    H150038   1.395   0.102  13.947 -0.1875 -1.7714  0.0291
 9541TIP3    H250039   1.365   0.058  14.089  0.6013  0.8175  1.0674
 9542TIP3   OH250040   6.456   4.031   3.155  0.2410  0.3503 -0.0930
 9542TIP3    H150041   6.398   4.025   3.231  0.4898 -0.6814  0.0283
 9542TIP3    H250042   6.407   3.989   3.084  1.0487 -1.1047  0.1635
 9543TIP3   OH250043   0.266   4.324  12.652 -0.3588  0.0768 -0.3426
 9543TIP3    H150044   0.311   4.407  12.637 -1.7514  0.7546 -0.9279
 9543TIP3    H250045   0.302   4.265  12.586  0.2418  0.3723 -0.2852
 9544TIP3   OH250046   0.117   0.432  16.307  0.2260  0.8225 -0.1213
 9544TIP3    H150047   0.040   0.398  16.261  0.8446 -0.5368 -0.2001
 9544TIP3    H250048   0.095   0.523  16.325 -0.4878  1.1197 -2.1564
 9545TIP3   OH250049   3.889   4.377   1.003  0.3162 -0.3719 -0.1543
 9545TIP3    H150050   3.868   4.428   0.925  0.1901 -0.7285 -0.3585
 9545TIP3    H250051   3.971   4.332   0.982  0.5021 -0.1456  0.0775
 9546TIP3   OH250052   3.523   3.026   0.379  0.3382  0.1768 -0.0888
 9546TIP3    H150053   3.603   3.078   0.386  0.2484  0.1636  1.3192
 9546TIP3    H250054   3.470   3.071   0.313  1.2604  0.5077 -0.6090
 9547TIP3   OH250055   5.244   0.024  10.795 -0.2586 -0.3998 -0.3338
 9547TIP3    H150056   5.172  -0.035  10.774 -1.2452  1.1792 -1.6175
 9547TIP3    H250057   5.287   0.040  10.711  2.1360 -1.8913  0.4964
 9548TIP3   OH250058   6.483   4.865  14.384  0.2930  0.3106  0.6057
 9548TIP3    H150059   6.524   4.935  14.332 -0.0642 -0.0991 -0.2518
 9548TIP3    H250060   6.549   4.796  14.385 -0.3643 -0.3842 -0.8499
 9549TIP3   OH250061   0.987   4.081   0.536 -0.2996  0.3716 -0.1641
 9549TIP3    H150062   0.963   3.997   0.575  0.0421 -0.1345 -1.0137
 9549TIP3    H250063   1.051   4.118   0.597 -3.1377  1.8006  2.2006
 9550TIP3   OH250064   1.021   5.957  15.220  0.5009 -0.3410 -0.3490
 9550TIP3    H150065   1.088   6.025  15.220  0.0776  0.0974  0.5553
 9550TIP3    H250066   0.953   5.991  15.162  1.2015 -0.9526 -1.5626
 9551TIP3   OH250067   2.297   4.479  13.215  0.5245  0.1164  0.0853
 9551TIP3    H150068   2.268   4.388  13.227  2.0091 -0.3946 -0.0408
 9551TIP3    H250069   2.360   4.474  13.143  2.0773  0.9291  1.3525
 9552TIP3   OH250070   0.371   4.142   0.336  0.1810 -0.3746 -0.7202
 9552TIP3    H150071   0.465   4.132   0.354  0.0714  2.2457  2.2440
 9552TIP3    H250072   0.367   4.199   0.259  1.0639  0.0769 -0.4469
 9553TIP3   OH250073   1.805   2.423  14.321 -0.7430 -0.2777 -0.6947
 9553TIP3    H150074   1.824   2.458  14.409 -1.7250 -4.1066  1.2388
 9553TIP3    H250075   1.714   2.448  14.305 -2.3199 -3.6827  1.8270
 9554TIP3   OH250076   0.141   0.067   4.671 -0.0732  0.1696 -0.1736
 9554TIP3    H150077   0.124   0.136   4.606  0.4167  0.0502 -0.4304
 9554TIP3    H250078   0.165   0.115   4.750 -1.2998  0.3389  0.1249
 9555TIP3   OH250079   3.326   3.929   2.042 -0.3031  0.6433  0.2806
 9555TIP3    H150080   3.250   3.985   2.024  1.4867  2.8505 -1.0477
 9555TIP3    H250081   3.343   3.886   1.958 -0.4442 -0.3675  0.7556
 9556TIP3   OH250082   4.200   1.748   3.208 -0.1429 -0.4375  0.0732
 9556TIP3    H150083   4.159   1.833   3.223  2.9573  0.8904  2.0971
 9556TIP3    H250084   4.231   1.753   3.117 -0.2820  0.4589  0.0624
 9557TIP3   OH250085   5.520   2.174   0.369 -0.0597  0.7361  0.3614
 9557TIP3    H150086   5.446   2.147   0.424  1.4790 -1.8735  1.3407
 9557TIP3    H250087   5.569   2.235   0.425  0.1004  0.1511  0.8684
 9558TIP3   OH250088   5.275   6.666   5.803  0.0394 -1.1016  0.0301
 9558TIP3    H150089   5.370   6.678   5.799 -0.0365  0.8817  1.9219
 9558TIP3    H250090   5.239   6.745   5.763 -0.7892 -1.3438  0.2745
 9559TIP3   OH250091   0.234   5.671   4.918 -0.7413  0.6221  0.4768
 9559TIP3    H150092   0.175   5.739   4.886 -2.3648 -0.5420  0.8694
 9559TIP3    H250093   0.188   5.589   4.901  1.2234 -0.4269 -0.1222
 9560TIP3   OH250094   5.432   1.435  16.673 -0.0308  0.8398 -0.1317
 9560TIP3    H150095   5.498   1.401  16.612 -1.3182 -2.6036  0.2203
 9560TIP3    H250096   5.483   1.470  16.746  1.4327  2.0468 -1.6206
 9561TIP3   OH250097   6.417   0.570   5.846  0.1937  0.1412 -0.4914
 9561TIP3    H150098   6.360   0.495   5.867 -0.4017  0.7588  0.1320
 9561TIP3    H250099   6.502   0.546   5.883 -0.0237 -0.1891 -0.1929
 9562TIP3   OH250100   0.178   5.669   2.420  0.1251  0.4763  0.0123
 9562TIP3    H150101   0.126   5.627   2.489  0.1032  0.8187  0.2010
 9562TIP3    H250102   0.122   5.738   2.385 -0.1205 -0.1178 -0.7986
 9563TIP3   OH250103   2.845   3.725  11.480 -0.4720  0.0259  0.6730
 9563TIP3    H150104   2.817   3.812  11.452 -0.5513 -0.3387 -0.4436
 9563TIP3    H250105   2.792   3.706  11.557 -0.3333  1.0291  1.0238
 9564TIP3   OH250106   6.336   6.063   0.430  0.1779  0.1040  0.8217
 9564TIP3    H150107   6.348   5.969   0.418 -0.3328  0.2654 -1.2927
 9564TIP3    H250108   6.241   6.074   0.431  0.2314  0.7073 -0.1048
 9565TIP3   OH250109   5.255   1.238   2.954 -0.1613 -0.3530 -0.5772
 9565TIP3    H150110   5.346   1.226   2.981 -0.0711 -0.3521 -0.8818
 9565TIP3    H250111   5.245   1.182   2.878 -1.0968 -2.3312  0.8955
 9566TIP3   OH250112   5.022   4.882  13.507 -0.1763  0.0214  0.1236
 9566TIP3    H150113   5.065   4.797  13.517 -1.8139 -1.2616 -2.6371
 9566TIP3    H250114   4.939   4.872  13.555  0.4631  0.8376  1.4707
 9567TIP3   OH250115   0.896   3.783   4.119 -0.5116  0.0657 -0.0870
 9567TIP3    H150116   0.964   3.838   4.082  1.1262 -1.2379  0.8550
 9567TIP3    H250117   0.818   3.839   4.122  1.0380  2.2710  0.7159
 9568TIP3   OH250118   2.808   4.148  12.966  0.4882 -0.0844  0.0049
 9568TIP3    H150119   2.786   4.090  12.893 -1.3066  0.1869  0.2940
 9568TIP3    H250120   2.777   4.234  12.939  0.5530  0.1856  0.7523
 9569TIP3   OH250121   5.060   3.627   1.651 -0.0915  0.0267  0.5429
 9569TIP3    H150122   5.001   3.694   1.685  1.0182  1.2053  0.2218
 9569TIP3    H250123   5.034   3.616   1.560 -0.9872 -0.7977  0.8862
 9570TIP3   OH250124   2.405   1.285   6.199  0.5163 -0.4532  0.3883
 9570TIP3    H150125   2.486   1.336   6.200 -0.3161  0.9062  1.0143
 9570TIP3    H250126   2.385   1.272   6.106 -0.0395  1.6892  0.1710
 9571TIP3   OH250127   2.557   1.425   2.189  0.3735 -0.3381  0.1258
 9571TIP3    H150128   2.473   1.417   2.143 -0.4168 -0.2290  1.5050
 9571TIP3    H250129   2.606   1.489   2.138  0.0525 -1.1697 -1.3018
 9572TIP3   OH250130   3.734   4.691   1.932  0.2436  0.4600 -0.4259
 9572TIP3    H150131   3.811   4.680   1.987 -0.4015  2.0692  0.8747
 9572TIP3    H250132   3.675   4.621   1.959  0.5454  0.2997 -0.1773
 9573TIP3   OH250133   3.956   0.163   2.552 -0.7732 -0.0912  0.2089
 9573TIP3    H150134   4.041   0.203   2.537 -1.3398  1.8057  1.6952
 9573TIP3    H250135   3.943   0.105   2.477  1.2219  0.5950 -0.7236
 9574TIP3   OH250136   3.989   3.055  16.511  0.3374  0.1226 -0.4762
 9574TIP3    H150137   3.920   3.118  16.491 -0.3961 -0.4439  0.2258
 9574TIP3    H250138   4.046   3.101  16.573 -0.7511 -0.2209  0.8263
 9575TIP3   OH250139   6.102   5.159  11.573  0.2564 -0.4243  0.1186
 9575TIP3    H150140   6.047   5.179  11.648 -0.8625 -0.8554 -0.5743
 9575TIP3    H250141   6.048   5.103  11.517  1.5852 -1.3357 -0.3153
 9576TIP3   OH250142   3.515   6.374   0.027  0.0207  0.5720 -0.2801
 9576TIP3    H150143   3.448   6.312   0.058  1.8503 -2.0762 -1.2458
 9576TIP3    H250144   3.569   6.392   0.104 -0.8840  1.5448  0.1524
 9577TIP3   OH250145   6.320   3.945  11.542 -0.6348 -0.1208 -0.0522
 9577TIP3    H150146   6.364   3.939  11.627  0.1793  1.1570 -0.3577
 9577TIP3    H250147   6.391   3.955  11.479 -1.3032  0.7730 -0.6885
 9578TIP3   OH250148   6.499   1.689  16.791  0.3653 -0.0567  0.1458
 9578TIP3    H150149   6.571   1.744  16.821  1.5047 -0.9585 -0.8620
 9578TIP3    H250150   6.506   1.609  16.844  0.1170 -0.1559  0.0304
 9579TIP3   OH250151   6.804   4.113  14.324  0.4727 -0.0082 -0.2336
 9579TIP3    H150152   6.779   4.199  14.359  0.7137  0.3737 -0.9661
 9579TIP3    H250153   6.832   4.132  14.234  0.0654 -0.9193 -0.5644
 9580TIP3   OH250154   3.074   6.632  13.246  0.2685 -0.0714 -0.3173
 9580TIP3    H150155   3.097   6.723  13.263 -1.9139  0.3916  0.6398
 9580TIP3    H250156   2.978   6.633  13.240 -0.1685 -2.7224  3.0313
 9581TIP3   OH250157   2.315   2.457  16.707 -0.8772 -0.2667 -0.1140
 9581TIP3    H150158   2.373   2.524  16.671 -2.1045  2.1532  2.0843
 9581TIP3    H250159   2.354   2.435  16.792 -1.9722 -0.1887  0.4302
 9582TIP3   OH250160   0.803   4.621  11.941 -0.4588  0.1754  0.0278
 9582TIP3    H150161   0.762   4.651  12.022  0.5565  0.0374  0.6030
 9582TIP3    H250162   0.778   4.687  11.876 -0.4418  0.8293  0.6764
 9583TIP3   OH250163   1.460   5.378   3.870 -0.0417 -0.2026 -0.7109
 9583TIP3    H150164   1.514   5.301   3.853  1.8266  1.2347 -1.6991
 9583TIP3    H250165   1.402   5.352   3.941  0.6596 -2.4425 -0.9000
 9584TIP3   OH250166   3.471   3.700   4.876 -0.6303 -0.3641  0.0749
 9584TIP3    H150167   3.528   3.708   4.799 -0.9308 -0.0201 -0.1132
 9584TIP3    H250168   3.478   3.607   4.900 -0.3747 -0.4322 -0.2442
 9585TIP3   OH250169   1.865   2.455  14.569 -0.3977  0.1993  0.0398
 9585TIP3    H150170   1.883   2.543  14.600 -2.3405  0.3832  0.7304
 9585TIP3    H250171   1.802   2.419  14.631  1.8957 -2.4792  1.0093
 9586TIP3   OH250172   3.131   0.279   3.408 -0.1539  0.3119  0.2860
 9586TIP3    H150173   3.094   0.367   3.403 -1.4539 -0.1014  1.7094
 9586TIP3    H250174   3.175   0.276   3.493 -1.6451 -0.9161  1.0670
 9587TIP3   OH250175   2.145   0.475   2.885  0.0516 -0.8924  0.3449
 9587TIP3    H150176   2.175   0.532   2.814 -1.6590 -1.2592 -0.7319
 9587TIP3    H250177   2.099   0.535   2.944  0.0846 -0.8420  0.3207
 9588TIP3   OH250178   6.089   1.743  11.095  0.3066 -0.3085  0.5540
 9588TIP3    H150179   6.047   1.829  11.092  1.5616  0.2952 -0.5554
 9588TIP3    H250180   6.093   1.721  11.188 -0.7957  0.4327  0.7896
 9589TIP3   OH250181   6.654   1.104   5.471 -0.2661  0.7102 -0.7137
 9589TIP3    H150182   6.603   1.027   5.496  0.2661  0.2188 -1.1035
 9589TIP3    H250183   6.711   1.072   5.401  1.0630  1.0747  0.1853
 9590TIP3   OH250184   1.447   2.167   2.059 -0.4223 -0.2538  0.3112
 9590TIP3    H150185   1.390   2.091   2.074  0.2971 -0.6420  1.1726
 9590TIP3    H250186   1.529   2.144   2.102 -0.8555  1.9025  2.5560
 9591TIP3   OH250187   4.215   2.832   4.723 -0.0892 -0.3133  0.3091
 9591TIP3    H150188   4.205   2.830   4.818 -0.0795  0.8383  0.3478
 9591TIP3    H250189   4.301   2.792   4.707 -0.5383 -1.4698  0.6897
 9592TIP3   OH250190   4.172   5.519  17.029 -0.0985 -0.0147 -0.1081
 9592TIP3    H150191   4.240   5.477  17.082 -1.7440 -0.5548  1.6970
 9592TIP3    H250192   4.089   5.490  17.068 -1.3693  1.5897 -1.4344
 9593TIP3   OH250193   2.212   5.608   3.822 -0.4143 -0.0461 -0.1571
 9593TIP3    H150194   2.294   5.558   3.824  0.5952  1.5335 -0.2348
 9593TIP3    H250195   2.239   5.697   3.798 -2.2547  0.3354 -0.9813
 9594TIP3   OH250196   5.327   4.999   4.220  0.0286 -0.7725 -0.2636
 9594TIP3    H150197   5.267   4.986   4.293  0.2089 -1.3632 -0.2151
 9594TIP3    H250198   5.311   5.088   4.191 -0.7394 -0.8644 -0.1327
 9595TIP3   OH250199   2.791   2.371   1.184 -0.5078  0.3431  0.2991
 9595TIP3    H150200   2.807   2.451   1.235 -0.9178  0.5734  0.0766
 9595TIP3    H250201   2.728   2.322   1.236  0.0537 -0.0277  0.6300
 9596TIP3   OH250202   4.890   5.878   4.669  0.0473  0.2160 -0.2655
 9596TIP3    H150203   4.889   5.841   4.757 -0.2685  1.5109  0.3024
 9596TIP3    H250204   4.977   5.918   4.660  0.0099  0.2575 -0.4648
 9597TIP3   OH250205   2.515   4.820   6.699 -0.5587 -0.2686 -0.0573
 9597TIP3    H150206   2.429   4.817   6.741  0.0323  1.5963  1.3948
 9597TIP3    H250207   2.515   4.744   6.640 -3.3017 -0.1458 -0.3547
 9598TIP3   OH250208   4.872   1.044   3.251  0.2920 -0.3475  1.1145
 9598TIP3    H150209   4.875   0.961   3.299  0.5364 -0.2474  1.2748
 9598TIP3    H250210   4.945   1.038   3.189  0.6920 -0.0014  1.5445
 9599TIP3   OH250211   2.701   0.071  15.381  0.3419 -0.3330 -0.3374
 9599TIP3    H150212   2.655   0.064  15.465  0.9684 -0.6744 -0.0205
 9599TIP3    H250213   2.712   0.165  15.367  2.8387 -0.2898  1.4100
 9600TIP3   OH250214   5.048   3.136  11.307  0.1314 -0.1471 -0.6065
 9600TIP3    H150215   5.006   3.149  11.392  1.4965  0.8005 -0.0588
 9600TIP3    H250216   5.012   3.053  11.276 -0.0202 -0.7745  1.1270
 9601TIP3   OH250217   5.446   1.590   4.728  0.0497  0.7188 -0.1094
 9601TIP3    H150218   5.370   1.544   4.762 -0.4999  0.3443 -1.7880
 9601TIP3    H250219   5.507   1.593   4.802 -1.4142  0.6832  1.1450
 9602TIP3   OH250220   5.854   3.640   1.191 -0.1097  0.2279 -0.0999
 9602TIP3    H150221   5.821   3.668   1.276  1.4677  0.5448  0.4360
 9602TIP3    H250222   5.896   3.718   1.154  1.0118 -0.4234 -0.2572
 9603TIP3   OH250223   6.151   2.504   4.028 -0.0364  0.5188 -0.1299
 9603TIP3    H150224   6.153   2.564   4.103  0.0898 -0.2107  0.4559
 9603TIP3    H250225   6.232   2.521   3.981  0.4019  0.2165  0.5072
 9604TIP3   OH250226   0.078   2.768   1.424  0.1984 -0.2166  0.4135
 9604TIP3    H150227   0.067   2.705   1.353  0.3109 -1.0106  1.0919
 9604TIP3    H250228   0.095   2.715   1.502 -0.5380  0.6068  1.1601
 9605TIP3   OH250229   6.198   5.802  14.652  0.5571 -0.6987 -0.3856
 9605TIP3    H150230   6.171   5.831  14.565 -0.0926  0.2196  0.1026
 9605TIP3    H250231   6.233   5.714  14.638  2.9166  0.3875 -1.9891
 9606TIP3   OH250232   4.962   3.098  14.319 -0.4874  0.1144  0.4681
 9606TIP3    H150233   4.941   3.184  14.282  1.2266  0.2266 -0.3448
 9606TIP3    H250234   4.936   3.036  14.250  0.0481  0.1301  0.2446
 9607TIP3   OH250235   1.971   2.042  13.759 -0.2220  0.1974  0.3060
 9607TIP3    H150236   1.959   1.948  13.754 -1.4333  0.4005 -1.4387
 9607TIP3    H250237   1.899   2.074  13.813 -0.3908  0.2225  0.0654
 9608TIP3   OH250238   4.384   2.005  15.366 -0.3052 -0.6989  0.1641
 9608TIP3    H150239   4.433   1.929  15.398 -0.6293 -0.1193  2.2017
 9608TIP3    H250240   4.292   1.977  15.368 -0.3515 -0.5545  0.0624
 9609TIP3   OH250241   2.469   5.843  14.958 -0.6852  0.0704  0.0260
 9609TIP3    H150242   2.484   5.917  15.017 -1.4963 -0.1127  0.4930
 9609TIP3    H250243   2.392   5.799  14.996 -0.9981 -0.2594 -0.9710
 9610TIP3   OH250244   2.413   3.456  10.827  0.0279  0.1707 -0.2233
 9610TIP3    H150245   2.397   3.470  10.920  0.4609 -0.4750 -0.0449
 9610TIP3    H250246   2.398   3.542  10.786  0.7605  0.6854  0.5652
 9611TIP3   OH250247   2.381   1.775  11.772 -0.0994 -0.1812 -0.2668
 9611TIP3    H150248   2.293   1.770  11.808  1.0015 -0.5933  2.6346
 9611TIP3    H250249   2.402   1.869  11.775 -0.4114 -0.0769 -1.0033
 9612TIP3   OH250250   1.842   1.052  14.649  0.3459  0.0212 -0.0631
 9612TIP3    H150251   1.786   0.975  14.645  0.4066  0.0097 -0.9127
 9612TIP3    H250252   1.796   1.113  14.707  0.7194 -0.9778  1.3270
 9613TIP3   OH250253   3.381   4.865  14.531  0.1412  0.2363 -0.4943
 9613TIP3    H150254   3.379   4.925  14.456 -0.4999  0.0870 -0.6021
 9613TIP3    H250255   3.289   4.850  14.552  0.3126 -0.0594  0.0570
 9614TIP3   OH250256   6.079   1.244   5.068 -0.1321 -0.0960  0.3384
 9614TIP3    H150257   6.174   1.250   5.054 -0.1053 -0.3835  0.3968
 9614TIP3    H250258   6.069   1.182   5.140 -0.4407 -1.3806 -0.7739
 9615TIP3   OH250259   4.243   3.438  14.430  0.3548  0.2950  0.2673
 9615TIP3    H150260   4.148   3.441  14.422  0.2301 -1.2864  0.7345
 9615TIP3    H250261   4.276   3.473  14.347 -0.6355  0.2044 -0.1749
 9616TIP3   OH250262   2.201   6.078  16.025  0.7077  0.2185 -0.6553
 9616TIP3    H150263   2.131   6.080  16.090  0.4248  0.0715 -0.9492
 9616TIP3    H250264   2.158   6.103  15.943  1.0846  0.5191 -0.7637
 9617TIP3   OH250265   0.292   2.788  11.812 -0.8210 -0.9069  0.1348
 9617TIP3    H150266   0.272   2.869  11.765 -0.5648 -1.1590 -0.4198
 9617TIP3    H250267   0.207   2.755  11.843 -0.7904  0.3448  1.6714
 9618TIP3   OH250268   2.155   6.797  16.208 -0.3444  0.1692  0.7576
 9618TIP3    H150269   2.212   6.874  16.217  0.7017 -0.4721 -0.1736
 9618TIP3    H250270   2.068   6.829  16.232  0.3939  1.1641  2.2421
 9619TIP3   OH250271   0.908   0.168  15.747  0.3125  0.3820  0.2299
 9619TIP3    H150272   0.951   0.253  15.739 -1.1060  1.0031 -1.2031
 9619TIP3    H250273   0.920   0.127  15.661  1.4082 -1.1338  1.0328
 9620TIP3   OH250274   6.580   4.162   1.881  0.0748 -0.4523 -0.1080
 9620TIP3    H150275   6.564   4.188   1.791  0.8054 -0.8518 -0.3560
 9620TIP3    H250276   6.628   4.080   1.875  0.6524 -0.1804  0.6368
 9621TIP3   OH250277   2.465   1.435  14.249  0.4187 -0.5625  0.2013
 9621TIP3    H150278   2.481   1.376  14.322  1.2746  0.5883  0.9908
 9621TIP3    H250279   2.529   1.506  14.261  0.0843  0.0282 -1.2478
 9622TIP3   OH250280   2.572   4.687   5.394 -0.2249 -0.1339  0.3064
 9622TIP3    H150281   2.521   4.635   5.331  0.4909 -1.1389  0.5328
 9622TIP3    H250282   2.560   4.641   5.477 -0.2079  0.5227  0.6724
 9623TIP3   OH250283   2.035   3.397   5.244 -0.0588 -0.6591 -0.5971
 9623TIP3    H150284   2.114   3.436   5.282  0.4851 -1.3219 -1.0073
 9623TIP3    H250285   2.049   3.303   5.254 -0.8139 -0.7796 -0.6545
 9624TIP3   OH250286   5.723   1.485   2.468  0.2562 -0.2684  0.0071
 9624TIP3    H150287   5.766   1.571   2.467  0.0424 -0.1543  0.6352
 9624TIP3    H250288   5.702   1.469   2.560 -2.6052  0.4407 -0.4439
 9625TIP3   OH250289   5.507   5.924  15.778  0.3492 -0.3341  0.4122
 9625TIP3    H150290   5.600   5.927  15.757  0.4001 -1.2342  0.4634
 9625TIP3    H250291   5.504   5.901  15.871  0.0791  0.8223  0.7130
 9626TIP3   OH250292   3.917   4.912  13.852  0.0508 -0.6141  0.2981
 9626TIP3    H150293   3.957   4.990  13.811 -2.3615  0.7039  0.2907
 9626TIP3    H250294   3.974   4.840  13.825  1.2384  0.8580 -1.4369
 9627TIP3   OH250295   2.247   6.097  12.014 -0.2063  0.0196 -0.2184
 9627TIP3    H150296   2.307   6.048  11.957 -1.3475 -0.6539 -0.8786
 9627TIP3    H250297   2.165   6.049  12.009 -0.5931  0.4718  1.3054
 9628TIP3   OH250298   3.559   6.720   0.281 -0.7016 -0.2588 -0.2124
 9628TIP3    H150299   3.545   6.651   0.346  2.2227 -1.4429 -0.6956
 9628TIP3    H250300   3.638   6.766   0.310 -1.7879  2.0503 -0.6683
 9629TIP3   OH250301   4.523   0.375   2.655 -0.0406  0.2765  0.4232
 9629TIP3    H150302   4.456   0.328   2.606  1.1719 -0.7672 -0.2806
 9629TIP3    H250303   4.598   0.316   2.656  0.9056  1.4500  1.1224
 9630TIP3   OH250304   3.381   3.450   6.015 -0.1755  0.3565 -0.5865
 9630TIP3    H150305   3.340   3.383   5.961 -0.8512  1.0021 -0.8967
 9630TIP3    H250306   3.474   3.445   5.993 -0.6499  2.0226 -3.4733
 9631TIP3   OH250307   3.187   4.634   5.795  0.1715 -0.8069  0.0335
 9631TIP3    H150308   3.144   4.579   5.859 -0.6305 -0.8734 -0.5556
 9631TIP3    H250309   3.146   4.612   5.711  0.4267  0.0632 -0.3397
 9632TIP3   OH250310   5.106   0.953  11.629  0.8247  0.1000  0.0460
 9632TIP3    H150311   5.172   0.943  11.560  0.5831 -1.9158  0.0304
 9632TIP3    H250312   5.155   0.990  11.703  1.3513  1.1432 -0.7949
 9633TIP3   OH250313   2.953   4.531  10.543 -0.0102  0.5787 -0.2646
 9633TIP3    H150314   2.950   4.436  10.545  1.9709  0.4781 -0.2967
 9633TIP3    H250315   2.883   4.556  10.483 -1.2677 -0.7812  0.5735
 9634TIP3   OH250316   3.332   3.501   4.236  0.2429  1.0986 -0.2620
 9634TIP3    H150317   3.320   3.477   4.328  2.8539 -0.1397 -0.1317
 9634TIP3    H250318   3.299   3.426   4.187  0.8517  0.7752 -0.1975
 9635TIP3   OH250319   2.869   0.813  11.301  0.2866 -0.2943  0.1354
 9635TIP3    H150320   2.884   0.723  11.328 -0.7297 -0.6689 -0.4503
 9635TIP3    H250321   2.774   0.824  11.309  0.5697  1.3287  1.9625
 9636TIP3   OH250322   0.713   4.121  12.677  0.2516 -0.1781  0.5513
 9636TIP3    H150323   0.645   4.125  12.744 -1.1114 -2.0062 -0.6172
 9636TIP3    H250324   0.700   4.201  12.625  1.4417  1.3514  2.4666
 9637TIP3   OH250325   3.649   6.503  15.932 -0.2507  0.2095  0.0778
 9637TIP3    H150326   3.660   6.520  15.838  2.3334 -0.2755  0.2198
 9637TIP3    H250327   3.667   6.409  15.941 -2.9915 -0.3224  0.7823
 9638TIP3   OH250328   2.326   4.230  11.360 -0.0210  0.1337 -0.2905
 9638TIP3    H150329   2.332   4.134  11.359 -0.2373  0.1010  0.8301
 9638TIP3    H250330   2.259   4.251  11.294 -0.4987 -0.5284 -0.0238
 9639TIP3   OH250331   4.651   4.859  12.051 -0.5599 -0.2968  0.2640
 9639TIP3    H150332   4.615   4.929  11.997 -1.4189 -0.7324  0.2597
 9639TIP3    H250333   4.686   4.904  12.129 -0.4451  0.1997 -0.0678
 9640TIP3   OH250334   3.330   0.807   3.761 -0.0904  0.0189  0.2950
 9640TIP3    H150335   3.270   0.748   3.808  1.1125 -1.2904  0.2598
 9640TIP3    H250336   3.287   0.821   3.676 -0.5650 -0.5320  0.4352
 9641TIP3   OH250337   1.205   1.012   0.935  0.0198  0.3266  0.4080
 9641TIP3    H150338   1.166   1.099   0.948 -0.7927 -0.1988  1.6577
 9641TIP3    H250339   1.139   0.962   0.888 -0.1536 -0.0605  1.0436
 9642TIP3   OH250340   5.563   0.849  15.223  0.9511  0.0335  0.2307
 9642TIP3    H150341   5.639   0.849  15.281  0.8686 -0.0604  0.3372
 9642TIP3    H250342   5.535   0.941  15.219  1.5727  0.2021 -0.4586
 9643TIP3   OH250343   4.576   1.867   4.932  0.1822  0.0144 -0.1946
 9643TIP3    H150344   4.562   1.824   4.847  0.5412 -0.8368  0.1586
 9643TIP3    H250345   4.497   1.848   4.982  1.0625 -1.8539  0.6002
 9644TIP3   OH250346   0.308   4.450   4.035 -0.3464  0.2403 -0.2324
 9644TIP3    H150347   0.401   4.464   4.052 -0.5902  1.1365  0.4131
 9644TIP3    H250348   0.303   4.439   3.940  0.2009  2.1182 -0.5184
 9645TIP3   OH250349   3.754   1.511  16.607  0.4684 -0.0418 -0.0060
 9645TIP3    H150350   3.763   1.597  16.649  0.0403  0.0484 -0.0887
 9645TIP3    H250351   3.697   1.527  16.532  1.6912 -0.0866 -0.9742
 9646TIP3   OH250352   4.734   4.364  11.044  0.0563  0.1042 -0.0387
 9646TIP3    H150353   4.775   4.362  11.130 -0.0299 -1.6381  0.0022
 9646TIP3    H250354   4.652   4.316  11.055  0.6314 -1.2714 -1.3422
 9647TIP3   OH250355   2.502   2.246   5.341 -0.2442 -0.0215 -0.0245
 9647TIP3    H150356   2.512   2.151   5.345  1.6631  0.1243 -0.5446
 9647TIP3    H250357   2.430   2.260   5.280 -1.6260 -1.1435  1.2775
 9648TIP3   OH250358   6.320   1.619   2.510 -0.4465  0.2574 -0.3620
 9648TIP3    H150359   6.349   1.702   2.546  0.2118  0.0648 -0.4482
 9648TIP3    H250360   6.250   1.642   2.449  0.4029  0.8455 -1.1347
 9649TIP3   OH250361   6.014   2.294   4.611  0.6347  0.0421  0.2637
 9649TIP3    H150362   6.063   2.238   4.671  1.5839  1.5513  0.9558
 9649TIP3    H250363   6.048   2.382   4.626  0.5108  0.5714 -2.0932
 9650TIP3   OH250364   4.157   4.458  10.943 -0.4101  0.4190  0.0596
 9650TIP3    H150365   4.107   4.514  10.884  0.1226 -1.4153 -2.3008
 9650TIP3    H250366   4.248   4.471  10.918 -0.0736  0.3810  1.2165
 9651TIP3   OH250367   0.220   4.323  12.939  0.0598  0.5200 -0.3165
 9651TIP3    H150368   0.219   4.303  12.846  1.5183  0.0334 -0.2684
 9651TIP3    H250369   0.236   4.238  12.981  1.1245  0.9742  0.2465
 9652TIP3   OH250370   6.752   3.988  13.652  0.4628  0.8961  0.0538
 9652TIP3    H150371   6.752   3.920  13.584  1.7792 -0.1254  1.0215
 9652TIP3    H250372   6.687   3.959  13.716  0.8987  0.6334  0.3803
 9653TIP3   OH250373   1.308   5.797  15.919 -0.1927  0.2125 -0.2429
 9653TIP3    H150374   1.235   5.813  15.979  0.3586  0.4319  0.3741
 9653TIP3    H250375   1.268   5.748  15.846 -0.8629 -0.0886  0.3108
 9654TIP3   OH250376   6.384   5.466   3.527 -0.8758  0.1964  0.3177
 9654TIP3    H150377   6.357   5.502   3.443  1.9724  1.7190 -0.0773
 9654TIP3    H250378   6.402   5.542   3.582  0.5395 -0.6667  1.1388
 9655TIP3   OH250379   5.507   6.814   3.110  0.2337  0.5299  0.2563
 9655TIP3    H150380   5.557   6.807   3.191  1.1762  0.2837 -0.3262
 9655TIP3    H250381   5.452   6.736   3.109  2.6185 -1.2974 -0.8609
 9656TIP3   OH250382   4.651   5.803  13.775  0.8176 -0.2615  0.1047
 9656TIP3    H150383   4.679   5.716  13.804  1.7972  0.4998  1.5331
 9656TIP3    H250384   4.617   5.845  13.854  0.7717  0.8143 -0.4677
 9657TIP3   OH250385   5.126   2.814   4.473  0.0566  0.2813  0.1411
 9657TIP3    H150386   5.103   2.816   4.380  0.0170  0.8352  0.1597
 9657TIP3    H250387   5.048   2.847   4.517 -0.1095 -0.4573  0.4128
 9658TIP3   OH250388   6.171   2.276  12.313  0.3307  0.0584  0.2032
 9658TIP3    H150389   6.150   2.230  12.394 -1.3197 -0.5399 -0.5079
 9658TIP3    H250390   6.213   2.209  12.258 -0.5921 -0.1720 -0.2366
 9659TIP3   OH250391   1.538   2.514   5.081 -0.5787 -0.1152 -0.7386
 9659TIP3    H150392   1.503   2.462   5.009 -2.0505 -2.1480  1.3307
 9659TIP3    H250393   1.498   2.600   5.069 -2.6989 -1.0971 -1.0204
 9660TIP3   OH250394   5.412   0.350   4.076 -0.3568 -0.1628 -0.0244
 9660TIP3    H150395   5.339   0.289   4.069 -0.3059 -0.5882  2.3696
 9660TIP3    H250396   5.377   0.425   4.124  0.9901 -0.8729  2.2160
 9661TIP3   OH250397   0.774   3.945  13.319  0.5281 -0.2934  0.5672
 9661TIP3    H150398   0.834   3.997  13.266  0.9309 -1.5725 -0.2955
 9661TIP3    H250399   0.826   3.918  13.395  0.5505 -0.0708  0.6302
 9662TIP3   OH250400   3.439   4.271   5.110  0.4240 -0.9648  0.3378
 9662TIP3    H150401   3.502   4.342   5.103  1.2273 -1.4125  2.3247
 9662TIP3    H250402   3.368   4.306   5.165 -1.9921  0.0708 -3.0896
 9663TIP3   OH250403   6.069   1.640   1.026  0.0572  0.4317  0.3803
 9663TIP3    H150404   5.986   1.593   1.015 -0.4337  0.7657  2.4018
 9663TIP3    H250405   6.046   1.721   1.071  1.1502  1.8491 -1.4423
 9664TIP3   OH250406   3.802   0.812  16.829 -0.1637 -0.7404 -0.4495
 9664TIP3    H150407   3.789   0.898  16.790 -1.2591 -0.0166  1.3474
 9664TIP3    H250408   3.868   0.769  16.774 -0.0857  0.9808 -1.7640
 9665TIP3   OH250409   1.747   3.868   2.898  0.6856  0.9092 -0.2809
 9665TIP3    H150410   1.770   3.946   2.948 -0.4051  1.5264 -0.7058
 9665TIP3    H250411   1.754   3.896   2.806 -0.0220  0.6049 -0.4329
 9666TIP3   OH250412   4.027   3.013   2.226 -0.0313 -0.0906  0.3289
 9666TIP3    H150413   4.076   3.066   2.162  0.9370 -0.3238  0.8515
 9666TIP3    H250414   3.962   3.073   2.262 -1.2432 -0.1971 -1.5212
 9667TIP3   OH250415   5.451   1.726  16.417 -0.7184  0.0568  0.0011
 9667TIP3    H150416   5.505   1.732  16.338 -1.4093 -0.7488 -0.5587
 9667TIP3    H250417   5.427   1.817  16.436  1.4630  0.5244  0.7482
 9668TIP3   OH250418   3.339   6.681   3.427 -0.2022  0.2824  0.5919
 9668TIP3    H150419   3.261   6.721   3.390  0.7140  0.7117 -0.9397
 9668TIP3    H250420   3.379   6.750   3.479 -0.3029  0.3638  0.5618
 9669TIP3   OH250421   6.739   3.560  16.895  0.1428 -0.0663 -0.2436
 9669TIP3    H150422   6.748   3.648  16.931 -1.2706 -0.7195  1.9239
 9669TIP3    H250423   6.825   3.519  16.910  0.5294  0.6372 -0.4752
 9670TIP3   OH250424   3.797   5.064  11.887 -0.5453 -0.2528 -0.0383
 9670TIP3    H150425   3.706   5.072  11.916 -0.4291 -0.5505  0.4246
 9670TIP3    H250426   3.849   5.090  11.963 -0.2350 -0.9375 -0.0058
 9671TIP3   OH250427   6.130   1.420   4.237  0.4715  0.0522  0.0468
 9671TIP3    H150428   6.112   1.447   4.327 -0.1842 -0.1166 -0.0273
 9671TIP3    H250429   6.071   1.346   4.222  1.4639 -0.7156 -0.1172
 9672TIP3   OH250430   6.611   5.404  15.955  0.2318 -0.5902 -0.0877
 9672TIP3    H150431   6.566   5.376  16.035 -0.9974 -0.2540 -0.6318
 9672TIP3    H250432   6.696   5.436  15.985 -0.3404 -0.1412  1.1296
 9673TIP3   OH250433   0.356   0.373  16.544  0.1519  0.3847  0.1469
 9673TIP3    H150434   0.285   0.396  16.483  0.6139 -0.7563 -0.8571
 9673TIP3    H250435   0.395   0.294  16.506  1.5652  0.6427  1.0228
 9674TIP3   OH250436   3.072   2.626  15.235 -0.2582  0.5971 -0.4313
 9674TIP3    H150437   3.079   2.664  15.147 -1.1459  1.3777 -0.1726
 9674TIP3    H250438   2.994   2.665  15.272 -0.3842 -0.3992  0.3940
 9675TIP3   OH250439   5.137   4.810  14.743 -0.1397  0.2698 -0.0934
 9675TIP3    H150440   5.152   4.807  14.837 -0.9668  0.8906  0.0714
 9675TIP3    H250441   5.197   4.745  14.706 -1.6110 -1.8557  1.0694
 9676TIP3   OH250442   0.081   1.638   3.297 -0.0820 -0.2455 -0.2330
 9676TIP3    H150443   0.005   1.696   3.306 -1.1360 -0.9724 -3.2554
 9676TIP3    H250444   0.134   1.656   3.375 -1.7706  2.6002  0.4054
 9677TIP3   OH250445   1.721   0.331  16.194  0.4786 -0.5449  0.0216
 9677TIP3    H150446   1.718   0.391  16.268  0.6362 -1.4678  0.7907
 9677TIP3    H250447   1.630   0.306  16.179  0.4483 -0.3677 -0.1013
 9678TIP3   OH250448   5.862   1.771  13.461 -0.3125 -0.0251  0.4086
 9678TIP3    H150449   5.819   1.857  13.458 -0.5882 -0.1204  1.2327
 9678TIP3    H250450   5.872   1.746  13.369  0.7432  1.3618  0.1117
 9679TIP3   OH250451   4.728   2.177   2.904 -0.0557  0.6196 -0.3481
 9679TIP3    H150452   4.694   2.193   2.816  0.3250  1.4181 -0.3626
 9679TIP3    H250453   4.651   2.184   2.960 -0.2726  0.2776 -0.6010
 9680TIP3   OH250454   1.449   6.329  11.618 -0.0315 -0.5286  0.1749
 9680TIP3    H150455   1.523   6.272  11.640  1.5337  0.6035 -1.7993
 9680TIP3    H250456   1.472   6.366  11.532 -2.8845 -0.0813 -0.4937
 9681TIP3   OH250457   2.558   5.326  14.220 -0.0332 -0.0014  0.0866
 9681TIP3    H150458   2.501   5.367  14.155 -0.4482 -0.0705  0.4054
 9681TIP3    H250459   2.601   5.399  14.264 -0.5075  0.0806  0.4153
 9682TIP3   OH250460   4.045   0.672   3.655 -0.3474 -0.0856  0.4872
 9682TIP3    H150461   4.099   0.642   3.728 -0.3145  0.7324  0.8078
 9682TIP3    H250462   4.101   0.733   3.607 -0.5900 -0.1260  0.1476
 9683TIP3   OH250463   5.345   3.175  12.653  0.2964  0.8884 -0.2638
 9683TIP3    H150464   5.264   3.219  12.626  0.5088  1.3501 -0.1572
 9683TIP3    H250465   5.385   3.146  12.571 -0.9996 -1.2063 -0.2146
 9684TIP3   OH250466   1.655   6.048  13.515  0.6689 -0.0222 -0.0394
 9684TIP3    H150467   1.642   5.961  13.553 -1.6987 -0.4108 -1.5403
 9684TIP3    H250468   1.681   6.103  13.589  0.2240 -1.5829  1.3315
 9685TIP3   OH250469   4.720   3.372  16.386 -0.7706  0.5766  0.3007
 9685TIP3    H150470   4.779   3.418  16.445  1.0461 -1.3808  0.1265
 9685TIP3    H250471   4.737   3.411  16.300 -0.4074  0.6897  0.4206
 9686TIP3   OH250472   2.454   1.789  13.580 -0.1628 -0.1443  0.0693
 9686TIP3    H150473   2.465   1.697  13.603 -0.7297  0.2403  2.1501
 9686TIP3    H250474   2.363   1.809  13.603  0.2450  1.1615  0.6828
 9687TIP3   OH250475   0.067   2.594  11.609 -0.1907  0.0520  0.1173
 9687TIP3    H150476   0.140   2.557  11.558 -1.3565  0.2372 -1.7785
 9687TIP3    H250477   0.044   2.674  11.563 -1.6158 -0.0233  0.6428
 9688TIP3   OH250478   2.769   5.874   0.171 -0.5539 -0.4239 -0.0241
 9688TIP3    H150479   2.689   5.863   0.222 -0.6425  0.7038  0.0962
 9688TIP3    H250480   2.738   5.895   0.083 -0.3993  0.9613  0.2418
 9689TIP3   OH250481   4.232   3.759   1.634 -0.3221 -0.1905 -0.2629
 9689TIP3    H150482   4.328   3.752   1.632 -0.1732 -0.0109  2.5526
 9689TIP3    H250483   4.215   3.849   1.605  0.5037  0.3047  0.7169
 9690TIP3   OH250484   5.599   4.621   0.083 -0.2978  0.0327 -0.4469
 9690TIP3    H150485   5.510   4.629   0.118 -0.9470  0.8055 -2.1673
 9690TIP3    H250486   5.590   4.562   0.008  1.0167 -1.3976  0.4621
 9691TIP3   OH250487   3.789   6.432   0.163  0.4184  0.0779 -0.2640
 9691TIP3    H150488   3.767   6.455   0.253  0.5248  0.8209 -0.4253
 9691TIP3    H250489   3.838   6.350   0.172 -0.0764 -0.1672  0.3030
 9692TIP3   OH250490   3.747   4.078   4.467  0.1670  0.0510  0.4335
 9692TIP3    H150491   3.832   4.088   4.510 -0.4078  0.0226  1.6152
 9692TIP3    H250492   3.717   4.167   4.451 -0.5895  0.1441  2.1240
 9693TIP3   OH250493   3.896   1.412   5.074  0.0960 -0.1519  0.7260
 9693TIP3    H150494   3.870   1.393   5.164  0.2757 -0.2426  0.7576
 9693TIP3    H250495   3.813   1.421   5.026  0.0048 -1.5270  0.5972
 9694TIP3   OH250496   4.587   1.680   4.297  0.1720 -0.4219 -0.0859
 9694TIP3    H150497   4.677   1.703   4.319  0.3535 -2.0474  1.0174
 9694TIP3    H250498   4.544   1.764   4.283  1.9037  0.3843 -0.8847
 9695TIP3   OH250499   3.976   5.993  15.555  0.0771 -0.2201  1.2924
 9695TIP3    H150500   3.986   5.945  15.473  0.1170 -0.3251  1.3578
 9695TIP3    H250501   3.999   6.083  15.533  0.1965 -0.2686  1.2127
 9696TIP3   OH250502   6.601   6.177  10.282 -0.9182  0.9047 -0.1326
 9696TIP3    H150503   6.658   6.113  10.324 -1.5504  1.2880  1.3364
 9696TIP3    H250504   6.661   6.242  10.245 -0.3528  1.9880  2.4865
 9697TIP3   OH250505   6.060   3.875  15.520  0.1927  0.0335  0.2756
 9697TIP3    H150506   6.072   3.839  15.433  0.3231 -1.9855  1.0881
 9697TIP3    H250507   5.966   3.878  15.533  0.1995 -1.3844  0.7297
 9698TIP3   OH250508   5.781   6.485   1.987 -0.3490  0.6827  0.1393
 9698TIP3    H150509   5.831   6.506   2.066 -0.8571  0.7013  0.4595
 9698TIP3    H250510   5.846   6.484   1.917 -0.1233  2.2864  0.2791
 9699TIP3   OH250511   2.990   2.296   1.776 -0.1574 -0.3855 -0.1843
 9699TIP3    H150512   2.920   2.243   1.737  1.2235 -3.2342  0.8852
 9699TIP3    H250513   3.070   2.247   1.757  1.3082  1.5691  0.5865
 9700TIP3   OH250514   5.492   0.175   5.096  0.2950  0.3932  0.4733
 9700TIP3    H150515   5.402   0.178   5.127 -0.3442 -0.3938 -1.1487
 9700TIP3    H250516   5.492   0.231   5.018  1.0016 -0.2234  0.0108
 9701TIP3   OH250517   2.084   1.951   3.996 -0.2378 -0.1408  0.3782
 9701TIP3    H150518   2.146   2.019   4.022  0.5944 -0.8292  0.2099
 9701TIP3    H250519   1.998   1.987   4.021  0.3747 -0.1769  2.8524
 9702TIP3   OH250520   4.188   2.861  15.074  0.2659  0.4474  0.5005
 9702TIP3    H150521   4.243   2.939  15.081 -0.6446  1.0651  1.0075
 9702TIP3    H250522   4.143   2.871  14.990  1.1692 -0.2361 -0.0821
 9703TIP3   OH250523   4.457   6.725   0.804  0.0110 -0.6224  0.4148
 9703TIP3    H150524   4.411   6.796   0.760 -0.3827 -0.9123  0.3538
 9703TIP3    H250525   4.473   6.661   0.735  0.6039 -0.4799  0.4113
 9704TIP3   OH250526   6.315   2.036  13.217  0.7497 -0.7032  0.1370
 9704TIP3    H150527   6.298   2.014  13.125  0.7426  0.0175 -0.0428
 9704TIP3    H250528   6.381   2.106  13.212 -0.3983  0.4481  0.6138
 9705TIP3   OH250529   3.832   5.207  13.058 -0.5388 -0.0002 -0.2357
 9705TIP3    H150530   3.787   5.212  13.142 -0.4786  0.6204 -0.2346
 9705TIP3    H250531   3.917   5.166  13.078 -0.7630 -0.4047 -0.1006
 9706TIP3   OH250532   0.422   4.511   0.945  0.5845  0.6728 -0.6268
 9706TIP3    H150533   0.389   4.456   1.016  1.2210  0.3297 -0.5882
 9706TIP3    H250534   0.412   4.601   0.977  0.4141  0.5365 -0.3015
 9707TIP3   OH250535   4.174   4.541   4.371  0.2228 -0.0224  0.3142
 9707TIP3    H150536   4.080   4.527   4.362  0.1029  0.1605  1.1341
 9707TIP3    H250537   4.213   4.454   4.360  0.0472  0.0477 -0.9454
 9708TIP3   OH250538   6.805   2.044   6.189  0.0415 -0.4692 -0.3059
 9708TIP3    H150539   6.790   1.992   6.111  0.2550  0.3575 -0.9112
 9708TIP3    H250540   6.887   2.090   6.172 -0.0610 -0.0564  0.2824
 9709TIP3   OH250541   6.745   6.362   3.041  0.0803  0.2889 -0.0162
 9709TIP3    H150542   6.823   6.413   3.062  0.2984  0.6471 -1.5588
 9709TIP3    H250543   6.769   6.272   3.064  0.5591  0.5405  0.5056
 9710TIP3   OH250544   4.194   6.216   5.888 -0.1357  0.3476  0.6803
 9710TIP3    H150545   4.192   6.305   5.924  1.0745  0.5822  0.2178
 9710TIP3    H250546   4.286   6.202   5.865 -0.2073 -1.2622  1.3089
 9711TIP3   OH250547   4.973   1.909   0.608 -0.1983  0.2442  0.8969
 9711TIP3    H150548   5.001   1.879   0.522  1.5476 -0.5632  1.7071
 9711TIP3    H250549   4.885   1.945   0.593  0.6258  1.5088 -1.4931
 9712TIP3   OH250550   0.681   1.987   0.584 -0.2100  0.2936 -0.2594
 9712TIP3    H150551   0.585   1.979   0.582 -0.2026 -0.7024  1.1695
 9712TIP3    H250552   0.699   2.072   0.545 -1.6126  0.1392 -1.3473
 9713TIP3   OH250553   2.517   2.726  14.315 -0.1964  0.7840  0.3644
 9713TIP3    H150554   2.576   2.794  14.281  0.8535  0.5744  1.6836
 9713TIP3    H250555   2.540   2.647  14.265  1.7099  0.3433  1.7946
 9714TIP3   OH250556   5.056   0.675  13.811 -0.1636 -0.2919 -0.0598
 9714TIP3    H150557   5.119   0.608  13.837  0.7613  0.0547 -1.2931
 9714TIP3    H250558   5.102   0.758  13.825 -0.9809  0.0624  0.6346
 9715TIP3   OH250559   5.632   4.529   0.452  0.1366 -0.0876  0.1507
 9715TIP3    H150560   5.695   4.488   0.392 -0.3738 -1.7227  0.6747
 9715TIP3    H250561   5.675   4.609   0.482  0.4914  0.6984 -2.2219
 9716TIP3   OH250562   3.579   5.044  12.961 -0.0898  0.1290  0.0753
 9716TIP3    H150563   3.585   4.983  12.887 -1.9589 -0.5100  0.4188
 9716TIP3    H250564   3.665   5.086  12.963  0.9052 -1.7278 -0.8266
 9717TIP3   OH250565   5.080   3.545   4.084 -0.0366  0.4142  0.5180
 9717TIP3    H150566   5.037   3.595   4.154  0.9241 -0.7134  1.9555
 9717TIP3    H250567   5.068   3.454   4.109  2.8926  0.0324  0.8295
 9718TIP3   OH250568   6.073   2.537  14.959 -0.4085 -0.1104  0.1028
 9718TIP3    H150569   6.071   2.514  15.051  1.7868  2.1271  0.8295
 9718TIP3    H250570   6.012   2.611  14.951 -0.8897 -0.5453 -0.3455
 9719TIP3   OH250571   5.913   3.217  14.577 -0.4068 -0.2558 -0.1941
 9719TIP3    H150572   5.859   3.290  14.546 -0.6604 -0.4537 -0.2260
 9719TIP3    H250573   5.892   3.145  14.518  1.4708  0.2420 -1.5259
 9720TIP3   OH250574   4.117   3.792   2.122  0.4448 -0.2277 -0.0818
 9720TIP3    H150575   4.151   3.837   2.199 -0.8351 -1.5682  1.3423
 9720TIP3    H250576   4.040   3.842   2.096  0.8647  0.2131 -0.4888
 9721TIP3   OH250577   2.194   1.747   6.119 -0.0950  0.6730  0.1345
 9721TIP3    H150578   2.224   1.820   6.174  0.7985  0.8326 -0.5416
 9721TIP3    H250579   2.136   1.696   6.177  1.5437  0.3139  1.5500
 9722TIP3   OH250580   2.496   0.656   2.299  0.3827 -0.9559  0.2507
 9722TIP3    H150581   2.409   0.639   2.262  1.3886 -2.6997 -1.4728
 9722TIP3    H250582   2.516   0.746   2.272  0.4556 -1.6702 -2.3550
 9723TIP3   OH250583   0.702   5.190   1.590  0.4667 -0.4399 -0.2417
 9723TIP3    H150584   0.716   5.139   1.670  1.7877  0.1157 -0.0977
 9723TIP3    H250585   0.774   5.253   1.589 -0.4726  0.6586 -1.0165
 9724TIP3   OH250586   1.182   6.795   4.942  0.2909 -0.0216  0.4616
 9724TIP3    H150587   1.116   6.802   5.010  0.5629 -0.8903  0.8341
 9724TIP3    H250588   1.141   6.834   4.865 -0.7812 -0.8235  0.5972
 9725TIP3   OH250589   4.722   6.755  14.378  0.2107  0.6524  0.0177
 9725TIP3    H150590   4.713   6.675  14.326  2.0810 -0.3540  1.1568
 9725TIP3    H250591   4.667   6.739  14.455  2.0495 -0.3937  1.1653
 9726TIP3   OH250592   6.495   6.552  11.078 -0.8864 -0.0973 -0.0492
 9726TIP3    H150593   6.583   6.586  11.091 -0.2229 -1.1262 -1.5922
 9726TIP3    H250594   6.464   6.529  11.166  0.6033 -0.2668  0.4450
 9727TIP3   OH250595   2.725   3.357   3.653 -1.2616  0.0555 -0.1321
 9727TIP3    H150596   2.693   3.442   3.682 -2.4807 -0.4892  0.1872
 9727TIP3    H250597   2.821   3.365   3.655 -1.3531  1.5177 -0.4609
 9728TIP3   OH250598   3.397   0.726  11.555  0.1729  0.3984 -0.7455
 9728TIP3    H150599   3.459   0.654  11.568  1.0784  1.0525 -1.2701
 9728TIP3    H250600   3.323   0.705  11.611  0.8736 -0.4139 -0.1029
 9729TIP3   OH250601   4.474   6.245   2.502  0.2845 -0.0151  0.0947
 9729TIP3    H150602   4.397   6.218   2.452  0.2680 -0.0939  0.1644
 9729TIP3    H250603   4.464   6.340   2.512 -2.1014 -0.4763  3.9603
 9730TIP3   OH250604   5.468   5.551  11.649 -0.0312  0.0273 -0.3235
 9730TIP3    H150605   5.404   5.486  11.619 -1.3287  0.1313  2.0139
 9730TIP3    H250606   5.471   5.539  11.744  1.4039  1.8836 -0.0884
 9731TIP3   OH250607   2.294   4.395   1.372  0.0185  0.0332  0.5090
 9731TIP3    H150608   2.266   4.399   1.463  0.1832 -0.8495  0.6016
 9731TIP3    H250609   2.248   4.320   1.335  0.1374  0.2379 -0.0736
 9732TIP3   OH250610   4.734   4.253  10.566 -0.0602 -0.0904 -0.6118
 9732TIP3    H150611   4.639   4.256  10.564 -0.1178  0.0332  1.0380
 9732TIP3    H250612   4.762   4.326  10.511 -0.9360  0.7221 -0.0076
 9733TIP3   OH250613   1.421   2.073  16.648  0.4179 -0.5851 -0.2735
 9733TIP3    H150614   1.457   1.986  16.660  0.2727 -0.4504  1.2316
 9733TIP3    H250615   1.331   2.058  16.620 -0.1827 -0.9660  1.7123
 9734TIP3   OH250616   3.198   2.239  12.195 -0.5789 -0.0743 -0.0938
 9734TIP3    H150617   3.255   2.170  12.160  0.2232  0.5864 -0.1114
 9734TIP3    H250618   3.110   2.213  12.169 -0.2670 -1.0115 -0.2337
 9735TIP3   OH250619   1.840   2.992  12.391  0.3067 -0.5961  0.8226
 9735TIP3    H150620   1.756   3.036  12.402  0.0915 -0.7881  0.0140
 9735TIP3    H250621   1.888   3.009  12.473  0.1848  1.0252  0.5770
 9736TIP3   OH250622   0.387   2.480   5.105 -0.3687 -0.5716 -0.0365
 9736TIP3    H150623   0.328   2.463   5.032 -0.3175  0.4054 -0.3289
 9736TIP3    H250624   0.354   2.561   5.144  0.0511 -0.6789  0.5588
 9737TIP3   OH250625   1.490   1.676   1.442 -0.5009  0.0658 -0.2610
 9737TIP3    H150626   1.473   1.717   1.357 -0.8292 -1.9780 -1.2437
 9737TIP3    H250627   1.429   1.718   1.502 -3.9029 -1.7835 -2.1079
 9738TIP3   OH250628   4.503   6.349  16.145  0.0403  0.9434 -0.0817
 9738TIP3    H150629   4.509   6.444  16.156  1.4465  1.1132 -1.7398
 9738TIP3    H250630   4.418   6.335  16.104  0.1040  1.5704 -0.4450
 9739TIP3   OH250631   1.731   4.153  15.749  0.4943  0.0986 -0.2160
 9739TIP3    H150632   1.651   4.167  15.799  0.5629  2.7424 -0.6945
 9739TIP3    H250633   1.752   4.239  15.712  2.3635 -0.9917 -1.9130
 9740TIP3   OH250634   6.285   0.962  12.693 -0.2980  0.8546  0.1555
 9740TIP3    H150635   6.355   0.950  12.629 -1.0920 -1.5273 -0.3649
 9740TIP3    H250636   6.242   1.044  12.667 -1.5531 -0.7723 -3.3874
 9741TIP3   OH250637   3.775   5.296   2.564 -0.4435 -0.2970 -0.0144
 9741TIP3    H150638   3.781   5.200   2.558  1.9390 -0.2026 -0.3876
 9741TIP3    H250639   3.757   5.324   2.474 -1.8998 -0.3956  0.2268
 9742TIP3   OH250640   1.308   6.334  11.886  0.6683 -0.0756 -0.2924
 9742TIP3    H150641   1.233   6.301  11.838  0.4159  1.2950 -0.8930
 9742TIP3    H250642   1.347   6.400  11.827  1.5199  0.2195  0.5724
 9743TIP3   OH250643   3.269   1.752   2.132 -0.4568  0.5239  0.1786
 9743TIP3    H150644   3.189   1.793   2.164 -1.9959 -0.1809 -2.5461
 9743TIP3    H250645   3.241   1.693   2.062  2.5605  1.3934 -1.9807
 9744TIP3   OH250646   3.968   0.682   0.464 -0.2244 -0.2243  0.4360
 9744TIP3    H150647   3.946   0.611   0.404  1.1826 -1.2747  1.1092
 9744TIP3    H250648   3.978   0.759   0.408  0.1097 -0.9660 -0.5499
 9745TIP3   OH250649   3.358   2.593  11.564  0.1110  0.1512 -0.0646
 9745TIP3    H150650   3.304   2.668  11.540  1.2367  0.9403 -0.2226
 9745TIP3    H250651   3.428   2.631  11.618  0.6703 -0.7913 -0.1144
 9746TIP3   OH250652   1.137   0.654   2.035 -0.0926 -0.3524  0.7217
 9746TIP3    H150653   1.047   0.635   2.064  0.4462 -0.5424  2.3562
 9746TIP3    H250654   1.178   0.697   2.110  1.6269 -1.6042  0.5583
 9747TIP3   OH250655   1.484   6.778   3.379 -0.1457 -0.3148 -0.5091
 9747TIP3    H150656   1.415   6.727   3.422  1.1902 -0.0329  2.1860
 9747TIP3    H250657   1.440   6.857   3.348 -0.9818  0.1837  1.7836
 9748TIP3   OH250658   3.300   4.923  16.838 -0.6776 -0.0479 -1.2447
 9748TIP3    H150659   3.303   5.013  16.805 -1.1155  0.3908 -0.1293
 9748TIP3    H250660   3.366   4.920  16.906  0.6284 -1.1175 -2.5113
 9749TIP3   OH250661   5.389   4.183   5.764  0.0336  0.0150 -0.3457
 9749TIP3    H150662   5.389   4.128   5.685  2.6105 -0.8656  0.1565
 9749TIP3    H250663   5.403   4.272   5.731 -0.5819 -0.1102 -0.9671
 9750TIP3   OH250664   2.366   5.678  16.127  0.2927 -0.5330  0.0207
 9750TIP3    H150665   2.437   5.653  16.186  2.4103 -0.8449 -2.4497
 9750TIP3    H250666   2.407   5.739  16.065 -2.2764  1.2836 -0.0610
 9751TIP3   OH250667   3.057   4.802   3.370 -0.2589 -0.0942 -0.1516
 9751TIP3    H150668   3.071   4.728   3.310  1.3449 -1.2094  1.4709
 9751TIP3    H250669   3.080   4.767   3.456 -0.6518  1.9733  0.8478
 9752TIP3   OH250670   2.172   6.695   3.713 -0.0071 -0.2193  0.2959
 9752TIP3    H150671   2.262   6.695   3.746 -0.5346 -1.4471  1.8414
 9752TIP3    H250672   2.172   6.762   3.644  2.1426 -0.3760  0.0737
 9753TIP3   OH250673   4.670   3.974   0.782  0.3225 -0.0912 -0.5830
 9753TIP3    H150674   4.618   3.972   0.702 -0.5811 -0.6530 -0.0014
 9753TIP3    H250675   4.608   3.995   0.851  1.3330  1.7946 -0.1875
 9754TIP3   OH250676   1.445   0.069  10.604 -0.4874  0.0223 -0.0734
 9754TIP3    H150677   1.537   0.046  10.620  0.3649  2.3333 -1.1806
 9754TIP3    H250678   1.429   0.144  10.661 -0.4773  1.9795 -2.4855
 9755TIP3   OH250679   6.479   2.669  10.387  0.1920 -0.2207 -0.1738
 9755TIP3    H150680   6.545   2.643  10.323  1.4173  0.5957  0.7049
 9755TIP3    H250681   6.482   2.765  10.388 -0.5719 -0.1872  0.3265
 9756TIP3   OH250682   6.511   6.021  15.140  0.0443  0.2121  0.5164
 9756TIP3    H150683   6.482   5.961  15.071 -0.8283  0.6480  0.4953
 9756TIP3    H250684   6.453   6.097  15.132  0.4568  0.6092  1.2185
 9757TIP3   OH250685   2.980   2.824  15.895 -0.4330 -0.1249 -0.0668
 9757TIP3    H150686   3.001   2.803  15.804 -2.3928 -1.9088 -0.1800
 9757TIP3    H250687   2.972   2.919  15.897 -1.2823 -0.1129 -1.9983
 9758TIP3   OH250688   4.814   3.077  16.316  1.0250  0.1997  0.3186
 9758TIP3    H150689   4.788   3.168  16.327  1.8572  0.2886  1.7150
 9758TIP3    H250690   4.818   3.065  16.221 -1.4672  0.8982  0.0424
 9759TIP3   OH250691   1.987   0.152   5.620  0.6245 -0.0596  0.1556
 9759TIP3    H150692   2.007   0.060   5.604  1.5378 -0.4641  3.1458
 9759TIP3    H250693   1.901   0.165   5.579 -0.6864 -2.9459  1.7002
 9760TIP3   OH250694   2.694   0.331   3.716  0.5505 -0.2194 -0.1465
 9760TIP3    H150695   2.682   0.370   3.630  1.6292 -0.1790 -0.2912
 9760TIP3    H250696   2.788   0.320   3.724  0.4641 -0.1618  1.0628
 9761TIP3   OH250697   3.104   2.355  12.866 -0.2059 -0.1250 -0.0961
 9761TIP3    H150698   3.117   2.448  12.884 -0.2594 -0.1867  0.2549
 9761TIP3    H250699   3.122   2.311  12.949  0.6605 -0.5078 -0.4731
 9762TIP3   OH250700   3.822   5.558  15.387 -0.6075 -0.1858  0.0509
 9762TIP3    H150701   3.783   5.563  15.474  0.2961 -0.8571  0.5105
 9762TIP3    H250702   3.904   5.607  15.394 -0.5854 -0.1419 -0.4543
 9763TIP3   OH250703   1.257   3.683  15.418  0.2293 -0.2324 -0.5102
 9763TIP3    H150704   1.273   3.766  15.464 -0.0403 -0.4144 -0.0779
 9763TIP3    H250705   1.260   3.706  15.325  1.4949  0.0076 -0.4229
 9764TIP3   OH250706   4.966   5.892  15.050  0.0367 -0.3167  0.1464
 9764TIP3    H150707   5.026   5.907  14.977  0.7811 -0.0940  0.7882
 9764TIP3    H250708   4.961   5.977  15.094 -1.8004  0.0335 -0.6384
 9765TIP3   OH250709   1.351   3.834  15.690 -0.1935 -0.3482 -0.2444
 9765TIP3    H150710   1.395   3.885  15.622  0.0589  1.1412  0.9866
 9765TIP3    H250711   1.258   3.843  15.671 -0.1095 -0.3787 -0.6787
 9766TIP3   OH250712   1.330   2.647   2.605  0.0507 -0.0632 -0.3603
 9766TIP3    H150713   1.305   2.723   2.658 -0.7658 -0.9816  0.6442
 9766TIP3    H250714   1.252   2.591   2.606  0.8160 -1.1650 -0.5997
 9767TIP3   OH250715   0.169   0.997   5.619  0.3302 -0.0522 -0.4778
 9767TIP3    H150716   0.265   1.005   5.624  0.3731  0.7998 -1.8298
 9767TIP3    H250717   0.141   1.081   5.583 -1.1539  0.4964  1.7706
 9768TIP3   OH250718   5.828   4.379   5.347 -0.3594  0.0501  0.5454
 9768TIP3    H150719   5.825   4.469   5.381  0.8831  1.0684 -1.7459
 9768TIP3    H250720   5.914   4.347   5.372  0.5934  0.8335 -1.4606
 9769TIP3   OH250721   4.802   0.187  15.005  0.8225  0.0741  0.2076
 9769TIP3    H150722   4.755   0.256  14.959  0.4658 -0.4498 -0.2300
 9769TIP3    H250723   4.746   0.167  15.081  0.5812 -0.1956 -0.0357
 9770TIP3   OH250724   2.939   2.960   4.923 -0.0374 -0.1324  0.4470
 9770TIP3    H150725   2.846   2.971   4.908 -0.0770 -2.3976 -1.4182
 9770TIP3    H250726   2.976   3.048   4.913 -1.3528  0.1441 -4.1165
 9771TIP3   OH250727   5.544   5.228   3.184 -0.2450  0.1180  0.6471
 9771TIP3    H150728   5.513   5.309   3.225  0.2736  0.5308  0.2453
 9771TIP3    H250729   5.466   5.192   3.141 -0.5044  0.3445  0.9170
 9772TIP3   OH250730   0.358   4.994   5.069  0.3724 -0.5594 -0.3085
 9772TIP3    H150731   0.319   5.076   5.038  1.1017 -0.6559 -1.5291
 9772TIP3    H250732   0.426   5.022   5.130  0.8874 -0.2314 -1.0247
 9773TIP3   OH250733   2.190   3.331   2.149  0.1905 -0.0431  0.1284
 9773TIP3    H150734   2.101   3.366   2.156  0.8781  1.7874  0.1365
 9773TIP3    H250735   2.183   3.260   2.085 -1.1912  0.3447 -0.1776
 9774TIP3   OH250736   5.983   2.653   6.268  0.0831 -0.0400 -0.0044
 9774TIP3    H150737   6.037   2.711   6.322  0.5495 -0.4457 -0.0273
 9774TIP3    H250738   5.895   2.690   6.275  0.0056 -0.4381  1.5449
 9775TIP3   OH250739   3.945   6.705   2.934  0.0848  0.2990 -0.0355
 9775TIP3    H150740   3.916   6.788   2.895  0.6646  0.3653 -0.3246
 9775TIP3    H250741   3.864   6.666   2.968 -0.2684  0.7412 -0.3523
 9776TIP3   OH250742   1.388   3.133  15.873  0.1261  0.4026  0.6415
 9776TIP3    H150743   1.332   3.177  15.937 -1.3975  1.0121 -1.0143
 9776TIP3    H250744   1.327   3.088  15.815  1.3754  0.7968 -1.0423
 9777TIP3   OH250745   3.559   5.109   1.718 -0.3033 -0.0237  0.5187
 9777TIP3    H150746   3.593   5.173   1.780  1.5272 -1.3318  0.9628
 9777TIP3    H250747   3.488   5.065   1.765 -0.2211  0.3008  0.9475
 9778TIP3   OH250748   3.941   4.921  10.963  0.0631  0.5514 -0.0593
 9778TIP3    H150749   3.954   4.893  11.054  1.6928  0.0850 -0.3927
 9778TIP3    H250750   3.915   4.842  10.916 -1.4119  0.9210  0.0862
 9779TIP3   OH250751   3.632   0.363   0.284  0.1594 -0.6016  0.8348
 9779TIP3    H150752   3.622   0.374   0.189  0.1757 -1.6245  0.7112
 9779TIP3    H250753   3.565   0.420   0.321  0.4765  0.1954  0.2325
 9780TIP3   OH250754   4.734   1.999   4.539  0.0679  0.1376 -0.4102
 9780TIP3    H150755   4.735   2.081   4.489  2.3154 -0.9829 -2.4197
 9780TIP3    H250756   4.787   2.017   4.617  0.6992  0.5647 -0.9288
 9781TIP3   OH250757   5.361   1.947   4.190  0.1285  0.1133 -0.4385
 9781TIP3    H150758   5.368   1.930   4.096 -1.3460 -2.4473 -0.2096
 9781TIP3    H250759   5.424   1.887   4.230  1.0404  1.4760  0.2232
 9782TIP3   OH250760   4.885   6.404  14.912  0.1682  0.7532  0.1683
 9782TIP3    H150761   4.796   6.384  14.881  0.0618  2.2062 -0.5748
 9782TIP3    H250762   4.886   6.373  15.003 -0.0719 -2.0833 -0.6835
 9783TIP3   OH250763   0.610   2.292   3.617 -0.0274  0.3213 -0.0754
 9783TIP3    H150764   0.576   2.379   3.595  0.9917  1.3763  2.1943
 9783TIP3    H250765   0.689   2.282   3.563  1.1381  1.8485  1.2491
 9784TIP3   OH250766   5.678   5.950  14.063  0.2132  0.0634 -0.1491
 9784TIP3    H150767   5.634   5.943  14.148  0.5301  0.0267  0.0177
 9784TIP3    H250768   5.665   5.865  14.022 -1.4208  0.6415 -0.8884
 9785TIP3   OH250769   5.062   6.005   4.279 -0.1380 -0.1648 -0.5812
 9785TIP3    H150770   5.103   5.977   4.360 -1.6686 -2.6336 -0.5596
 9785TIP3    H250771   4.968   6.009   4.300 -0.7219 -2.1371 -2.4891
 9786TIP3   OH250772   3.284   0.149   2.388 -0.4925  0.0403 -0.2314
 9786TIP3    H150773   3.216   0.211   2.414  0.6742  1.1868  0.1941
 9786TIP3    H250774   3.323   0.189   2.310 -0.2097 -0.5408 -0.3905
 9787TIP3   OH250775   0.765   1.079  13.613 -0.7461  0.2979  0.3583
 9787TIP3    H150776   0.673   1.104  13.612 -0.8053  0.0756  0.1670
 9787TIP3    H250777   0.765   0.984  13.607 -0.5437  0.1700  1.9202
 9788TIP3   OH250778   5.031   5.665   5.312 -0.3044  0.1245 -0.4737
 9788TIP3    H150779   4.973   5.652   5.387  1.2821 -1.0264  0.6102
 9788TIP3    H250780   5.095   5.730   5.342  0.4723 -0.5086 -0.7339
 9789TIP3   OH250781   2.045   2.155  12.769  0.1806  0.5117 -0.0820
 9789TIP3    H150782   2.025   2.172  12.677  2.0483  0.4402 -0.5400
 9789TIP3    H250783   1.989   2.216  12.818 -1.2370  0.1697 -1.2184
 9790TIP3   OH250784   0.496   1.072  13.646 -0.1347 -0.0451 -0.3342
 9790TIP3    H150785   0.464   0.992  13.689 -1.0236  0.6785  0.3920
 9790TIP3    H250786   0.417   1.125  13.632  0.6852  1.8671  1.6430
 9791TIP3   OH250787   6.493   4.439  11.275  0.1813 -0.6104 -0.2164
 9791TIP3    H150788   6.445   4.512  11.313 -0.2233 -1.3549  0.7581
 9791TIP3    H250789   6.576   4.477  11.246  0.3547  0.0708  1.1067
 9792TIP3   OH250790   0.997   3.081  16.388  0.2609  0.7325 -0.5161
 9792TIP3    H150791   1.011   3.032  16.469  1.1018  1.4650 -0.2005
 9792TIP3    H250792   0.996   3.014  16.319 -0.7016  0.0777  0.1054
 9793TIP3   OH250793   4.592   4.589  12.751 -0.3523 -0.0165  0.3239
 9793TIP3    H150794   4.660   4.522  12.743  0.7689  1.2903 -2.3748
 9793TIP3    H250795   4.586   4.606  12.845  1.8332 -1.3997  0.7837
 9794TIP3   OH250796   1.011   2.883   1.187 -0.8607  0.4664 -0.2727
 9794TIP3    H150797   1.023   2.976   1.166 -1.9448  0.6220 -0.3114
 9794TIP3    H250798   1.075   2.837   1.133 -0.3243  1.1969 -0.2642
 9795TIP3   OH250799   0.656   2.649   1.146 -0.2890 -0.8105  0.3939
 9795TIP3    H150800   0.702   2.585   1.091 -0.9724 -0.7483 -0.2684
 9795TIP3    H250801   0.651   2.607   1.232  1.5159 -0.5699  0.6547
 9796TIP3   OH250802   5.014   4.521   4.344  0.4522  0.3125  0.6909
 9796TIP3    H150803   4.950   4.591   4.331 -2.3464 -2.1425 -0.0533
 9796TIP3    H250804   4.966   4.455   4.396  3.0783 -0.8735  1.7813
 9797TIP3   OH250805   6.744   1.435   2.106  0.0247  0.3927 -0.6136
 9797TIP3    H150806   6.816   1.372   2.113 -0.0992  0.4501  2.3596
 9797TIP3    H250807   6.675   1.400   2.163 -1.2599  1.6990 -1.2909
 9798TIP3   OH250808   0.202   3.965   0.708  0.1172  0.5059  0.9247
 9798TIP3    H150809   0.153   3.910   0.647  0.5594  2.2300 -1.0737
 9798TIP3    H250810   0.148   3.968   0.787 -0.3593 -1.9856  0.7779
 9799TIP3   OH250811   0.660   4.070   1.401 -0.0902 -0.2203  0.3225
 9799TIP3    H150812   0.576   4.089   1.443 -0.3251 -1.3691  0.4001
 9799TIP3    H250813   0.723   4.068   1.473 -0.1580 -0.2491  0.3816
 9800TIP3   OH250814   5.172   5.262   1.419  0.1824  0.2324  0.8415
 9800TIP3    H150815   5.119   5.327   1.466 -0.5613 -0.1560  0.5353
 9800TIP3    H250816   5.214   5.312   1.349 -1.3876  0.1689 -0.1931
 9801TIP3   OH250817   5.573   3.180   4.895 -0.5048  0.0856  0.1972
 9801TIP3    H150818   5.545   3.088   4.900  0.5208 -0.8264 -5.2598
 9801TIP3    H250819   5.663   3.179   4.928 -0.1630 -1.1336 -0.7051
 9802TIP3   OH250820   0.086   3.098   3.355 -0.0398 -0.0349  0.3163
 9802TIP3    H150821   0.130   3.135   3.279 -0.1552  2.5313  1.4186
 9802TIP3    H250822   0.115   3.007   3.357  2.4658  0.6498 -0.9813
 9803TIP3   OH250823   6.353   5.106  16.382  0.3122  0.1047 -0.3330
 9803TIP3    H150824   6.271   5.123  16.336 -0.5049 -2.8867 -0.1921
 9803TIP3    H250825   6.412   5.072  16.315 -0.1527 -2.1496  0.3221
 9804TIP3   OH250826   4.148   1.017   2.489 -0.1881 -0.0526 -0.4640
 9804TIP3    H150827   4.219   0.982   2.437  0.3734  0.2963  0.0435
 9804TIP3    H250828   4.123   1.098   2.445 -1.3336 -0.9395 -1.5082
 9805TIP3   OH250829   4.373   6.201   3.360  0.2040 -0.2312  0.5337
 9805TIP3    H150830   4.449   6.259   3.362 -0.4850  0.9035 -1.7571
 9805TIP3    H250831   4.392   6.140   3.289 -0.2100 -1.1650  1.2167
 9806TIP3   OH250832   3.428   1.874  15.059 -0.4369  0.0719 -0.0315
 9806TIP3    H150833   3.395   1.841  15.142 -0.1630 -1.5521 -0.5453
 9806TIP3    H250834   3.470   1.799  15.017 -1.0040  0.7160 -1.8767
 9807TIP3   OH250835   1.605   5.079  16.796  0.2682 -0.1472 -0.6539
 9807TIP3    H150836   1.624   5.085  16.890  0.2294 -1.1327 -0.5801
 9807TIP3    H250837   1.679   5.123  16.754  0.3182  0.2430 -0.1727
 9808TIP3   OH250838   0.907   6.662   4.036  0.7273  1.1204 -0.6494
 9808TIP3    H150839   0.848   6.593   4.066  0.2141  0.9149 -2.0474
 9808TIP3    H250840   0.985   6.653   4.091  0.0428  0.4543  0.2376
 9809TIP3   OH250841   1.359   5.570  11.294  0.2238 -0.4262 -0.4459
 9809TIP3    H150842   1.339   5.566  11.387 -1.2738 -0.9161 -0.7638
 9809TIP3    H250843   1.311   5.496  11.256  2.6281 -1.6281 -1.3102
 9810TIP3   OH250844   2.980   1.166  12.722  0.0263  0.1679  0.7105
 9810TIP3    H150845   2.921   1.099  12.688 -0.1734 -1.3270  3.7539
 9810TIP3    H250846   3.067   1.137  12.693 -0.3133  0.3223 -0.5574
 9811TIP3   OH250847   6.722   3.159  12.518 -0.3832  0.1950  0.0007
 9811TIP3    H150848   6.649   3.099  12.501  0.4613 -1.3265  1.4280
 9811TIP3    H250849   6.681   3.235  12.561 -1.1151 -0.7443  1.0133
 9812TIP3   OH250850   5.143   4.870   2.999  0.3598 -0.7042  0.4513
 9812TIP3    H150851   5.080   4.855   2.928 -0.0337  0.5980  0.4940
 9812TIP3    H250852   5.228   4.852   2.960  0.0503 -1.3421  0.0516
 9813TIP3   OH250853   4.044   1.168   3.044 -0.9012  0.1525 -0.8220
 9813TIP3    H150854   3.982   1.239   3.061 -0.9712  0.0536 -0.6640
 9813TIP3    H250855   4.018   1.133   2.959 -1.2919 -0.1269 -0.5933
 9814TIP3   OH250856   2.277   6.107  10.820  0.4483 -0.0237 -0.0802
 9814TIP3    H150857   2.315   6.191  10.792  0.0476  0.3404  0.4469
 9814TIP3    H250858   2.351   6.048  10.827  0.9145  0.6446  0.8379
 9815TIP3   OH250859   3.793   2.370   5.473  0.1676 -0.4486 -0.4992
 9815TIP3    H150860   3.752   2.294   5.514 -0.0545  0.9255  2.0711
 9815TIP3    H250861   3.728   2.440   5.483  1.5359  0.8046  0.0610
 9816TIP3   OH250862   6.382   6.111  15.407 -0.3084 -0.1168 -0.0023
 9816TIP3    H150863   6.316   6.042  15.399 -0.5733  0.2266 -0.8072
 9816TIP3    H250864   6.460   6.074  15.366 -0.3334 -0.0870 -0.0759
 9817TIP3   OH250865   6.118   6.669   6.485  0.0401  0.0392  0.0111
 9817TIP3    H150866   6.077   6.650   6.569 -0.7260 -0.4218 -0.4616
 9817TIP3    H250867   6.172   6.593   6.467  0.3140  0.1995  0.1487
 9818TIP3   OH250868   3.067   4.530   6.537  0.0818 -0.0352  0.0664
 9818TIP3    H150869   3.007   4.462   6.568  2.4758 -2.8628 -1.0493
 9818TIP3    H250870   3.132   4.538   6.607 -0.0870  1.0652  0.1178
 9819TIP3   OH250871   2.489   0.325   5.397  0.7063 -0.1203  0.0366
 9819TIP3    H150872   2.405   0.291   5.429  0.5848  0.1892  0.0531
 9819TIP3    H250873   2.476   0.338   5.303  0.5055  0.5865  0.1568
 9820TIP3   OH250874   0.050   2.337  12.379  0.4686  0.5545 -0.0417
 9820TIP3    H150875   0.003   2.418  12.398  0.5765  1.0971 -1.8706
 9820TIP3    H250876   0.140   2.364  12.363  0.9287 -0.1903  1.1258
 9821TIP3   OH250877   2.963   4.591   1.305 -0.2622 -0.1743  0.3945
 9821TIP3    H150878   2.978   4.506   1.263  0.3063  0.2155 -0.1972
 9821TIP3    H250879   2.989   4.655   1.240 -2.3769  0.5185  0.1517
 9822TIP3   OH250880   3.792   3.762   4.003  0.7413 -0.0678 -0.4911
 9822TIP3    H150881   3.816   3.677   4.039  2.1705  0.6057  0.2352
 9822TIP3    H250882   3.763   3.814   4.078 -0.2316  0.0708 -0.9414
 9823TIP3   OH250883   5.744   4.357   2.223  0.8251 -0.1099 -0.3724
 9823TIP3    H150884   5.706   4.442   2.197  0.2617 -0.3650 -0.4129
 9823TIP3    H250885   5.815   4.380   2.282 -2.0369  0.3428  3.2254
 9824TIP3   OH250886   4.723   6.295  14.706 -0.0069  0.0290  0.1387
 9824TIP3    H150887   4.713   6.202  14.728  2.2888 -0.0169  1.3045
 9824TIP3    H250888   4.809   6.300  14.664  0.0869  1.6878  0.4659
 9825TIP3   OH250889   0.974   2.026   5.877 -0.5099  0.2544 -0.5775
 9825TIP3    H150890   1.026   2.062   5.949 -0.4351 -1.2887  0.1790
 9825TIP3    H250891   1.016   2.059   5.798  0.7740  0.1697  0.0449
 9826TIP3   OH250892   6.552   1.548  12.978 -0.2588 -0.0426 -1.3190
 9826TIP3    H150893   6.517   1.620  12.925 -0.8118 -0.1190 -1.0654
 9826TIP3    H250894   6.479   1.487  12.986 -0.9996  1.0248  1.4741
 9827TIP3   OH250895   0.020   4.162   2.375 -0.0102 -0.0759  1.0192
 9827TIP3    H150896   0.103   4.120   2.350  0.7514  1.3636  1.0616
 9827TIP3    H250897   0.037   4.256   2.367 -1.7945  0.2411  0.5689
 9828TIP3   OH250898   3.223   5.455   6.437 -0.1136 -0.2207 -0.4519
 9828TIP3    H150899   3.200   5.547   6.452 -2.2813 -0.2864 -2.7157
 9828TIP3    H250900   3.159   5.405   6.488  0.9122 -0.5187  0.5850
 9829TIP3   OH250901   6.487   2.832  12.136 -0.1807  0.3245 -0.4487
 9829TIP3    H150902   6.556   2.868  12.079  0.2984  0.8273  0.4201
 9829TIP3    H250903   6.456   2.754  12.090  0.6337  0.3639 -1.0921
 9830TIP3   OH250904   4.837   6.076   1.957 -0.3661  0.2867  0.0308
 9830TIP3    H150905   4.746   6.090   1.933 -0.0262  0.7469 -1.1022
 9830TIP3    H250906   4.869   6.162   1.984 -0.2735  0.1275  0.4304
 9831TIP3   OH250907   5.855   4.815  15.864 -0.1971  0.3624  0.4295
 9831TIP3    H150908   5.809   4.767  15.795 -0.6305  0.3667  0.7123
 9831TIP3    H250909   5.944   4.827  15.829 -0.8816  1.9064 -0.8949
 9832TIP3   OH250910   2.549   4.612   5.098  0.1310  0.4825  0.4833
 9832TIP3    H150911   2.533   4.676   5.029  1.1906  0.0521 -0.1920
 9832TIP3    H250912   2.642   4.591   5.090  0.2739  0.4322  2.0647
 9833TIP3   OH250913   3.652   1.053   6.343  0.4536  0.1930  0.3563
 9833TIP3    H150914   3.670   1.013   6.428 -1.1824  0.1452  0.7124
 9833TIP3    H250915   3.675   1.145   6.355 -0.5498  0.3666  1.1512
 9834TIP3   OH250916   0.178   5.176  12.112 -0.0706  0.5683  0.2000
 9834TIP3    H150917   0.163   5.210  12.024  0.8722 -2.4026 -1.2510
 9834TIP3    H250918   0.094   5.185  12.156 -0.1866  3.4246 -0.4504
 9835TIP3   OH250919   0.782   1.669   1.422 -0.7019  0.2163 -0.2142
 9835TIP3    H150920   0.733   1.712   1.352  0.4410  0.2657 -1.0252
 9835TIP3    H250921   0.834   1.602   1.377 -2.7430 -2.3748  1.0522
 9836TIP3   OH250922   6.480   5.843   0.834  0.0717 -0.0980 -0.5102
 9836TIP3    H150923   6.405   5.817   0.888  0.8841  2.1338  1.8611
 9836TIP3    H250924   6.501   5.764   0.784 -1.2595 -2.0812  1.8227
 9837TIP3   OH250925   0.246   3.637   1.849  0.2200  0.2875 -0.0695
 9837TIP3    H150926   0.227   3.620   1.757 -0.6093 -2.9018  0.5650
 9837TIP3    H250927   0.184   3.705   1.874  1.4685  2.3457 -2.1277
 9838TIP3   OH250928   4.193   6.271  12.368  0.1481  0.0092  0.0289
 9838TIP3    H150929   4.263   6.325  12.332 -0.1143  1.2273  1.2647
 9838TIP3    H250930   4.201   6.281  12.463 -0.8166 -0.9803  0.2374
 9839TIP3   OH250931   5.799   2.102  11.716 -0.6779  0.0848 -0.4879
 9839TIP3    H150932   5.728   2.040  11.729  0.2515 -0.9802 -0.3997
 9839TIP3    H250933   5.875   2.048  11.692  0.4359  1.0707  0.6727
 9840TIP3   OH250934   5.287   3.893   3.491 -0.2189 -0.2475 -0.1869
 9840TIP3    H150935   5.285   3.949   3.413 -3.3546  0.5946  0.3644
 9840TIP3    H250936   5.305   3.953   3.563  2.0112 -0.9245 -0.1073
 9841TIP3   OH250937   2.873   6.630  10.809  1.0130  0.5594 -0.1230
 9841TIP3    H150938   2.876   6.534  10.812  0.8622  0.5060 -1.3688
 9841TIP3    H250939   2.945   6.654  10.752  0.2192  1.1138 -0.9068
 9842TIP3   OH250940   5.277   6.386   1.199 -0.5071 -0.2695 -0.1656
 9842TIP3    H150941   5.198   6.412   1.246 -1.8654  2.5732 -3.5678
 9842TIP3    H250942   5.347   6.434   1.241 -1.3737  0.8148  0.0817
 9843TIP3   OH250943   1.774   1.106   1.843  0.7672 -0.2641  0.0017
 9843TIP3    H150944   1.780   1.073   1.933 -0.7071  0.2672  0.3221
 9843TIP3    H250945   1.682   1.128   1.832  1.2606  1.4075 -1.0446
 9844TIP3   OH250946   6.712   3.673   3.869 -0.6496  0.0806  0.2977
 9844TIP3    H150947   6.712   3.766   3.845 -1.6629  0.6662  2.3433
 9844TIP3    H250948   6.805   3.651   3.876 -0.3799  0.6617 -1.0936
 9845TIP3   OH250949   4.608   6.217  10.916 -0.2091  0.5297  0.6218
 9845TIP3    H150950   4.681   6.256  10.867 -1.4149  1.3465 -0.5904
 9845TIP3    H250951   4.552   6.178  10.848 -0.5303 -0.7562  1.5936
 9846TIP3   OH250952   1.911   2.937  11.950 -0.0582 -0.0024 -0.6362
 9846TIP3    H150953   1.933   2.876  12.021 -1.2771  0.7334  0.4158
 9846TIP3    H250954   1.898   3.021  11.994  2.3143  1.2607 -2.1383
 9847TIP3   OH250955   4.155   4.925   2.836  0.1851 -0.3252 -0.3531
 9847TIP3    H150956   4.216   4.967   2.775 -0.4207 -0.4233 -1.0379
 9847TIP3    H250957   4.178   4.832   2.831  0.0655 -0.3465 -0.5172
 9848TIP3   OH250958   1.926   3.461   3.117 -0.6531 -0.3677 -0.1272
 9848TIP3    H150959   1.913   3.511   3.036 -0.4121  0.4057  0.2934
 9848TIP3    H250960   1.858   3.494   3.176  0.5208  0.6794  0.7010
 9849TIP3   OH250961   0.943   6.797  15.220 -0.3227 -0.0463 -0.4431
 9849TIP3    H150962   1.000   6.855  15.270  0.3819 -0.5593 -0.6263
 9849TIP3    H250963   0.945   6.714  15.267 -1.3524  0.0786 -0.1628
 9850TIP3   OH250964   3.896   1.524  16.922  0.2830 -0.1223  0.3283
 9850TIP3    H150965   3.805   1.550  16.935  0.6923  1.1205  0.8660
 9850TIP3    H250966   3.930   1.589  16.859  1.1085  0.1657  1.0547
 9851TIP3   OH250967   4.096   5.864  15.786  0.0575 -0.0801 -0.2764
 9851TIP3    H150968   4.064   5.944  15.743  2.1418  1.1055  0.2357
 9851TIP3    H250969   4.081   5.795  15.721 -0.5862  0.9513 -1.2691
 9852TIP3   OH250970   5.366   6.588   3.074  0.0651 -0.3131 -0.6748
 9852TIP3    H150971   5.364   6.504   3.027 -0.2316 -1.4802  1.2897
 9852TIP3    H250972   5.305   6.575   3.147  1.3291  0.9883  0.6637
 9853TIP3   OH250973   5.904   0.166   2.062 -0.3450 -0.7210 -0.6612
 9853TIP3    H150974   5.892   0.084   2.111  1.0127 -0.4532  0.1625
 9853TIP3    H250975   5.919   0.137   1.971  1.0213 -1.4615 -0.2290
 9854TIP3   OH250976   2.568   4.318   0.710  0.0542 -0.3311  0.1787
 9854TIP3    H150977   2.602   4.229   0.703  0.1487 -0.7918  4.1507
 9854TIP3    H250978   2.504   4.314   0.781 -0.0929  2.7316  0.3687
 9855TIP3   OH250979   4.162   5.856  14.932  0.5004  0.3185 -0.1030
 9855TIP3    H150980   4.093   5.860  14.998  0.2940 -0.4650 -0.2624
 9855TIP3    H250981   4.116   5.872  14.849  0.3423 -1.0752 -0.3066
 9856TIP3   OH250982   6.309   1.703  12.162  0.1376  0.1557  0.5716
 9856TIP3    H150983   6.331   1.614  12.134  2.4537  0.7433  0.3079
 9856TIP3    H250984   6.229   1.693  12.214 -1.0130 -1.7349 -1.3674
 9857TIP3   OH250985   3.870   2.447   1.998 -0.3668  0.0779 -0.4083
 9857TIP3    H150986   3.894   2.523   1.946 -0.4702 -0.1665 -0.8199
 9857TIP3    H250987   3.785   2.419   1.962 -0.5261  0.0110  0.0071
 9858TIP3   OH250988   1.479   2.739  11.021  0.1107 -0.1997 -0.5831
 9858TIP3    H150989   1.572   2.717  11.014  0.5994  1.8651 -1.1391
 9858TIP3    H250990   1.459   2.729  11.114  1.4265  1.1829 -0.1045
 9859TIP3   OH250991   0.777   3.568  14.757 -0.9015 -0.1368  0.1783
 9859TIP3    H150992   0.686   3.565  14.728 -1.3907  2.4167  1.2049
 9859TIP3    H250993   0.828   3.576  14.676 -1.4718 -2.1363 -0.4455
 9860TIP3   OH250994   0.582   0.455  14.098  0.4779 -0.0690 -0.1382
 9860TIP3    H150995   0.488   0.469  14.110 -0.0940 -1.0728 -2.8078
 9860TIP3    H250996   0.611   0.526  14.041  0.9639 -0.6978 -0.6942
 9861TIP3   OH250997   2.147   1.979  12.082  0.2143  0.3570  0.0391
 9861TIP3    H150998   2.236   1.944  12.089  0.3703  1.0379  1.7776
 9861TIP3    H250999   2.115   1.946  11.998  1.8876 -0.3939 -0.3335
 9862TIP3   OH251000   5.254   4.672  16.603  0.0160 -0.7753 -0.7549
 9862TIP3    H151001   5.165   4.640  16.615  0.2663 -1.0803  0.5344
 9862TIP3    H251002   5.309   4.595  16.614  0.4192 -0.8000 -2.6273
 9863TIP3   OH251003   2.600   2.480  12.164  0.4295  0.5125  0.3650
 9863TIP3    H151004   2.593   2.486  12.260  0.4837  0.4001  0.3766
 9863TIP3    H251005   2.509   2.473  12.135  0.4498 -2.6857  0.6370
 9864TIP3   OH251006   5.072   6.693   1.535 -0.1609 -0.1708  0.0026
 9864TIP3    H151007   5.126   6.742   1.473 -1.3867  1.3447  0.0832
 9864TIP3    H251008   5.079   6.602   1.506 -0.4351  0.4519 -2.1771
 9865TIP3   OH251009   1.816   3.028   4.370 -0.4892 -0.0076 -0.2361
 9865TIP3    H151010   1.822   2.961   4.439 -0.0183 -0.6187 -0.8522
 9865TIP3    H251011   1.764   3.098   4.409  0.8759  0.2622  1.2235
 9866TIP3   OH251012   0.612   5.810   3.848 -0.1382 -0.3693  0.0885
 9866TIP3    H151013   0.584   5.761   3.925 -0.7931  0.5551  0.4528
 9866TIP3    H251014   0.708   5.808   3.852 -0.1154  1.1041  1.9125
 9867TIP3   OH251015   1.045   1.142   6.045  0.2079 -0.0145 -0.2882
 9867TIP3    H151016   1.128   1.188   6.058  1.2359 -1.7191 -0.4927
 9867TIP3    H251017   0.999   1.151   6.129  1.1194 -0.0047  0.2283
 9868TIP3   OH251018   4.710   1.312  12.813  0.2782 -0.1187  0.5547
 9868TIP3    H151019   4.622   1.324  12.777  0.4327 -0.6563 -0.0124
 9868TIP3    H251020   4.767   1.360  12.752  0.1946  2.0823  2.0683
 9869TIP3   OH251021   2.561   6.241   5.620  0.4536 -0.2954  0.1769
 9869TIP3    H151022   2.492   6.177   5.641  1.5826 -1.5427  0.2025
 9869TIP3    H251023   2.599   6.263   5.705 -0.2142  0.7808  0.2171
 9870TIP3   OH251024   1.573   4.381  12.767 -0.3999  0.3547 -0.8371
 9870TIP3    H151025   1.545   4.439  12.696  1.5817 -0.3273 -2.2756
 9870TIP3    H251026   1.634   4.434  12.818 -2.3791  1.0863  0.8880
 9871TIP3   OH251027   2.702   6.577  13.421 -0.1041  0.4053  0.3544
 9871TIP3    H151028   2.684   6.507  13.358  0.0351 -3.0653  3.8348
 9871TIP3    H251029   2.796   6.592  13.413 -0.0933  0.0307 -0.3020
 9872TIP3   OH251030   4.268   4.529   1.949 -0.2125  0.1538 -0.5803
 9872TIP3    H151031   4.231   4.551   1.863 -1.1104  1.9862  0.2393
 9872TIP3    H251032   4.312   4.609   1.977 -2.5002  0.6093  1.9931
 9873TIP3   OH251033   4.832   6.790  11.271  0.4714  0.2706 -0.0671
 9873TIP3    H151034   4.777   6.723  11.231  1.5207 -0.6574 -0.0171
 9873TIP3    H251035   4.918   6.776  11.233  0.7377  1.5300  0.0436
 9874TIP3   OH251036   1.230   0.938   4.699  0.4736 -0.0836  0.1796
 9874TIP3    H151037   1.237   1.030   4.727  1.5392 -0.2753  0.5946
 9874TIP3    H251038   1.206   0.943   4.607 -4.0893  0.5806  1.1637
 9875TIP3   OH251039   5.103   1.716  16.300  0.1076  0.5153 -0.0111
 9875TIP3    H151040   5.037   1.723  16.232  0.2488  0.0421 -0.2009
 9875TIP3    H251041   5.141   1.804  16.305 -0.8559  0.9212  0.4410
 9876TIP3   OH251042   5.898   5.462  11.947 -0.0430  0.4250  0.4969
 9876TIP3    H151043   5.848   5.412  12.012  0.2945  1.0162  1.2303
 9876TIP3    H251044   5.932   5.537  11.996  0.2482  0.8637 -0.3657
 9877TIP3   OH251045   3.251   6.011  12.212 -0.8596 -0.2634 -0.7222
 9877TIP3    H151046   3.270   5.948  12.142 -0.9584 -1.6268  0.4154
 9877TIP3    H251047   3.285   5.969  12.291 -0.2808  1.4672 -0.0155
 9878TIP3   OH251048   6.783   6.808   3.139  0.2271  0.3929  0.2189
 9878TIP3    H151049   6.712   6.871   3.128 -0.1926  0.1178  1.2541
 9878TIP3    H251050   6.861   6.862   3.155  0.0848  0.6730 -0.0269
 9879TIP3   OH251051   2.098   6.182   5.407 -0.3851  0.3034  0.6665
 9879TIP3    H151052   2.008   6.151   5.404 -0.0395 -0.7303  0.8020
 9879TIP3    H251053   2.134   6.162   5.321 -0.4136  1.1285  0.4560
 9880TIP3   OH251054   5.758   0.996  16.020  0.5200 -0.1138 -0.2227
 9880TIP3    H151055   5.759   1.019  15.928  1.3237  0.7174 -0.0250
 9880TIP3    H251056   5.714   0.911  16.024 -1.0197  0.6143 -1.1600
 9881TIP3   OH251057   1.833   1.957  11.214  0.0812  0.6048 -0.0227
 9881TIP3    H151058   1.870   1.902  11.283 -0.9210  1.7359  1.4634
 9881TIP3    H251059   1.813   1.895  11.143 -0.1050 -0.8075  1.2037
 9882TIP3   OH251060   2.191   6.554   4.691  0.0556 -0.1763  0.2160
 9882TIP3    H151061   2.274   6.557   4.739  0.0133 -0.8509  0.3310
 9882TIP3    H251062   2.214   6.526   4.603  0.1835  1.4180 -0.3060
 9883TIP3   OH251063   1.972   3.156  12.092 -0.0857  0.3345  0.0338
 9883TIP3    H151064   1.948   3.236  12.045 -0.0174 -0.4486 -1.3710
 9883TIP3    H251065   1.960   3.179  12.184 -3.0266  1.0452 -0.4052
 9884TIP3   OH251066   1.015   1.368   0.162 -0.0809  0.3820 -0.2217
 9884TIP3    H151067   0.986   1.426   0.092 -1.0434  1.1460  0.7630
 9884TIP3    H251068   0.967   1.286   0.148 -1.8125  1.2005  0.6448
 9885TIP3   OH251069   1.075   6.369   2.033  0.6225 -0.1825  0.5130
 9885TIP3    H151070   1.034   6.389   2.117 -0.1321 -1.2357  0.4252
 9885TIP3    H251071   1.035   6.430   1.971 -0.0805 -0.5271  0.6183
 9886TIP3   OH251072   5.173   1.932  11.356  0.1743 -0.9844  0.0411
 9886TIP3    H151073   5.144   1.938  11.264  1.0008 -0.8273 -0.2134
 9886TIP3    H251074   5.096   1.899  11.403 -1.2677  1.6783 -0.2196
 9887TIP3   OH251075   0.975   0.132   1.920  0.1098  0.0567 -0.2093
 9887TIP3    H151076   0.970   0.187   1.842  0.0619 -0.1380 -0.3436
 9887TIP3    H251077   0.926   0.053   1.897 -0.1436  0.1173  0.1145
 9888TIP3   OH251078   1.749   1.218   4.145 -0.3549 -0.1630  0.0794
 9888TIP3    H151079   1.775   1.246   4.057  0.3834 -3.3585 -0.8211
 9888TIP3    H251080   1.658   1.190   4.135 -0.4998  0.1331  0.5321
 9889TIP3   OH251081   4.007   1.283  13.365 -0.4423 -0.4434 -0.1037
 9889TIP3    H151082   4.071   1.318  13.304 -0.8641  1.3567  0.4391
 9889TIP3    H251083   4.036   1.314  13.451 -1.5482 -0.3551  0.2513
 9890TIP3   OH251084   0.144   1.087   3.089 -0.4427 -0.5528 -0.3261
 9890TIP3    H151085   0.051   1.085   3.066 -0.3423  1.4441 -1.1735
 9890TIP3    H251086   0.151   1.160   3.151  0.2831 -1.9491  1.3059
 9891TIP3   OH251087   3.077   3.406   0.428  0.0376 -0.2253  0.1665
 9891TIP3    H151088   3.022   3.477   0.463 -2.3802 -0.6616 -2.3726
 9891TIP3    H251089   3.046   3.327   0.472  0.8603 -0.0823  1.0254
 9892TIP3   OH251090   3.432   0.278   6.004 -0.5110 -0.2716 -0.3983
 9892TIP3    H151091   3.356   0.253   6.055 -0.7141 -0.4030 -0.7618
 9892TIP3    H251092   3.503   0.287   6.068 -0.8713  0.0194 -0.0436
 9893TIP3   OH251093   2.131   3.158   5.251 -0.5595  0.2519  0.7031
 9893TIP3    H151094   2.223   3.179   5.234 -1.0326  2.3988  0.5127
 9893TIP3    H251095   2.092   3.150   5.164 -0.5971 -0.4860  0.7845
 9894TIP3   OH251096   6.747   1.798   4.000  0.2873  0.4268  0.3535
 9894TIP3    H151097   6.732   1.704   3.988  0.7384  0.3141  0.6244
 9894TIP3    H251098   6.666   1.831   4.038 -0.0301  0.2251 -0.1386
 9895TIP3   OH251099   2.580   5.378  11.213 -0.2976  0.2927  0.0942
 9895TIP3    H151100   2.674   5.386  11.197 -0.5121  0.2527 -1.3679
 9895TIP3    H251101   2.540   5.418  11.135 -1.4816 -0.1317  0.4762
 9896TIP3   OH251102   5.395   0.624   3.247 -0.0164  0.2943  0.2961
 9896TIP3    H151103   5.488   0.623   3.225 -0.0549 -0.3051  0.1375
 9896TIP3    H251104   5.375   0.533   3.268 -0.6000  0.3971  0.1856
 9897TIP3   OH251105   6.699   2.964  10.961 -0.2300  0.0886 -0.0901
 9897TIP3    H151106   6.760   2.950  11.033 -0.2800 -0.3007 -0.1185
 9897TIP3    H251107   6.740   2.921  10.886 -0.6758 -0.4431 -0.0366
 9898TIP3   OH251108   5.763   2.038  13.432  0.6905 -0.0668 -0.2608
 9898TIP3    H151109   5.814   2.118  13.424 -0.4226  0.5785 -1.2106
 9898TIP3    H251110   5.680   2.066  13.470 -0.0581 -0.5887 -1.4490
 9899TIP3   OH251111   4.126   0.870   1.730  0.1910 -0.9240 -0.1201
 9899TIP3    H151112   4.174   0.819   1.795 -2.9382 -1.3090  2.1090
 9899TIP3    H251113   4.186   0.941   1.707  0.5725  1.1891  5.6855
 9900TIP3   OH251114   1.183   3.375   5.106  0.4585  0.2875  0.3951
 9900TIP3    H151115   1.143   3.426   5.035  2.6635  2.3699  0.5270
 9900TIP3    H251116   1.114   3.369   5.173 -0.6678  0.9055 -0.6697
 9901TIP3   OH251117   2.489   0.222  12.255 -0.1857 -0.2431 -0.4967
 9901TIP3    H151118   2.421   0.160  12.281  0.8215 -0.1889  2.6646
 9901TIP3    H251119   2.551   0.170  12.205  0.0992 -1.6166  1.1920
 9902TIP3   OH251120   4.326   0.059   5.625 -0.4457 -0.3343 -0.0933
 9902TIP3    H151121   4.395   0.101   5.573  0.7124 -0.7516  1.0646
 9902TIP3    H251122   4.334   0.097   5.712 -1.6671 -0.4233  0.0764
 9903TIP3   OH251123   1.419   4.854  14.116  0.2724 -0.1637 -0.1142
 9903TIP3    H151124   1.440   4.934  14.068  1.8556  0.9002  2.1175
 9903TIP3    H251125   1.490   4.793  14.094  0.6349  0.0924  0.3106
 9904TIP3   OH251126   5.048   6.637  10.695 -0.9735  0.1234 -0.2260
 9904TIP3    H151127   5.102   6.559  10.709  0.0643  0.6514 -1.2045
 9904TIP3    H251128   4.983   6.610  10.631 -1.8785 -0.4973  0.9122
 9905TIP3   OH251129   5.183   5.772  13.461  0.4559 -0.8046 -0.0157
 9905TIP3    H151130   5.209   5.683  13.437  1.1936 -0.3857 -0.8463
 9905TIP3    H251131   5.128   5.800  13.388 -0.9808 -1.0795  0.9294
 9906TIP3   OH251132   5.573   2.380  15.211 -0.5237 -0.9501 -0.0016
 9906TIP3    H151133   5.515   2.420  15.145  0.2138 -0.5492 -0.4125
 9906TIP3    H251134   5.642   2.339  15.160  0.8629  0.6064  0.5335
 9907TIP3   OH251135   5.311   3.146   6.323 -0.4336 -0.1679  0.5692
 9907TIP3    H151136   5.399   3.182   6.312  0.9618 -2.5755  2.7262
 9907TIP3    H251137   5.274   3.195   6.396 -0.6723  0.4701  0.0238
 9908TIP3   OH251138   3.619   5.981   5.906  0.0340  0.2484  0.5510
 9908TIP3    H151139   3.654   6.068   5.928  0.1893  0.1538  0.6853
 9908TIP3    H251140   3.594   5.943   5.990  0.8139 -0.1945  0.5959
 9909TIP3   OH251141   2.301   2.291  13.410 -0.0572 -0.0129 -0.2356
 9909TIP3    H151142   2.390   2.305  13.376  0.1186 -1.1676 -0.2730
 9909TIP3    H251143   2.314   2.248  13.495 -0.5349  1.6583  0.7524
 9910TIP3   OH251144   0.238   3.747   0.080  0.2978  0.7376 -0.3186
 9910TIP3    H151145   0.289   3.826   0.098  0.4710  0.2400  1.5559
 9910TIP3    H251146   0.277   3.711  -0.000  1.4930  1.5235 -0.1106
 9911TIP3   OH251147   4.449   1.284   2.479  0.0321  0.3954 -0.3720
 9911TIP3    H151148   4.486   1.338   2.549 -0.7926  1.9778 -1.1148
 9911TIP3    H251149   4.361   1.319   2.465 -0.5842 -1.2299 -0.8258
 9912TIP3   OH251150   1.173   5.454  13.918 -0.3583  0.3744  0.2144
 9912TIP3    H151151   1.208   5.369  13.893 -1.4225  0.0580 -0.2617
 9912TIP3    H251152   1.238   5.517  13.886  0.7262 -0.2663  1.0920
 9913TIP3   OH251153   1.686   3.868   4.066  0.1798  0.4150 -0.0058
 9913TIP3    H151154   1.620   3.828   4.121 -0.2296  1.0086 -0.0619
 9913TIP3    H251155   1.732   3.929   4.123  1.6355 -1.0024  0.4146
 9914TIP3   OH251156   1.984   4.688  15.923  0.3643  0.1594  0.7477
 9914TIP3    H151157   1.975   4.768  15.870 -0.3939 -0.1478  0.4061
 9914TIP3    H251158   2.073   4.694  15.959  0.6686  0.6795 -0.0539
 9915TIP3   OH251159   4.543   0.105   6.044  0.2342  0.1697  0.1248
 9915TIP3    H151160   4.497   0.124   6.126  0.2693 -2.2856  0.7908
 9915TIP3    H251161   4.634   0.129   6.061  0.1168  0.2953  0.5800
 9916TIP3   OH251162   4.070   1.563  13.865 -0.4246 -0.2444  0.5069
 9916TIP3    H151163   4.135   1.591  13.800 -0.7366 -1.0380 -0.1644
 9916TIP3    H251164   4.111   1.583  13.949  1.2112 -1.7891  0.1402
 9917TIP3   OH251165   0.983   0.723  14.476 -0.0818 -0.4688 -0.0514
 9917TIP3    H151166   1.001   0.786  14.406 -0.6921 -1.0492 -0.7363
 9917TIP3    H251167   1.065   0.674  14.485  1.6905  2.5398  2.8215
 9918TIP3   OH251168   3.384   0.147  16.683 -0.5337 -0.2487  0.3929
 9918TIP3    H151169   3.304   0.132  16.732 -1.2347 -0.7137 -0.8374
 9918TIP3    H251170   3.413   0.234  16.709 -2.1587  0.4808 -0.0949
 9919TIP3   OH251171   0.383   0.471   4.592 -0.1038  0.2791 -0.4309
 9919TIP3    H151172   0.428   0.387   4.600  0.2578  0.5627  0.7307
 9919TIP3    H251173   0.454   0.536   4.590 -0.4143  0.6456  0.1393
 9920TIP3   OH251174   5.874   0.555   2.934  0.0929  0.4055  0.3619
 9920TIP3    H151175   5.813   0.603   2.878  0.5867  0.0523 -0.4858
 9920TIP3    H251176   5.851   0.463   2.922  1.7392  0.1307 -1.1610
 9921TIP3   OH251177   0.116   5.110  13.421 -0.3968  0.0762 -0.1758
 9921TIP3    H151178   0.038   5.075  13.377  0.4635 -1.6638 -0.3922
 9921TIP3    H251179   0.092   5.110  13.514 -0.0074 -2.4084 -0.0100
 9922TIP3   OH251180   1.537   3.488   2.196  0.0173  0.2811  0.1982
 9922TIP3    H151181   1.495   3.429   2.134 -2.1679  2.7705 -0.8821
 9922TIP3    H251182   1.600   3.537   2.143 -1.1492  1.7298  0.0910
 9923TIP3   OH251183   1.063   0.435  13.366  0.2982 -0.0189 -0.3294
 9923TIP3    H151184   0.997   0.400  13.306  1.1351 -0.4115 -1.0440
 9923TIP3    H251185   1.075   0.366  13.432 -0.5983  0.3990  0.2887
 9924TIP3   OH251186   6.074   3.170   4.394  0.0518 -0.0397 -0.4883
 9924TIP3    H151187   6.057   3.114   4.470  2.1177 -1.1072 -0.7493
 9924TIP3    H251188   6.133   3.238   4.428 -0.9365  0.9019 -0.6115
 9925TIP3   OH251189   4.440   1.456   4.987  0.4932  0.0361 -0.2955
 9925TIP3    H151190   4.402   1.373   4.956 -0.2236  0.5301 -0.7802
 9925TIP3    H251191   4.496   1.430   5.061 -0.4617 -0.7802  0.1794
 9926TIP3   OH251192   6.102   0.555   5.971 -0.2349  0.6576 -0.3284
 9926TIP3    H151193   6.139   0.612   6.038  0.2703 -0.1183  0.0642
 9926TIP3    H251194   6.149   0.472   5.980 -0.0601  0.5669 -1.7317
 9927TIP3   OH251195   5.099   6.418   1.848 -0.3843 -0.1653  0.0811
 9927TIP3    H151196   5.103   6.323   1.848  0.1395 -0.1649  1.3130
 9927TIP3    H251197   5.188   6.446   1.872  0.2641  0.7313 -2.9187
 9928TIP3   OH251198   4.932   6.079  16.040  0.1485 -0.3353 -0.2955
 9928TIP3    H151199   4.992   6.014  16.004 -0.5606 -0.7719 -0.7298
 9928TIP3    H251200   4.915   6.139  15.968  1.4954  0.8818  0.3559
 9929TIP3   OH251201   0.596   0.750   1.884  0.2404 -0.1201  0.7907
 9929TIP3    H151202   0.612   0.722   1.793  1.7095  1.4092  0.5343
 9929TIP3    H251203   0.516   0.703   1.909  0.2737 -1.2460 -0.9919
 9930TIP3   OH251204   5.808   0.965   2.655  0.4837 -0.7300 -0.0252
 9930TIP3    H151205   5.794   1.052   2.616  0.3371 -2.3194 -3.9709
 9930TIP3    H251206   5.888   0.975   2.706 -0.5653  2.1348  1.2819
 9931TIP3   OH251207   1.096   1.957  15.345  0.1133 -0.0942 -0.0349
 9931TIP3    H151208   1.129   2.010  15.272 -1.3524  0.3849 -0.3797
 9931TIP3    H251209   1.059   2.020  15.407 -1.7951 -0.6557 -0.5221
 9932TIP3   OH251210   5.501   5.569   0.364  0.1821 -0.7180  0.0545
 9932TIP3    H151211   5.561   5.519   0.418  1.3204 -0.2704 -0.7447
 9932TIP3    H251212   5.469   5.506   0.299  0.3254 -0.8000  0.0628
 9933TIP3   OH251213   2.171   4.185  11.155  0.5134  0.6832  0.5093
 9933TIP3    H151214   2.108   4.233  11.101 -2.4370 -2.0980  1.1769
 9933TIP3    H251215   2.242   4.161  11.095 -1.8867 -0.9637 -1.8757
 9934TIP3   OH251216   1.954   4.601  10.829 -0.3121  0.5669  0.1411
 9934TIP3    H151217   2.024   4.539  10.852 -0.5205  0.1497 -0.3128
 9934TIP3    H251218   1.987   4.645  10.750 -1.4616 -1.2243 -1.4299
 9935TIP3   OH251219   0.924   3.600   1.230 -0.4231  0.1647  0.2622
 9935TIP3    H151220   0.866   3.547   1.175 -0.6439  0.6557  0.0224
 9935TIP3    H251221   0.907   3.690   1.204 -0.1506  0.3682  0.7710
 9936TIP3   OH251222   1.043   4.808   3.090 -0.0869 -0.6400  0.2041
 9936TIP3    H151223   1.011   4.815   3.180  0.0114 -0.6773  0.2422
 9936TIP3    H251224   1.114   4.872   3.085 -0.4794 -0.2168 -0.0190
 9937TIP3   OH251225   4.167   5.709   0.302  0.2161  0.1893  0.3768
 9937TIP3    H151226   4.085   5.758   0.308  1.1964  1.7540  1.8553
 9937TIP3    H251227   4.215   5.752   0.231  0.1975 -0.0474  0.2191
 9938TIP3   OH251228   5.105   1.281   4.984  0.4977  0.6839 -0.4185
 9938TIP3    H151229   5.056   1.316   5.058  0.1789 -0.4485 -0.0839
 9938TIP3    H251230   5.052   1.209   4.951  1.0348  0.6452 -1.2392
 9939TIP3   OH251231   5.905   3.691  16.457  0.3995  0.3292  0.4477
 9939TIP3    H151232   5.874   3.651  16.376  0.8751 -0.5057  0.6686
 9939TIP3    H251233   5.882   3.783  16.448 -0.4701  0.0656 -0.1955
 9940TIP3   OH251234   2.974   3.521  14.413  0.7216  0.2646  0.4498
 9940TIP3    H151235   3.025   3.489  14.488  0.5443  1.8941  1.3161
 9940TIP3    H251236   3.028   3.502  14.337  0.9041 -1.4426  0.9663
 9941TIP3   OH251237   2.168   5.817  16.709  0.0909 -0.1430  0.0378
 9941TIP3    H151238   2.109   5.849  16.641 -0.0252 -0.8395 -0.2014
 9941TIP3    H251239   2.110   5.771  16.771 -0.0804  2.0841  1.6479
 9942TIP3   OH251240   2.208   2.995  16.215 -0.8468 -0.3156  0.2268
 9942TIP3    H151241   2.265   3.011  16.140 -1.0626  0.1962  0.1695
 9942TIP3    H251242   2.203   2.900  16.222 -2.0157 -0.4155 -1.3396
 9943TIP3   OH251243   0.670   4.219  13.046 -0.0002 -0.4293  0.1308
 9943TIP3    H151244   0.679   4.277  13.122  0.7074 -1.3437  0.7682
 9943TIP3    H251245   0.747   4.238  12.993 -1.0511  1.0156 -0.9689
 9944TIP3   OH251246   1.622   2.368  13.233 -0.0847  0.4647  0.1723
 9944TIP3    H151247   1.713   2.390  13.214  0.1659 -0.6730 -0.0364
 9944TIP3    H251248   1.574   2.449  13.221  0.5402  0.5480 -2.1077
 9945TIP3   OH251249   3.175   1.107   2.348  0.6727 -0.6848 -0.1243
 9945TIP3    H151250   3.248   1.164   2.321  0.5463 -0.6371 -0.3679
 9945TIP3    H251251   3.200   1.076   2.435  0.2830  0.5262  0.4345
 9946TIP3   OH251252   2.002   4.583  13.242  0.8056 -0.7030 -0.0990
 9946TIP3    H151253   2.024   4.493  13.267  1.2019 -0.3256  0.9807
 9946TIP3    H251254   1.958   4.574  13.158  0.0353 -1.9952  0.4007
 9947TIP3   OH251255   6.265   5.753   0.972 -0.0744  0.2067  0.0726
 9947TIP3    H151256   6.245   5.721   1.060  0.3478 -1.6500 -0.4637
 9947TIP3    H251257   6.215   5.834   0.964 -0.6509  0.0572  1.7700
 9948TIP3   OH251258   5.323   2.047   1.812  0.5337 -0.0676  0.5400
 9948TIP3    H151259   5.333   2.017   1.722 -0.0411  1.3717 -0.0369
 9948TIP3    H251260   5.334   1.968   1.865 -1.8281 -1.5014 -0.9192
 9949TIP3   OH251261   1.939   4.221  15.943  0.3805  1.3307  0.2312
 9949TIP3    H151262   1.871   4.234  16.009 -0.6116  0.2246 -0.5173
 9949TIP3    H251263   1.898   4.250  15.861  0.5928  0.1286 -0.3196
 9950TIP3   OH251264   4.751   2.032   6.151 -0.3724  0.6967 -0.3288
 9950TIP3    H151265   4.772   1.939   6.154 -0.8394  0.5747 -0.7594
 9950TIP3    H251266   4.656   2.036   6.152 -0.3946  1.2918  2.6318
 9951TIP3   OH251267   2.750   2.626  14.550 -0.0630  0.7857 -0.3693
 9951TIP3    H151268   2.656   2.609  14.555 -0.0105  0.8149  1.4380
 9951TIP3    H251269   2.791   2.542  14.569  0.2483  1.1557  0.6570
 9952TIP3   OH251270   5.696   2.121  15.715  0.4365 -0.0598  0.1951
 9952TIP3    H151271   5.720   2.135  15.623  2.8718 -2.4335  0.3650
 9952TIP3    H251272   5.706   2.207  15.756 -1.0776  1.1396 -1.7443
 9953TIP3   OH251273   4.472   2.965   0.762  0.4106  0.5113  0.6976
 9953TIP3    H151274   4.492   2.936   0.851  0.1776  0.8279  0.8559
 9953TIP3    H251275   4.382   2.997   0.767  0.2556  0.1660  0.2570
 9954TIP3   OH251276   0.154   2.221  11.487 -0.4503  0.1108 -0.6085
 9954TIP3    H151277   0.175   2.141  11.537  0.5386  0.7699  0.0659
 9954TIP3    H251278   0.201   2.209  11.405 -2.8140 -1.3988 -1.8626
 9955TIP3   OH251279   0.160   1.291   3.502 -0.1180 -0.1821 -0.2577
 9955TIP3    H151280   0.126   1.268   3.588  1.0765  3.1931  1.3257
 9955TIP3    H251281   0.083   1.310   3.449 -0.8343 -0.0263  0.8177
 9956TIP3   OH251282   5.384   3.047  16.079 -0.1268  0.4315 -0.6415
 9956TIP3    H151283   5.422   3.103  16.147 -1.8892  1.2677 -0.2936
 9956TIP3    H251284   5.301   3.017  16.117 -0.2371 -0.6631 -1.6937
 9957TIP3   OH251285   2.465   2.637  13.327 -0.3128  0.1609  0.4746
 9957TIP3    H151286   2.486   2.565  13.268 -1.7579 -0.6502  0.9138
 9957TIP3    H251287   2.433   2.706  13.270  0.6288  0.2995  0.0967
 9958TIP3   OH251288   0.851   4.287  15.291 -0.0117 -0.5433  0.4011
 9958TIP3    H151289   0.761   4.291  15.324 -0.7459 -1.4533 -1.3354
 9958TIP3    H251290   0.861   4.197  15.260  1.0303 -0.0785 -0.6660
 9959TIP3   OH251291   4.355   2.325  12.380  0.2025 -0.1982 -1.1507
 9959TIP3    H151292   4.367   2.291  12.291  2.5260  1.4809 -1.5758
 9959TIP3    H251293   4.303   2.405  12.367  4.1566  2.5420 -1.7558
 9960TIP3   OH251294   4.263   6.161   4.683  0.1799  0.0632 -0.1642
 9960TIP3    H151295   4.229   6.075   4.661  0.8336 -0.0315 -0.8759
 9960TIP3    H251296   4.322   6.146   4.757  1.8914 -0.4592 -1.5800
 9961TIP3   OH251297   4.075   3.698  12.675 -0.0440  0.2415 -0.0033
 9961TIP3    H151298   4.123   3.773  12.710  1.3314 -0.2875 -0.6657
 9961TIP3    H251299   4.071   3.713  12.581  2.9911 -1.8624 -0.6413
 9962TIP3   OH251300   6.310   5.767  14.888 -0.1528  0.0640 -0.3404
 9962TIP3    H151301   6.393   5.734  14.853  0.6310  2.2675 -0.7267
 9962TIP3    H251302   6.268   5.809  14.813  1.1361  4.0804  0.9785
 9963TIP3   OH251303   0.682   2.618   4.946 -0.3907  0.2666  0.4315
 9963TIP3    H151304   0.742   2.642   4.875 -0.7119 -0.4205 -0.0901
 9963TIP3    H251305   0.597   2.606   4.902 -0.5488 -0.3467  0.8966
 9964TIP3   OH251306   0.893   3.884   0.692 -0.0291 -0.4477  0.1569
 9964TIP3    H151307   0.855   3.797   0.705 -1.5674  0.1910  0.0802
 9964TIP3    H251308   0.922   3.911   0.779  0.5986 -1.0872  0.1559
 9965TIP3   OH251309   0.686   6.689   2.541 -0.1664 -1.1484 -0.1864
 9965TIP3    H151310   0.747   6.716   2.471  1.8096 -1.6582  1.2427
 9965TIP3    H251311   0.615   6.644   2.495 -0.1751  0.6056 -2.0540
 9966TIP3   OH251312   0.949   5.582   1.786  0.7354  0.3822  0.1279
 9966TIP3    H151313   0.967   5.542   1.871  0.1016  0.8942  0.5097
 9966TIP3    H251314   1.025   5.639   1.770  1.8041 -1.1861 -0.5756
 9967TIP3   OH251315   1.446   3.047  14.322 -0.0874  0.4244  0.6924
 9967TIP3    H151316   1.529   3.008  14.297 -0.3287  0.0653  0.4505
 9967TIP3    H251317   1.468   3.104  14.396  0.4009  0.4685  0.5184
 9968TIP3   OH251318   5.781   0.625  12.530  0.2537 -0.1170 -0.4369
 9968TIP3    H151319   5.755   0.685  12.600  1.5819 -1.1454  1.0086
 9968TIP3    H251320   5.773   0.676  12.450 -2.7410  0.6649  0.2376
 9969TIP3   OH251321   5.630   0.058   2.325  0.1277 -0.2326  0.0113
 9969TIP3    H151322   5.551   0.050   2.378  0.3424  1.4453  0.6449
 9969TIP3    H251323   5.689   0.113   2.377  1.1601 -0.2707 -1.0640
 9970TIP3   OH251324   4.017   4.045  13.756  0.0041  0.7499  0.3300
 9970TIP3    H151325   3.993   4.006  13.672 -0.3137  0.8243  0.3825
 9970TIP3    H251326   3.950   4.014  13.817  0.5595  0.2285  0.6904
 9971TIP3   OH251327   1.431   5.720  14.993  0.6941 -0.1584 -0.0377
 9971TIP3    H151328   1.351   5.762  14.964 -0.9720 -2.9142  0.1408
 9971TIP3    H251329   1.444   5.647  14.932 -0.8022 -3.8159  3.4843
 9972TIP3   OH251330   6.652   1.625  10.812  0.2332  0.4101  0.7005
 9972TIP3    H151331   6.704   1.572  10.751 -1.3229  0.9372 -1.2235
 9972TIP3    H251332   6.693   1.712  10.809 -1.0431  1.0332 -1.4028
 9973TIP3   OH251333   3.135   5.702  13.918  0.0219  0.5143 -0.1231
 9973TIP3    H151334   3.054   5.730  13.876 -1.1339  0.9442  2.2448
 9973TIP3    H251335   3.113   5.619  13.959  0.6026  0.9051  1.0173
 9974TIP3   OH251336   2.613   5.922   5.662  0.2259 -0.0662  0.0294
 9974TIP3    H151337   2.547   5.969   5.713  0.0907  0.6317 -0.7590
 9974TIP3    H251338   2.696   5.945   5.702  0.0647 -0.1837  0.4384
 9975TIP3   OH251339   5.586   2.960   2.395 -0.2743 -0.3074 -0.2345
 9975TIP3    H151340   5.598   3.054   2.405  1.3827 -0.1018 -3.1286
 9975TIP3    H251341   5.666   2.922   2.432 -0.2832 -0.4728 -0.3836
 9976TIP3   OH251342   0.385   0.976  15.213 -0.5365 -0.4804  0.0196
 9976TIP3    H151343   0.323   0.931  15.157 -1.6723  1.1718 -0.1172
 9976TIP3    H251344   0.358   0.954  15.302 -0.7591 -0.4741 -0.0472
 9977TIP3   OH251345   3.483   4.147  14.424 -0.2474 -0.9471 -0.1859
 9977TIP3    H151346   3.518   4.070  14.469  0.2512 -0.3254  0.5124
 9977TIP3    H251347   3.410   4.175  14.480  0.4320 -0.1163  0.3066
 9978TIP3   OH251348   3.665   2.994  13.842  0.0230 -0.0692  0.4041
 9978TIP3    H151349   3.692   2.903  13.850 -2.6154 -1.1120 -1.3388
 9978TIP3    H251350   3.729   3.033  13.783 -0.3618 -1.5848 -1.0811
 9979TIP3   OH251351   0.047   4.334   0.213  0.6666 -0.5009 -0.2534
 9979TIP3    H151352   0.130   4.322   0.166  1.5390  0.9966  0.8233
 9979TIP3    H251353   0.068   4.314   0.304 -0.3988 -1.0136 -0.1132
 9980TIP3   OH251354   3.495   2.834   1.676 -0.3272 -0.1802 -0.0236
 9980TIP3    H151355   3.425   2.809   1.736  0.2800 -1.6594  0.1012
 9980TIP3    H251356   3.462   2.912   1.632 -2.0244 -0.7945  0.0892
 9981TIP3   OH251357   1.496   6.385  13.954  0.0195 -0.5618  0.0273
 9981TIP3    H151358   1.520   6.449  14.021 -0.9678  0.0582 -0.1986
 9981TIP3    H251359   1.529   6.302  13.989  1.5193  0.0745  0.2156
 9982TIP3   OH251360   6.780   6.066  15.119 -0.1359 -0.4027 -0.4091
 9982TIP3    H151361   6.823   6.011  15.185 -0.6078  0.2678  0.4809
 9982TIP3    H251362   6.687   6.060  15.141 -0.2405  0.3018 -0.6491
 9983TIP3   OH251363   3.798   0.563  11.693  0.4665 -0.0432 -0.2214
 9983TIP3    H151364   3.856   0.513  11.750  0.1883 -0.6481 -0.4550
 9983TIP3    H251365   3.718   0.574  11.745  0.0698 -0.9282 -0.6168
 9984TIP3   OH251366   2.846   6.780   2.974  0.4543 -0.1330  0.0475
 9984TIP3    H151367   2.829   6.690   3.001 -1.2338  0.0193 -0.3706
 9984TIP3    H251368   2.895   6.818   3.047  0.2570 -1.1027  0.7008
 9985TIP3   OH251369   1.324   5.057   2.692 -0.0584 -0.1687  0.0127
 9985TIP3    H151370   1.407   5.040   2.736  0.8940  1.0395 -1.2261
 9985TIP3    H251371   1.348   5.106   2.614 -1.5976 -2.6689 -2.2044
 9986TIP3   OH251372   2.963   1.390  13.978 -0.1061 -0.2794 -0.1894
 9986TIP3    H151373   2.996   1.455  13.916 -1.3826  0.6433  0.0512
 9986TIP3    H251374   2.939   1.315  13.924 -2.1321  0.8868 -0.9855
 9987TIP3   OH251375   3.839   6.534  11.390 -0.0345 -0.6632  0.2393
 9987TIP3    H151376   3.887   6.569  11.465  1.9339  2.1135 -2.0793
 9987TIP3    H251377   3.766   6.594  11.377 -0.5506 -1.3071  0.0884
 9988TIP3   OH251378   6.485   1.307  11.396 -0.8228 -0.4766  0.5318
 9988TIP3    H151379   6.511   1.295  11.487  0.2041  2.1096  0.6404
 9988TIP3    H251380   6.389   1.308  11.398 -0.8885 -2.7045  1.1881
 9989TIP3   OH251381   2.224   0.279   4.861 -0.5671  0.5069 -0.6033
 9989TIP3    H151382   2.196   0.235   4.781  0.9926 -1.1914 -0.2782
 9989TIP3    H251383   2.319   0.288   4.852 -0.4309  0.7360  0.8385
 9990TIP3   OH251384   2.751   1.111   3.635  0.3836 -0.5481  0.7808
 9990TIP3    H151385   2.790   1.056   3.568 -0.4538 -0.8680  0.5556
 9990TIP3    H251386   2.788   1.198   3.619  1.4319 -0.9524  0.9217
 9991TIP3   OH251387   2.645   1.272   0.845  0.0761  0.1143  0.0324
 9991TIP3    H151388   2.577   1.219   0.887 -0.5019  0.5818 -0.3036
 9991TIP3    H251389   2.683   1.323   0.917  0.6796 -0.7820  0.3720
 9992TIP3   OH251390   6.016   1.443   5.280  0.1468 -0.2684  0.1678
 9992TIP3    H151391   6.006   1.428   5.374 -0.6897  2.2151  0.5376
 9992TIP3    H251392   6.107   1.471   5.270  0.0389  0.1468  0.3445
 9993TIP3   OH251393   5.970   5.576  14.610 -0.1219  0.4424 -0.9151
 9993TIP3    H151394   5.952   5.646  14.673 -2.0303 -1.3579  0.6821
 9993TIP3    H251395   5.885   5.557  14.569  0.4542 -0.5997 -1.6884
 9994TIP3   OH251396   0.272   6.665  14.196 -0.0193  0.0259  0.3308
 9994TIP3    H151397   0.250   6.621  14.113  0.9396  1.7009 -0.8708
 9994TIP3    H251398   0.194   6.717  14.216  0.3404  0.8881 -0.4286
 9995TIP3   OH251399   1.188   4.676  14.081  0.4925  0.4540  0.1873
 9995TIP3    H151400   1.275   4.713  14.097 -0.5107  2.6001  1.1710
 9995TIP3    H251401   1.158   4.721  14.003  0.7389 -1.2857 -0.9642
 9996TIP3   OH251402   2.685   5.385   2.871  0.1603 -0.3329  0.5371
 9996TIP3    H151403   2.595   5.415   2.888 -0.4581 -1.7469 -0.1056
 9996TIP3    H251404   2.731   5.399   2.954 -0.2452  1.6939  0.4867
 9997TIP3   OH251405   2.922   2.165  12.789 -0.1963 -0.4140  0.3308
 9997TIP3    H151406   2.989   2.216  12.834 -0.4780 -0.9107  1.3311
 9997TIP3    H251407   2.971   2.100  12.738  0.0876 -1.8680  2.3492
 9998TIP3   OH251408   3.703   1.718  15.664 -0.0736 -0.0196  0.3032
 9998TIP3    H151409   3.648   1.655  15.712  0.3516  0.5805  1.6139
 9998TIP3    H251410   3.653   1.799  15.666 -0.2185 -0.0835 -0.6087
 9999TIP3   OH251411   0.645   5.401   5.523  0.1191  0.0719 -0.1083
 9999TIP3    H151412   0.556   5.412   5.555  0.3014  1.2162  0.0468
 9999TIP3    H251413   0.644   5.316   5.479 -1.3986  0.6180 -1.2475
10000TIP3   OH251414   2.158   6.664   1.055 -0.0335  0.1169 -0.5390
10000TIP3    H151415   2.249   6.639   1.042 -0.1188 -1.0961  0.9152
10000TIP3    H251416   2.128   6.689   0.968  1.4970 -0.0966 -1.1638
10001TIP3   OH251417   1.129   0.759   1.078 -0.5438 -0.6222  0.0071
10001TIP3    H151418   1.112   0.777   0.985 -0.9004 -1.0327 -0.0146
10001TIP3    H251419   1.042   0.748   1.116 -0.4299  0.3662  0.5720
10002TIP3   OH251420   0.873   4.601  13.372  0.6087 -0.2120 -0.3017
10002TIP3    H151421   0.879   4.555  13.456 -2.3905 -0.2818  0.0047
10002TIP3    H251422   0.845   4.689  13.394 -0.1504 -0.2069 -1.1970
10003TIP3   OH251423   3.501   6.509  15.435 -0.0315  0.5119  0.3209
10003TIP3    H151424   3.566   6.571  15.403  0.4274 -0.0594  0.1248
10003TIP3    H251425   3.445   6.490  15.360  0.8501 -0.5838 -0.0780
10004TIP3   OH251426   6.675   2.957   1.491  0.3213 -0.2414 -0.0429
10004TIP3    H151427   6.720   2.880   1.457 -1.3199 -1.3348  0.1543
10004TIP3    H251428   6.738   3.029   1.478  1.5779 -1.4448 -0.9701
10005TIP3   OH251429   4.773   4.639  12.162  0.2487  0.0246  0.5975
10005TIP3    H151430   4.742   4.615  12.249  0.4976  0.1990  0.7362
10005TIP3    H251431   4.763   4.735  12.159 -1.2288 -0.1311 -0.1434
10006TIP3   OH251432   0.681   4.382  14.275  0.3284 -0.0727  0.1233
10006TIP3    H151433   0.752   4.337  14.229  1.3061  0.1887  1.3335
10006TIP3    H251434   0.723   4.424  14.349 -1.3146 -1.2481  1.8200
10007TIP3   OH251435   5.631   2.989   5.427 -0.7251 -0.2405 -0.5877
10007TIP3    H151436   5.674   3.074   5.421 -1.9424  0.4267 -0.1040
10007TIP3    H251437   5.659   2.943   5.347  0.6383  0.2583 -0.4266
10008TIP3   OH251438   0.733   3.294   1.572  0.2915  0.7426  0.0141
10008TIP3    H151439   0.701   3.205   1.590 -0.4443 -0.1771 -4.5238
10008TIP3    H251440   0.657   3.350   1.587 -0.4469 -0.0016 -0.7597
10009TIP3   OH251441   0.522   6.021   3.661 -0.5515  0.3630 -0.1612
10009TIP3    H151442   0.488   6.044   3.747 -1.5074  0.4970 -0.5646
10009TIP3    H251443   0.559   5.934   3.671  1.1034  1.1423  0.8534
10010TIP3   OH251444   3.288   0.922   4.285 -0.0610  0.7603  0.9511
10010TIP3    H151445   3.238   0.841   4.297 -0.1337  0.8759  1.4255
10010TIP3    H251446   3.282   0.967   4.369  0.2225  1.1246  0.7785
10011TIP3   OH251447   5.555   1.201   2.330 -0.3658 -0.3429 -0.0084
10011TIP3    H151448   5.544   1.130   2.393  0.7171 -2.0719 -1.6489
10011TIP3    H251449   5.468   1.215   2.293 -0.7570 -0.1787  0.9485
10012TIP3   OH251450   5.912   4.178   1.248 -0.4640  0.1138  0.4855
10012TIP3    H151451   5.956   4.138   1.173 -0.7884 -2.0038  1.3456
10012TIP3    H251452   5.922   4.272   1.234  1.3774 -0.2409 -1.0678
10013TIP3   OH251453   5.930   3.127  13.006  0.7508  0.5671  0.2466
10013TIP3    H151454   5.956   3.044  12.967 -1.8196 -0.2238  0.0510
10013TIP3    H251455   5.972   3.127  13.092  0.2014 -1.3314  0.5569
10014TIP3   OH251456   4.090   2.922  14.810 -0.2860 -0.2039  0.0325
10014TIP3    H151457   4.153   2.963  14.751 -1.7681  1.1259 -0.6905
10014TIP3    H251458   4.005   2.941  14.771 -1.3016  0.4084  2.4245
10015TIP3   OH251459   1.885   1.475  16.741  0.0392 -0.3396 -0.3468
10015TIP3    H151460   1.838   1.550  16.704  0.7470 -0.3393 -1.2717
10015TIP3    H251461   1.911   1.504  16.828  0.4738  0.5658 -0.7737
10016TIP3   OH251462   4.822   1.536  11.467  0.6375  0.7261  0.0467
10016TIP3    H151463   4.836   1.568  11.557  0.6728  1.2929 -0.1592
10016TIP3    H251464   4.865   1.600  11.412  2.7347 -0.8699 -0.2819
10017TIP3   OH251465   3.195   4.634  16.191  0.5585 -0.1175 -0.4537
10017TIP3    H151466   3.188   4.718  16.235  0.2965 -0.6896  0.6442
10017TIP3    H251467   3.235   4.654  16.107  1.6435  0.9418  0.2829
10018TIP3   OH251468   2.352   6.053   3.975  0.3543  0.4952  0.1630
10018TIP3    H151469   2.379   6.123   3.915  1.4373  0.1128  0.1729
10018TIP3    H251470   2.434   6.024   4.015 -0.1778 -0.2732  0.7130
10019TIP3   OH251471   0.715   3.079   6.110  0.1005 -0.3353 -0.0337
10019TIP3    H151472   0.647   3.144   6.131  2.0369  0.7307  4.0371
10019TIP3    H251473   0.682   2.997   6.146 -0.0966 -0.3726 -0.3033
10020TIP3   OH251474   2.227   4.336   1.665 -0.4101 -0.1807  0.3768
10020TIP3    H151475   2.265   4.401   1.724  0.6865 -0.6430  0.2122
10020TIP3    H251476   2.205   4.262   1.721  1.3755 -0.9436  0.1522
10021TIP3   OH251477   1.183   2.715   1.715 -0.0219  0.3847  0.0855
10021TIP3    H151478   1.097   2.755   1.700 -0.1672  0.3732  0.8470
10021TIP3    H251479   1.177   2.679   1.803  0.3592 -0.6798 -0.3158
10022TIP3   OH251480   6.446   5.289  13.520 -0.3851  0.5086 -0.1736
10022TIP3    H151481   6.453   5.201  13.559 -2.0506  0.0300 -0.8837
10022TIP3    H251482   6.423   5.346  13.593  0.9868  0.4459  0.3494
10023TIP3   OH251483   2.353   5.242  15.653 -0.2029 -0.3835  0.5045
10023TIP3    H151484   2.388   5.178  15.591  1.1164 -0.3401  1.1633
10023TIP3    H251485   2.369   5.327  15.612  3.0031 -0.1795  1.8914
10024TIP3   OH251486   1.516   6.748  14.688 -0.3358  0.4070 -0.2650
10024TIP3    H151487   1.566   6.774  14.765  0.9605 -2.0498 -0.1677
10024TIP3    H251488   1.571   6.775  14.614  0.7787 -1.4047 -0.1715
10025TIP3   OH251489   1.617   1.378   1.214 -0.0350 -0.1675  0.7374
10025TIP3    H151490   1.562   1.375   1.135 -0.6583  0.4944  1.1395
10025TIP3    H251491   1.557   1.401   1.284  0.7728  0.6772  1.1669
10026TIP3   OH251492   5.034   2.649  14.614 -0.2625 -0.8100  0.7996
10026TIP3    H151493   5.051   2.742  14.621 -0.5382 -0.5951 -1.0233
10026TIP3    H251494   4.939   2.642  14.601 -0.1336 -1.2630 -0.0012
10027TIP3   OH251495   1.990   4.665  14.900  0.5600 -0.3686  0.2035
10027TIP3    H151496   2.045   4.628  14.831 -1.5800  0.3672 -2.0104
10027TIP3    H251497   1.955   4.746  14.863  1.9269  1.9153  3.4247
10028TIP3   OH251498   5.765   0.210   5.755  0.0914 -0.3519 -0.0131
10028TIP3    H151499   5.821   0.155   5.811  0.1411 -0.3839 -0.0937
10028TIP3    H251500   5.686   0.224   5.807  0.6001  0.5587  0.5228
10029TIP3   OH251501   3.836   6.266   1.044 -0.3667  0.1447 -0.0830
10029TIP3    H151502   3.909   6.321   1.071 -0.0001  0.2549 -1.2661
10029TIP3    H251503   3.790   6.246   1.126  0.5873  0.6289  0.5878
10030TIP3   OH251504   5.663   4.940   2.097  0.0050  0.1900 -0.0244
10030TIP3    H151505   5.702   4.891   2.024 -0.4238  1.9855 -1.5353
10030TIP3    H251506   5.738   4.967   2.151  0.3291 -1.1281  0.2165
10031TIP3   OH251507   3.073   3.837  13.526 -0.4088 -0.1055 -0.0938
10031TIP3    H151508   3.020   3.822  13.604 -0.2172 -1.0222 -0.1279
10031TIP3    H251509   3.009   3.847  13.455 -0.5570 -0.4991 -0.0180
10032TIP3   OH251510   6.350   5.647  12.709 -0.3633  0.1286 -0.1394
10032TIP3    H151511   6.305   5.603  12.637  0.5366 -1.0725  0.0123
10032TIP3    H251512   6.392   5.577  12.758  0.7842  1.1081  0.3360
10033TIP3   OH251513   1.727   0.816   5.277 -0.1281  0.1712  0.6258
10033TIP3    H151514   1.658   0.882   5.265 -1.2931 -1.2059 -0.6356
10033TIP3    H251515   1.751   0.790   5.188 -0.4565 -1.8615  1.0847
10034TIP3   OH251516   3.647   4.483   2.348  0.4058 -0.1334  0.4315
10034TIP3    H151517   3.562   4.488   2.392 -0.4799  0.9634 -1.3059
10034TIP3    H251518   3.653   4.392   2.319 -1.2040  0.2334 -1.2540
10035TIP3   OH251519   3.638   5.019   2.991 -0.2317  0.2314 -0.1910
10035TIP3    H151520   3.636   5.108   2.957  0.4727  0.8381  1.3052
10035TIP3    H251521   3.694   5.023   3.068 -0.4532 -1.4451  0.1032
10036TIP3   OH251522   3.829   3.176   6.337  0.0688 -0.0159 -0.4069
10036TIP3    H151523   3.785   3.135   6.411 -0.0498 -0.4116 -0.6952
10036TIP3    H251524   3.920   3.187   6.366  0.0936 -0.4596 -0.3170
10037TIP3   OH251525   2.164   6.737   2.252 -0.4213 -0.1559 -0.2356
10037TIP3    H151526   2.126   6.677   2.317 -2.8655  2.0550  0.5489
10037TIP3    H251527   2.170   6.685   2.172 -0.3486 -2.0434  0.9166
10038TIP3   OH251528   3.619   2.660   1.969  0.4700  0.1022  0.1393
10038TIP3    H151529   3.671   2.635   2.045  1.3137 -0.1993 -0.5255
10038TIP3    H251530   3.602   2.578   1.923 -1.5660  0.0319  0.9146
10039TIP3   OH251531   6.292   5.695  13.321 -0.1124 -0.1789  0.1242
10039TIP3    H151532   6.341   5.676  13.241 -0.2525 -0.4962  0.1110
10039TIP3    H251533   6.255   5.782  13.306 -0.2298 -0.2828 -0.2046
10040TIP3   OH251534   2.798   1.072  11.526 -0.1217 -0.7385 -0.3399
10040TIP3    H151535   2.881   1.026  11.519  0.0882 -0.3593 -0.3452
10040TIP3    H251536   2.822   1.164  11.537 -0.5409 -0.5587 -0.8455
10041TIP3   OH251537   6.120   6.110  11.168 -0.1269 -0.2473  0.6254
10041TIP3    H151538   6.081   6.025  11.190  0.6010 -1.1661 -1.3773
10041TIP3    H251539   6.164   6.095  11.084 -1.8754  2.6648 -1.0013
10042TIP3   OH251540   5.298   0.555   1.032  0.0988 -0.0487  0.1225
10042TIP3    H151541   5.203   0.562   1.043  0.3266 -0.2697  2.8652
10042TIP3    H251542   5.309   0.503   0.952 -2.0610 -0.1457 -0.1755
10043TIP3   OH251543   6.253   0.067   0.315 -0.4451 -0.6446 -0.2926
10043TIP3    H151544   6.198   0.021   0.251 -0.7265 -0.0394 -0.4929
10043TIP3    H251545   6.208   0.054   0.398 -0.4853 -0.7934 -0.3365
10044TIP3   OH251546   3.675   4.767   3.802  0.6801 -0.1284 -0.0780
10044TIP3    H151547   3.629   4.706   3.745  1.4597 -0.1399 -0.7061
10044TIP3    H251548   3.724   4.711   3.863  0.4779 -0.1175  0.0975
10045TIP3   OH251549   5.638   3.494   5.726 -0.1950  0.0264  0.2641
10045TIP3    H151550   5.667   3.413   5.685 -1.1141 -0.3132  0.2585
10045TIP3    H251551   5.661   3.562   5.663 -1.5935 -0.4904 -0.8432
10046TIP3   OH251552   1.985   1.224   4.319 -0.2569  0.1337 -0.3197
10046TIP3    H151553   1.920   1.196   4.254 -0.3903  0.2773 -0.2497
10046TIP3    H251554   1.992   1.319   4.305 -0.8739  0.2887  0.4150
10047TIP3   OH251555   1.416   4.738  13.196 -0.1411  0.5583  0.5258
10047TIP3    H151556   1.499   4.693  13.178  0.2975  1.9142 -1.0354
10047TIP3    H251557   1.427   4.773  13.285  0.6611  0.0987  0.6227
10048TIP3   OH251558   6.060   1.933   0.876  0.1332  0.0945  0.0185
10048TIP3    H151559   6.101   1.860   0.923 -2.4105  0.0430  2.4548
10048TIP3    H251560   6.055   2.003   0.941  1.8117  2.2976 -2.0443
10049TIP3   OH251561   5.400   4.702   4.376 -0.3163 -0.4147 -0.8200
10049TIP3    H151562   5.443   4.644   4.312 -0.7091 -2.0015  0.2847
10049TIP3    H251563   5.465   4.770   4.394  1.5858 -2.4147  0.3662
10050TIP3   OH251564   4.793   4.414  10.330 -0.2134  0.0771  0.2210
10050TIP3    H151565   4.734   4.381  10.262  0.2798 -2.1485  0.7757
10050TIP3    H251566   4.866   4.452  10.281 -1.1224  0.9714 -0.4735
10051TIP3   OH251567   1.820   6.706  14.739  0.0725 -0.1169 -0.4784
10051TIP3    H151568   1.909   6.735  14.759 -0.3887  1.1019 -0.0639
10051TIP3    H251569   1.782   6.685  14.824 -0.2396  0.0127 -0.5845
10052TIP3   OH251570   0.626   6.564  15.846 -0.7628 -0.4497  0.6159
10052TIP3    H151571   0.585   6.624  15.784  0.4635 -0.0161  0.1983
10052TIP3    H251572   0.648   6.487  15.793  0.5596  0.0423  0.4150
10053TIP3   OH251573   5.013   0.679   2.653  0.3516 -0.2331  0.0035
10053TIP3    H151574   5.101   0.668   2.690 -0.2569 -0.8144  1.3414
10053TIP3    H251575   4.995   0.773   2.660  0.6394 -0.1966  0.2531
10054TIP3   OH251576   6.668   0.876   1.353  0.8219  0.0885  0.4215
10054TIP3    H151577   6.615   0.836   1.284 -1.7304  1.2153  1.5944
10054TIP3    H251578   6.632   0.964   1.364  1.4595  0.1297  2.7920
10055TIP3   OH251579   0.254   6.730   0.190 -0.1698 -0.5776 -0.5178
10055TIP3    H151580   0.289   6.651   0.230 -0.5778 -0.4754  0.0406
10055TIP3    H251581   0.236   6.789   0.263  1.3478  0.5502 -0.9821
10056TIP3   OH251582   5.595   6.187   4.087  0.0419 -0.2088  0.6129
10056TIP3    H151583   5.568   6.103   4.050 -3.1072  1.3600 -1.1162
10056TIP3    H251584   5.629   6.236   4.013 -1.8455  1.3188  0.6728
10057TIP3   OH251585   6.215   0.276  15.215  0.0522  0.2453  0.1699
10057TIP3    H151586   6.187   0.187  15.238  1.0092 -0.3838 -0.9577
10057TIP3    H251587   6.135   0.329  15.222 -0.9408 -1.0545 -0.8382
10058TIP3   OH251588   2.432   1.998   1.561 -0.0571  0.4331  0.1853
10058TIP3    H151589   2.356   1.954   1.522  0.1914 -0.1460  0.3466
10058TIP3    H251590   2.506   1.940   1.542  0.5602  1.5622 -0.9937
10059TIP3   OH251591   3.796   1.270   1.424 -0.5155 -0.0655  0.2319
10059TIP3    H151592   3.755   1.345   1.383 -1.5031  0.1126  1.4966
10059TIP3    H251593   3.809   1.207   1.353  1.2739  1.6416 -1.0567
10060TIP3   OH251594   1.913   0.765  15.260  0.3288  0.2194  0.0089
10060TIP3    H151595   1.858   0.712  15.202 -0.7217  1.5218 -0.2563
10060TIP3    H251596   1.936   0.841  15.207  0.0846  1.0072  1.0076
10061TIP3   OH251597   2.740   6.118  12.252  0.5089  0.5491  0.1298
10061TIP3    H151598   2.650   6.085  12.249 -0.7598  3.6885 -2.0557
10061TIP3    H251599   2.741   6.178  12.327  0.3841  1.3294 -0.4711
10062TIP3   OH251600   3.953   4.599  16.495  0.0278 -0.0473 -0.0098
10062TIP3    H151601   3.893   4.571  16.564  0.7308  1.0514  1.1068
10062TIP3    H251602   3.897   4.623  16.422 -0.9188  0.9745  1.0101
10063TIP3   OH251603   6.542   5.923   3.541 -0.4796  0.4194 -0.1764
10063TIP3    H151604   6.557   5.961   3.627 -2.8436  1.3982 -0.1206
10063TIP3    H251605   6.604   5.850   3.536 -0.7172 -0.1031  2.6369
10064TIP3   OH251606   5.375   4.037  13.315  0.2207  0.1052  0.0990
10064TIP3    H151607   5.369   4.104  13.383 -0.3132  0.6758 -0.4926
10064TIP3    H251608   5.290   4.041  13.270 -0.0471 -1.3656  0.4196
10065TIP3   OH251609   3.245   1.495   4.043  0.3315 -0.5268  0.3217
10065TIP3    H151610   3.289   1.543   4.114 -1.8258  1.2500  0.5719
10065TIP3    H251611   3.290   1.523   3.963  0.1934  0.5909  0.6302
10066TIP3   OH251612   6.435   0.760  15.016  0.2232  0.0288 -0.3172
10066TIP3    H151613   6.503   0.731  14.956 -0.6306 -2.7675 -0.0993
10066TIP3    H251614   6.444   0.703  15.093 -1.4124  0.5767  0.3423
10067TIP3   OH251615   4.025   4.447   4.702 -0.1185  0.1978 -0.0415
10067TIP3    H151616   3.959   4.396   4.749  1.0995 -0.6827  0.7963
10067TIP3    H251617   4.070   4.382   4.647  0.7571  0.5494  0.2385
10068TIP3   OH251618   3.918   4.203   0.677 -0.0229  0.0329  0.1949
10068TIP3    H151619   3.851   4.144   0.642 -0.8692  1.6225 -1.0146
10068TIP3    H251620   3.876   4.290   0.677  2.0656  1.1081 -0.7342
10069TIP3   OH251621   5.061   5.356  11.546  0.3916  0.2090  0.2078
10069TIP3    H151622   5.145   5.312  11.540 -0.1958 -0.8514 -0.5780
10069TIP3    H251623   5.000   5.299  11.498 -0.6488  1.2545  0.2352
10070TIP3   OH251624   0.032   0.446  16.614  0.0903  0.0984  0.1392
10070TIP3    H151625  -0.013   0.407  16.539 -0.5741  1.2052 -0.0562
10070TIP3    H251626   0.035   0.376  16.679 -5.0014  0.7792  1.5105
10071TIP3   OH251627   5.341   2.495  15.672  0.0490 -0.1823 -0.1211
10071TIP3    H151628   5.296   2.419  15.710  0.9323 -1.0190 -0.6761
10071TIP3    H251629   5.413   2.512  15.733 -2.1070  2.4780  1.9065
10072TIP3   OH251630   0.870   3.880   1.181  0.3173 -0.5693 -0.5378
10072TIP3    H151631   0.927   3.894   1.256  0.6185 -2.0551 -0.4552
10072TIP3    H251632   0.800   3.944   1.191  1.1132  0.2015  0.2293
10073TIP3   OH251633   3.715   2.975   4.679  0.0327 -0.8595 -0.8530
10073TIP3    H151634   3.803   2.989   4.643  0.5061 -1.3419  0.0796
10073TIP3    H251635   3.724   2.896   4.733 -0.5771 -0.0192  0.5121
10074TIP3   OH251636   0.222   5.174   0.237  0.4488  0.5389  0.2925
10074TIP3    H151637   0.142   5.129   0.208 -0.4097  3.4874 -2.5274
10074TIP3    H251638   0.199   5.210   0.323 -1.3321  1.3024 -0.4491
10075TIP3   OH251639   5.690   2.844  16.177 -0.0553  0.0309  0.0760
10075TIP3    H151640   5.683   2.755  16.143  1.7097  0.3252 -1.1634
10075TIP3    H251641   5.611   2.855  16.231 -0.5048 -2.1269 -0.0479
10076TIP3   OH251642   0.722   2.712  10.830 -0.3648  0.6265 -0.0464
10076TIP3    H151643   0.722   2.688  10.922 -0.4994 -2.6398 -0.7653
10076TIP3    H251644   0.790   2.779  10.822  0.4307  0.1521  2.2075
10077TIP3   OH251645   1.257   1.807   3.055  0.5405 -0.0646  0.1530
10077TIP3    H151646   1.309   1.805   2.975  2.3174 -0.7567  1.2472
10077TIP3    H251647   1.310   1.759   3.119 -0.7648  0.5332  1.7700
10078TIP3   OH251648   5.307   1.992  17.032  0.0520 -0.0020  0.0846
10078TIP3    H151649   5.285   1.899  17.028  1.1633 -0.2512 -0.7086
10078TIP3    H251650   5.402   1.993  17.047  0.4430  0.9599 -2.1136
10079TIP3   OH251651   3.429   0.471  12.809  0.3103  0.4196  0.0600
10079TIP3    H151652   3.383   0.388  12.798  0.7273 -0.0774  1.7739
10079TIP3    H251653   3.479   0.482  12.727  1.0422 -1.5268  0.1861
10080TIP3   OH251654   1.123   4.405   3.192  0.7615 -0.0077 -0.1054
10080TIP3    H151655   1.069   4.359   3.256 -0.6034 -0.2350 -1.3643
10080TIP3    H251656   1.059   4.450   3.136  1.9597  1.0142 -0.6823
10081TIP3   OH251657   0.839   5.626   2.361 -0.1343  0.1908 -0.1012
10081TIP3    H151658   0.880   5.706   2.330 -0.8321  0.8412  0.6143
10081TIP3    H251659   0.794   5.590   2.284  1.7557 -0.5537 -0.9067
10082TIP3   OH251660   0.746   0.797  13.594 -0.3125 -0.1553  0.0950
10082TIP3    H151661   0.812   0.756  13.537  0.4611 -0.5656  1.2643
10082TIP3    H251662   0.735   0.735  13.666 -3.2179 -0.9017 -0.8494
10083TIP3   OH251663   2.233   2.487   0.700 -0.4407  0.3109  0.5564
10083TIP3    H151664   2.184   2.407   0.678  0.4269 -0.2648  0.6741
10083TIP3    H251665   2.323   2.458   0.710  0.4654  1.7435 -2.3109
10084TIP3   OH251666   1.447   1.716   5.460 -0.2538 -0.2073 -0.2659
10084TIP3    H151667   1.533   1.678   5.477  0.0099  0.5402  0.1089
10084TIP3    H251668   1.446   1.732   5.365  1.3288  2.7882  0.1212
10085TIP3   OH251669   1.229   5.453   2.216  0.2234  0.2398  0.5525
10085TIP3    H151670   1.256   5.490   2.300 -1.8189  0.5799  1.1322
10085TIP3    H251671   1.282   5.374   2.206  1.1997  0.7247  1.6722
10086TIP3   OH251672   3.675   4.132  16.278 -0.2868 -0.1491 -0.1326
10086TIP3    H151673   3.642   4.165  16.194 -1.0507  0.4508  0.3717
10086TIP3    H251674   3.716   4.209  16.319  2.6268 -1.0689 -1.0998
10087TIP3   OH251675   6.130   6.343  10.731  0.2598 -0.2371  0.1308
10087TIP3    H151676   6.115   6.300  10.816  0.5239 -1.5445 -0.4547
10087TIP3    H251677   6.157   6.272  10.673 -1.8631  0.2318 -1.5942
10088TIP3   OH251678   5.608   1.347  12.920  0.0285 -0.0308 -0.2530
10088TIP3    H151679   5.643   1.279  12.978  1.5076  0.4347 -0.5529
10088TIP3    H251680   5.518   1.321  12.904 -0.6920  0.2441  2.8633
10089TIP3   OH251681   6.266   6.370   6.133 -0.1566  0.3027  0.4562
10089TIP3    H151682   6.340   6.313   6.112 -0.5407  0.0886 -0.3832
10089TIP3    H251683   6.253   6.422   6.053  0.8205  2.3065  1.5382
10090TIP3   OH251684   4.815   2.057   5.511  0.0555  0.2232  0.5342
10090TIP3    H151685   4.790   2.085   5.599 -2.3015 -1.6926  0.5812
10090TIP3    H251686   4.908   2.037   5.517  0.3372  1.7533  2.1015
10091TIP3   OH251687   5.812   2.724   4.088 -0.1114  0.2272  0.2219
10091TIP3    H151688   5.845   2.642   4.051 -1.1118 -0.5026  0.8898
10091TIP3    H251689   5.802   2.706   4.182  1.5878  1.7778  0.7761
10092TIP3   OH251690   2.774   6.347   2.331 -0.0207 -0.0143  1.2350
10092TIP3    H151691   2.758   6.280   2.265 -2.5890  1.0064  0.7078
10092TIP3    H251692   2.833   6.305   2.394  0.9070 -1.6752 -0.6467
10093TIP3   OH251693   5.628   3.241  11.916 -0.3175 -0.2979 -0.1250
10093TIP3    H151694   5.720   3.237  11.939 -0.2577 -1.5539 -0.5056
10093TIP3    H251695   5.615   3.331  11.886  0.3499  0.4074  1.5709
10094TIP3   OH251696   0.649   1.367   0.071 -0.1158 -0.2778  0.3293
10094TIP3    H151697   0.732   1.353   0.026  0.8648  0.5656  1.7913
10094TIP3    H251698   0.665   1.443   0.127 -2.8194  1.9863 -1.6614
10095TIP3   OH251699   3.426   3.493   0.828  0.1591 -0.4496 -0.1753
10095TIP3    H151700   3.461   3.563   0.774  0.7898  0.5436  1.4470
10095TIP3    H251701   3.339   3.524   0.855 -0.4901 -1.2926 -1.2255
10096TIP3   OH251702   0.338   3.268  11.138  0.3710 -0.1098 -0.7429
10096TIP3    H151703   0.408   3.271  11.203  0.5271 -0.1471 -0.9108
10096TIP3    H251704   0.311   3.359  11.128 -0.8023 -0.2579  0.6228
10097TIP3   OH251705   6.005   0.897  11.681  0.0893 -0.5706 -0.0589
10097TIP3    H151706   6.024   0.859  11.595 -1.1872 -1.9927  0.2475
10097TIP3    H251707   6.049   0.838  11.743 -0.4123 -0.5420  0.3309
10098TIP3   OH251708   3.153   0.083   3.007  0.4819  0.6675  0.1670
10098TIP3    H151709   3.082   0.142   3.031  1.1998  1.8324 -0.4826
10098TIP3    H251710   3.215   0.138   2.959  0.9608 -0.7244 -0.8783
10099TIP3   OH251711   4.311   6.456   4.921  0.1123  0.6612 -0.0349
10099TIP3    H151712   4.366   6.383   4.892 -1.7146 -0.8730  0.1883
10099TIP3    H251713   4.291   6.436   5.012 -0.0875  1.6841  0.1554
10100TIP3   OH251714   1.928   6.204   6.580 -0.1997  0.6864  0.2497
10100TIP3    H151715   1.857   6.228   6.521  0.5284  1.7106 -0.2416
10100TIP3    H251716   1.923   6.268   6.652  1.1344  1.7603 -0.5609
10101TIP3   OH251717   5.361   3.725   1.580 -0.3188 -0.2211 -0.1092
10101TIP3    H151718   5.419   3.769   1.517  0.7989  0.3712  1.2686
10101TIP3    H251719   5.273   3.745   1.550  0.1834  0.1830 -1.3886
10102TIP3   OH251720   0.316   0.307  15.479  0.1229  0.6027 -0.0674
10102TIP3    H151721   0.355   0.394  15.490  0.6331  0.2806  0.7467
10102TIP3    H251722   0.268   0.313  15.396  1.1720  1.2780 -0.6460
10103TIP3   OH251723   4.753   3.461  14.576 -0.2217  0.0390  0.4755
10103TIP3    H151724   4.741   3.405  14.652  2.6804  0.1868  1.1619
10103TIP3    H251725   4.756   3.550  14.611 -1.0435  0.3072 -0.1110
10104TIP3   OH251726   2.922   1.289   0.732 -0.0138  0.1502 -0.1007
10104TIP3    H151727   2.841   1.320   0.772 -0.4544  0.9510 -1.5312
10104TIP3    H251728   2.968   1.369   0.706  1.3689 -0.2887  0.8916
10105TIP3   OH251729   4.669   0.495   1.850 -0.1323 -0.0277  0.0762
10105TIP3    H151730   4.726   0.515   1.776  0.5635 -2.3778 -0.1162
10105TIP3    H251731   4.726   0.452   1.914 -1.2787 -0.6992  0.7013
10106TIP3   OH251732   6.011   4.411   6.038  0.1165 -1.1120 -0.3001
10106TIP3    H151733   5.930   4.460   6.054 -0.1066 -1.5053 -0.1955
10106TIP3    H251734   5.980   4.323   6.015  0.5413 -1.4410  0.3826
10107TIP3   OH251735   1.447   2.929  12.646 -0.3342  0.6968  0.8982
10107TIP3    H151736   1.376   2.879  12.605 -1.2231  2.3577  0.3272
10107TIP3    H251737   1.496   2.864  12.696  0.1266 -1.2128 -1.8617
10108TIP3   OH251738   4.662   0.094  13.892 -0.2032 -0.1437  0.9785
10108TIP3    H151739   4.617   0.164  13.845  2.0341  1.0395  0.4293
10108TIP3    H251740   4.652   0.017  13.836  1.3988  0.9493 -0.9571
10109TIP3   OH251741   0.039   4.097   1.297 -0.4368 -0.4212  0.4562
10109TIP3    H151742   0.039   4.191   1.315 -0.3029 -0.5393  1.0655
10109TIP3    H251743   0.122   4.066   1.332 -0.1580 -0.6544 -0.3796
10110TIP3   OH251744   5.578   6.657  17.024  0.7564 -0.3367  0.2188
10110TIP3    H151745   5.568   6.575  17.074  1.2453 -1.3203 -1.2399
10110TIP3    H251746   5.488   6.689  17.013  0.3427 -1.7348 -0.8505
10111TIP3   OH251747   1.925   0.977  16.376  0.0126 -0.1011 -0.1960
10111TIP3    H151748   1.871   1.049  16.407  2.7590  2.4416 -0.8150
10111TIP3    H251749   2.007   0.986  16.425  0.9659 -1.9279 -1.3476
10112TIP3   OH251750   5.152   1.630   1.020 -0.4790 -0.0942 -0.0825
10112TIP3    H151751   5.086   1.636   0.951 -1.9220 -0.3552  1.2253
10112TIP3    H251752   5.198   1.714   1.016 -1.1308  0.2502 -0.7833
10113TIP3   OH251753   2.935   0.093  11.814 -0.1791  0.7581  0.3872
10113TIP3    H151754   2.990   0.095  11.735  0.0294 -1.6708  0.4003
10113TIP3    H251755   2.847   0.076  11.781  0.1206 -1.7830  0.6456
10114TIP3   OH251756   1.444   3.526  14.142  0.0443  0.4246  0.3824
10114TIP3    H151757   1.491   3.590  14.196  1.0146 -0.2228  0.3428
10114TIP3    H251758   1.354   3.528  14.176 -0.3635  2.8675 -0.5902
10115TIP3   OH251759   6.703   1.689  12.298 -0.2614  0.4684  0.1212
10115TIP3    H151760   6.785   1.642  12.313  0.5737  1.5621 -0.8716
10115TIP3    H251761   6.657   1.683  12.381  1.7430  1.5954  1.3859
10116TIP3   OH251762   1.888   1.223  15.602  0.3669  0.4357 -0.3420
10116TIP3    H151763   1.877   1.134  15.568  0.0039  0.1661  0.4689
10116TIP3    H251764   1.848   1.221  15.689  0.6608  1.3017 -0.1777
10117TIP3   OH251765   3.721   6.817   1.351 -0.0065 -0.3409 -0.4598
10117TIP3    H151766   3.745   6.868   1.273  0.9730  0.4566  0.3259
10117TIP3    H251767   3.747   6.873   1.425 -1.8235 -0.6497  0.4622
10118TIP3   OH251768   2.630   5.767  14.522 -0.5929  0.0712  0.4927
10118TIP3    H151769   2.720   5.734  14.523  0.6644  3.0341 -1.4501
10118TIP3    H251770   2.630   5.838  14.586 -1.1670  0.9351 -0.4449
10119TIP3   OH251771   4.427   4.969   4.329  0.0195  0.0931  0.3230
10119TIP3    H151772   4.474   4.934   4.253  0.1643  0.9489  0.0035
10119TIP3    H251773   4.389   4.893   4.372  0.3500 -0.4468 -0.3366
10120TIP3   OH251774   4.226   1.655   0.391 -0.7861 -0.3650 -0.1423
10120TIP3    H151775   4.144   1.697   0.366  0.1118  1.2230 -0.5810
10120TIP3    H251776   4.281   1.661   0.312 -0.1678 -1.2049  0.2086
10121TIP3   OH251777   3.078   3.960  15.276  0.7082 -0.7442 -0.9463
10121TIP3    H151778   3.035   3.882  15.241  0.6567 -1.1365 -0.0151
10121TIP3    H251779   3.081   3.947  15.370  2.7286 -0.6688 -0.9558
10122TIP3   OH251780   2.524   0.161   3.862  0.0450  0.7155  0.3940
10122TIP3    H151781   2.590   0.193   3.800 -0.8476  0.4878 -0.6920
10122TIP3    H251782   2.573   0.103   3.920  0.9193  0.9996 -0.0393
10123TIP3   OH251783   5.469   2.641   4.725 -0.1037  0.7419  0.8298
10123TIP3    H151784   5.401   2.624   4.660  2.1630  1.0956 -1.7876
10123TIP3    H251785   5.433   2.711   4.780 -1.8404  0.9032 -0.4351
10124TIP3   OH251786   0.295   6.688  13.601 -0.5753  0.8171 -0.3624
10124TIP3    H151787   0.224   6.635  13.637 -1.3171 -0.0694 -2.9629
10124TIP3    H251788   0.366   6.625  13.584 -0.6261  1.0347 -1.3971
10125TIP3   OH251789   2.794   3.497  14.821 -0.3224  0.0237  0.1363
10125TIP3    H151790   2.834   3.442  14.889  1.1533  0.0970 -0.6260
10125TIP3    H251791   2.725   3.545  14.866 -1.3450 -2.0700  0.9448
10126TIP3   OH251792   0.891   1.910   1.536 -0.0776 -0.3036 -0.3657
10126TIP3    H151793   0.895   1.885   1.628 -1.1537 -2.4704 -0.8389
10126TIP3    H251794   0.841   1.839   1.494  2.0685 -0.4451 -2.9484
10127TIP3   OH251795   5.527   0.492  14.502  0.1265  0.0801  0.1647
10127TIP3    H151796   5.515   0.402  14.472 -0.9056  0.7512 -1.6315
10127TIP3    H251797   5.461   0.503  14.571  0.9776 -0.8081  1.1698
10128TIP3   OH251798   1.981   3.394  11.625  0.6045  0.7129  1.2501
10128TIP3    H151799   1.923   3.370  11.698 -1.8968  1.6038 -0.3457
10128TIP3    H251800   2.038   3.318  11.615  0.0637 -0.0239  3.2009
10129TIP3   OH251801   1.413   5.660   4.023 -0.2904  0.0240  0.3590
10129TIP3    H151802   1.332   5.710   4.030 -0.5774 -0.3702 -0.1316
10129TIP3    H251803   1.406   5.614   3.940  1.4909  1.8477 -0.8783
10130TIP3   OH251804   2.030   4.773  13.435  0.1352  0.2687  0.0104
10130TIP3    H151805   2.031   4.851  13.379 -0.7463  1.0769  1.0681
10130TIP3    H251806   2.042   4.700  13.374 -0.4314  1.1304 -1.1922
10131TIP3   OH251807   5.616   3.782  16.368 -0.0118 -0.1881  0.3732
10131TIP3    H151808   5.670   3.842  16.316  1.9726  1.2418  3.7901
10131TIP3    H251809   5.603   3.706  16.311  1.9195  1.2499 -2.1937
10132TIP3   OH251810   6.319   2.003  11.129 -0.7947  0.5845 -0.3750
10132TIP3    H151811   6.341   1.916  11.097 -1.2470 -0.4442  1.8621
10132TIP3    H251812   6.393   2.028  11.184 -1.6164  0.6285  0.7374
10133TIP3   OH251813   5.707   5.194   0.179  0.3354 -0.0600  0.2027
10133TIP3    H151814   5.779   5.220   0.236  0.8556 -0.3438 -0.3095
10133TIP3    H251815   5.750   5.150   0.105 -0.3340  0.1793 -0.3367
10134TIP3   OH251816   1.477   0.668   0.327  0.3032 -0.2903  0.2015
10134TIP3    H151817   1.517   0.753   0.347  2.5034 -0.9909 -0.8372
10134TIP3    H251818   1.496   0.614   0.403 -1.4852  0.2123  1.0564
10135TIP3   OH251819   6.797   2.390  14.636  0.5225 -0.2477  0.7547
10135TIP3    H151820   6.870   2.379  14.574  1.9834 -0.2790  2.4199
10135TIP3    H251821   6.742   2.458  14.596  0.6369 -1.2764 -1.2591
10136TIP3   OH251822   6.752   0.947  15.244 -0.1507 -0.3979  0.0500
10136TIP3    H151823   6.815   0.932  15.173  0.1950 -1.0061  0.4699
10136TIP3    H251824   6.719   1.036  15.229  0.1853 -0.3867 -0.6609
10137TIP3   OH251825   1.749   4.498  12.127  0.2355  0.2996 -0.4738
10137TIP3    H151826   1.757   4.456  12.041 -0.2504  1.3161 -1.0380
10137TIP3    H251827   1.696   4.576  12.110  0.3686  0.6577  0.7048
10138TIP3   OH251828   4.521   3.842  11.068  0.0105 -0.2719  0.1479
10138TIP3    H151829   4.461   3.915  11.052 -0.4195 -0.5029  0.6665
10138TIP3    H251830   4.463   3.768  11.090  0.4843 -0.4711  0.7464
10139TIP3   OH251831   5.154   3.492  16.369 -0.0008  0.0818 -0.1529
10139TIP3    H151832   5.223   3.436  16.405  0.5096  0.0558 -1.1371
10139TIP3    H251833   5.176   3.501  16.276 -0.5518  1.2182 -0.1963
10140TIP3   OH251834   3.085   0.714   0.136  0.1272 -0.1727 -0.6322
10140TIP3    H151835   3.008   0.680   0.090  1.5123 -0.5984 -2.7830
10140TIP3    H251836   3.112   0.790   0.085  1.3383 -0.2411 -0.1315
10141TIP3   OH251837   4.624   1.592  14.397  0.6675  0.2210  0.1846
10141TIP3    H151838   4.632   1.684  14.423 -1.9399  0.3588  0.8642
10141TIP3    H251839   4.555   1.592  14.330 -1.5671 -1.4498  2.2908
10142TIP3   OH251840   6.403   2.891   0.961 -0.1353 -0.2982 -0.0742
10142TIP3    H151841   6.315   2.854   0.971  0.2712 -1.0614  0.8841
10142TIP3    H251842   6.400   2.974   1.009 -0.3446 -0.3041 -0.0760
10143TIP3   OH251843   5.995   2.667  14.278 -0.3846 -0.0593  0.2697
10143TIP3    H151844   6.057   2.610  14.322 -1.5411 -0.6980  1.1069
10143TIP3    H251845   5.987   2.630  14.190  0.2040 -0.1355  0.2466
10144TIP3   OH251846   3.386   3.758   2.732 -0.2553  0.1891  0.1058
10144TIP3    H151847   3.412   3.838   2.686  1.7633 -0.1752  0.5049
10144TIP3    H251848   3.387   3.783   2.825 -2.2571  0.3668  0.1258
10145TIP3   OH251849   0.890   5.404   0.878 -0.0676 -0.0368 -0.3093
10145TIP3    H151850   0.972   5.401   0.829  1.2479 -1.3101  1.8083
10145TIP3    H251851   0.910   5.456   0.955 -1.0515 -0.8364  0.5195
10146TIP3   OH251852   4.805   3.676  12.983 -0.4789 -0.0290 -0.2300
10146TIP3    H151853   4.740   3.639  12.923 -0.0966 -3.2079  1.1190
10146TIP3    H251854   4.761   3.752  13.021 -2.4934 -0.6679 -1.1278
10147TIP3   OH251855   4.497   0.170   3.724  0.0159  0.2579  0.1190
10147TIP3    H151856   4.456   0.184   3.809  0.3341  1.0139  0.1561
10147TIP3    H251857   4.581   0.216   3.730  0.5896 -0.7158 -0.1820
10148TIP3   OH251858   1.342   1.275   5.208  0.5435 -0.0920 -0.1856
10148TIP3    H151859   1.291   1.202   5.175  0.2340  0.6793 -1.4779
10148TIP3    H251860   1.339   1.340   5.139  0.0718  1.5232  1.2843
10149TIP3   OH251861   4.004   0.559   2.518  0.0608  0.0888  0.1547
10149TIP3    H151862   3.946   0.511   2.577 -0.7092  2.0985  1.0954
10149TIP3    H251863   4.075   0.590   2.575  0.6810 -0.1328 -0.4887
10150TIP3   OH251864   3.634   2.453   2.704 -0.2254 -0.6788  0.2230
10150TIP3    H151865   3.624   2.388   2.774 -1.1285 -0.3718  0.3916
10150TIP3    H251866   3.629   2.537   2.749  0.8939 -0.4805 -0.0023
10151TIP3   OH251867   3.767   1.096   5.392 -0.0704 -0.2043 -0.1979
10151TIP3    H151868   3.812   1.150   5.457 -2.1108 -0.3100  1.4232
10151TIP3    H251869   3.751   1.013   5.437 -0.8552 -0.5600 -1.1000
10152TIP3   OH251870   2.026   5.120  11.735  0.2802 -0.2814 -0.3922
10152TIP3    H151871   1.976   5.049  11.695 -1.3599  0.1869  0.7377
10152TIP3    H251872   1.985   5.200  11.702  0.2446  0.1207  0.6100
10153TIP3   OH251873   4.209   2.269   0.262 -0.0278  0.2602 -0.1851
10153TIP3    H151874   4.162   2.249   0.181 -0.7282  1.3573 -0.0816
10153TIP3    H251875   4.230   2.362   0.255 -0.8340  0.5855  1.2310
10154TIP3   OH251876   6.497   1.694   0.172  0.0078 -0.3349 -0.0409
10154TIP3    H151877   6.460   1.673   0.257 -1.9896 -0.3347 -0.8681
10154TIP3    H251878   6.518   1.787   0.177 -2.3715  0.2587 -0.3110
10155TIP3   OH251879   5.192   4.545   3.326  0.4528  0.4925  0.0447
10155TIP3    H151880   5.156   4.502   3.249 -1.7612  0.2270  1.1548
10155TIP3    H251881   5.287   4.536   3.316  0.1640 -2.3401 -1.0760
10156TIP3   OH251882   2.757   2.974   0.541  0.3037 -0.0677 -0.1311
10156TIP3    H151883   2.703   2.939   0.611  1.4250  0.3267  0.9658
10156TIP3    H251884   2.780   2.898   0.488 -0.9398 -0.2995 -0.3579
10157TIP3   OH251885   4.447   6.118   2.745 -0.2000 -0.0769  0.6957
10157TIP3    H151886   4.473   6.167   2.667 -1.4891 -0.3296  0.0764
10157TIP3    H251887   4.374   6.063   2.715  0.5058 -1.5903  1.6204
10158TIP3   OH251888   6.519   1.061  13.822  0.0033  1.1652 -0.4503
10158TIP3    H151889   6.518   0.980  13.872 -1.4621  1.1230 -0.4943
10158TIP3    H251890   6.463   1.043  13.746  0.6078  1.8500 -1.0787
10159TIP3   OH251891   4.473   2.531   3.885  1.1954 -0.0374  0.1407
10159TIP3    H151892   4.548   2.591   3.889  1.8734 -0.9376  1.6011
10159TIP3    H251893   4.510   2.449   3.852  0.5231 -0.0382 -0.6318
10160TIP3   OH251894   3.878   2.893  12.098  0.7829 -0.2129  0.6928
10160TIP3    H151895   3.880   2.814  12.152 -0.8164  0.1148  1.2922
10160TIP3    H251896   3.970   2.912  12.080  1.1708 -2.7848 -0.3791
10161TIP3   OH251897   4.237   5.810   3.756  0.3067 -0.3227  0.2450
10161TIP3    H151898   4.218   5.868   3.682  0.0071 -0.6241  0.0832
10161TIP3    H251899   4.151   5.779   3.785  0.5039 -1.3740 -0.2319
10162TIP3   OH251900   5.860   0.864   6.529  0.4667 -0.7472 -0.3811
10162TIP3    H151901   5.938   0.811   6.511  1.6518  0.3900  1.1760
10162TIP3    H251902   5.864   0.935   6.465 -0.6363 -1.9373 -1.8679
10163TIP3   OH251903   5.917   0.933   5.542  0.0150  0.2001 -0.0665
10163TIP3    H151904   5.849   0.933   5.609 -0.2946 -1.5967 -0.3231
10163TIP3    H251905   5.936   0.840   5.527  1.3520  0.6167 -1.1862
10164TIP3   OH251906   0.960   5.352  15.061  0.5700  0.1849 -0.1199
10164TIP3    H151907   0.961   5.281  15.125 -0.3003  0.5464  0.3171
10164TIP3    H251908   0.891   5.329  15.000  1.4681 -0.2102 -1.0172
10165TIP3   OH251909   4.692   3.409   4.035 -0.1717 -0.3365  0.3418
10165TIP3    H151910   4.696   3.371   4.123 -1.7573 -1.6144 -0.0735
10165TIP3    H251911   4.717   3.501   4.047 -0.9091 -0.3350  2.2285
10166TIP3   OH251912   1.911   1.161  16.634 -0.2712  0.2475  0.0834
10166TIP3    H151913   1.922   1.247  16.593  2.7141 -0.0817 -0.0639
10166TIP3    H251914   1.995   1.117  16.620 -1.1130 -2.0604  1.6403
10167TIP3   OH251915   4.704   5.521  11.958  0.0280 -0.1661 -0.2787
10167TIP3    H151916   4.679   5.597  12.011  0.7290  0.9049 -1.4446
10167TIP3    H251917   4.680   5.545  11.869 -2.5342 -2.5533 -0.3484
10168TIP3   OH251918   3.212   5.779  11.999  0.1345  0.2054  0.3879
10168TIP3    H151919   3.165   5.756  11.919 -0.5903  0.9087  0.5947
10168TIP3    H251920   3.304   5.783  11.974 -0.0203 -0.2015 -0.2573
10169TIP3   OH251921   3.938   2.063  11.820 -0.6293  0.1171 -0.0763
10169TIP3    H151922   3.917   1.969  11.820 -0.2440  0.0272  0.3850
10169TIP3    H251923   4.033   2.066  11.819 -0.6285  0.4969  0.5965
10170TIP3   OH251924   6.558   3.857  10.520  0.1509  0.4655 -0.5182
10170TIP3    H151925   6.504   3.935  10.529 -0.8573 -0.4373  2.0494
10170TIP3    H251926   6.506   3.798  10.465 -1.0171  0.0426  0.9935
10171TIP3   OH251927   2.211   3.787  14.943 -0.4748 -0.2918 -0.7562
10171TIP3    H151928   2.286   3.780  14.883 -0.5833 -1.3463 -0.7895
10171TIP3    H251929   2.180   3.697  14.953  0.0898 -0.2798  1.6139
10172TIP3   OH251930   5.283   6.560  16.960 -0.7470 -0.1483  0.5515
10172TIP3    H151931   5.224   6.528  17.028  0.3671 -1.3092  1.0285
10172TIP3    H251932   5.323   6.481  16.924  1.4646  0.6103  1.1512
10173TIP3   OH251933   3.642   3.930  15.664  0.1859 -0.0229  0.2913
10173TIP3    H151934   3.640   4.018  15.700 -0.9649  0.4529 -0.8581
10173TIP3    H251935   3.664   3.874  15.738  0.1263  1.1457  1.2141
10174TIP3   OH251936   3.694   0.793  10.525 -0.6344 -0.1069  0.8007
10174TIP3    H151937   3.775   0.825  10.485 -1.4553  0.2229 -0.6575
10174TIP3    H251938   3.719   0.712  10.569  1.0787  1.4076  2.8373
10175TIP3   OH251939   6.085   3.088   2.170  0.0581  0.1747  0.4738
10175TIP3    H151940   6.038   3.086   2.253  1.2338  0.6555  1.1764
10175TIP3    H251941   6.041   3.156   2.118 -1.2307 -0.7330  0.3411
10176TIP3   OH251942   5.132   3.552  15.904  0.0091  0.2634 -0.1110
10176TIP3    H151943   5.099   3.635  15.869 -0.6617 -0.7745 -2.1254
10176TIP3    H251944   5.166   3.506  15.827  0.7168 -1.1667  1.0187
10177TIP3   OH251945   3.960   6.402   3.711 -0.2544 -0.1315 -0.0314
10177TIP3    H151946   3.988   6.477   3.658  1.1472 -0.6289 -0.0399
10177TIP3    H251947   3.867   6.392   3.692 -0.0380  0.4182 -1.5045
10178TIP3   OH251948   0.758   1.805  15.957 -0.1639 -0.1901 -0.0457
10178TIP3    H151949   0.672   1.824  15.995  0.7099  0.9737  1.5003
10178TIP3    H251950   0.802   1.751  16.023 -0.3780 -2.5709 -1.7204
10179TIP3   OH251951   4.774   6.660   4.221  0.3787 -0.1768  0.0626
10179TIP3    H151952   4.749   6.750   4.201  0.1630 -0.5800 -1.6291
10179TIP3    H251953   4.751   6.610   4.142  1.3618 -1.5455  0.5961
10180TIP3   OH251954   2.724   2.426   3.921  0.1245 -0.1415  0.0897
10180TIP3    H151955   2.643   2.469   3.947 -0.2832 -0.8334 -0.0004
10180TIP3    H251956   2.711   2.402   3.829 -0.3802 -1.9757  0.5804
10181TIP3   OH251957   2.023   4.951   0.416  0.3060 -0.0693  0.0860
10181TIP3    H151958   2.067   5.036   0.414 -1.3270  0.8072 -0.2304
10181TIP3    H251959   1.943   4.963   0.365  0.4036 -2.0278 -0.6262
10182TIP3   OH251960   1.676   1.392  15.738 -0.1430 -0.1202 -0.6707
10182TIP3    H151961   1.590   1.433  15.730 -0.4040 -0.4323  0.2942
10182TIP3    H251962   1.690   1.386  15.833  0.0105 -1.9644 -0.7675
10183TIP3   OH251963   0.313   1.033  12.600 -0.2296 -0.4009  0.0500
10183TIP3    H151964   0.322   0.942  12.628  2.0421 -0.0818  0.4958
10183TIP3    H251965   0.380   1.044  12.533 -0.9297  0.7860 -0.4911
10184TIP3   OH251966   6.382   5.030   5.917 -0.1750 -0.1551  0.2714
10184TIP3    H151967   6.321   5.073   5.977  0.1634  0.3676  0.2477
10184TIP3    H251968   6.329   4.966   5.870 -1.2187  1.7213 -1.2671
10185TIP3   OH251969   2.993   3.545  13.260  0.1890  0.1426  0.4514
10185TIP3    H151970   2.987   3.536  13.165 -0.7034  0.1561  0.4977
10185TIP3    H251971   3.048   3.473  13.287  0.5347  0.1962 -0.0869
10186TIP3   OH251972   3.348   5.221  11.333 -0.2300  0.2005  0.0676
10186TIP3    H151973   3.320   5.152  11.393 -1.5944 -1.2413 -2.0924
10186TIP3    H251974   3.394   5.174  11.263  0.4281  1.6997 -0.5479
10187TIP3   OH251975   4.092   0.917   3.198 -0.6824  0.0870 -0.3679
10187TIP3    H151976   4.029   0.923   3.270 -0.8764  0.3240 -0.5586
10187TIP3    H251977   4.069   0.988   3.140  1.1629  1.6316  0.6759
10188TIP3   OH251978   2.676   1.776   5.026  0.0628  0.7936 -0.3007
10188TIP3    H151979   2.768   1.766   5.002 -0.6881  0.3570 -3.4745
10188TIP3    H251980   2.657   1.868   5.011 -0.0985  0.8360  0.1317
10189TIP3   OH251981   3.982   4.254  11.866  0.4561  0.0598 -0.1054
10189TIP3    H151982   3.959   4.171  11.825 -1.3617  0.7196 -0.5560
10189TIP3    H251983   3.957   4.320  11.801 -1.8653  1.1052  1.6698
10190TIP3   OH251984   2.201   2.183   0.346  0.0849  0.0916 -0.2123
10190TIP3    H151985   2.135   2.139   0.399  0.1245  0.6706  0.3268
10190TIP3    H251986   2.284   2.161   0.387  0.2033 -0.2700 -0.6286
10191TIP3   OH251987   6.762   3.414  10.691  0.2779 -0.2392  0.4234
10191TIP3    H151988   6.709   3.341  10.661  1.3092 -0.4601 -0.9561
10191TIP3    H251989   6.705   3.491  10.681  0.4882 -0.3194 -2.0454
10192TIP3   OH251990   6.049   4.997  16.845 -0.5446  0.0224  0.2056
10192TIP3    H151991   5.978   5.028  16.901 -0.4824 -0.3439  0.4842
10192TIP3    H251992   6.004   4.954  16.772 -0.6469  1.1021 -0.4025
10193TIP3   OH251993   4.624   0.825   4.864 -0.1012 -0.2759  0.0304
10193TIP3    H151994   4.678   0.896   4.828 -1.4520  0.1342 -1.3093
10193TIP3    H251995   4.683   0.751   4.871  1.1315  0.7188  0.6098
10194TIP3   OH251996   2.650   4.570   1.905  0.3252  0.5248 -0.2275
10194TIP3    H151997   2.713   4.614   1.963  0.6728  1.8286 -1.5277
10194TIP3    H251998   2.690   4.485   1.887 -0.5311 -0.5992  2.6223
10195TIP3   OH251999   4.098   2.677  15.238  0.1341  0.7090 -0.0419
10195TIP3    H152000   4.148   2.744  15.191  0.1772 -0.0228 -1.0584
10195TIP3    H252001   4.131   2.594  15.204 -1.7630  0.1968 -0.7271
10196TIP3   OH252002   3.079   3.183  14.397  0.7333 -0.1554 -0.2211
10196TIP3    H152003   3.173   3.163  14.395  0.7585 -0.0582 -0.0239
10196TIP3    H252004   3.040   3.110  14.443  0.4218 -1.3281 -2.2218
10197TIP3   OH252005   3.730   0.851  16.222  0.3796  0.2263 -0.8237
10197TIP3    H152006   3.640   0.877  16.240  0.4282 -0.5705  0.7540
10197TIP3    H252007   3.783   0.901  16.284  1.2770  2.1503 -3.0080
10198TIP3   OH252008   3.763   6.111   3.453 -0.2045  0.1259 -0.2381
10198TIP3    H152009   3.696   6.178   3.441  0.8622  1.2134 -0.4208
10198TIP3    H252010   3.765   6.095   3.548 -1.7310 -1.0438 -0.3698
10199TIP3   OH252011   1.993   2.980  16.883 -0.6163 -0.1358 -0.4926
10199TIP3    H152012   2.081   2.959  16.915 -0.9228 -0.7294 -0.0181
10199TIP3    H252013   1.938   2.910  16.916 -1.1844 -0.0534 -1.2365
10200TIP3   OH252014   2.744   6.146  15.832  0.5469  0.3072 -0.7041
10200TIP3    H152015   2.694   6.182  15.758 -1.2542 -1.2183 -0.3236
10200TIP3    H252016   2.677   6.119  15.895  1.9693  0.0060  0.7512
10201TIP3   OH252017   2.227   4.405   2.634  0.5044 -0.1774 -0.6062
10201TIP3    H152018   2.171   4.327   2.636 -1.2320  0.9627  2.4327
10201TIP3    H252019   2.205   4.448   2.551 -1.2063 -1.0975 -0.6726
10202TIP3   OH252020   5.300   5.165  10.845 -0.1345 -0.3465  0.1078
10202TIP3    H152021   5.304   5.257  10.872  1.4658 -0.4310  0.2675
10202TIP3    H252022   5.391   5.141  10.830 -0.6832 -1.2492 -2.2125
10203TIP3   OH252023   1.253   3.748  16.852  0.9638  0.8626  1.1179
10203TIP3    H152024   1.232   3.814  16.917 -3.1342 -0.6269  1.6045
10203TIP3    H252025   1.244   3.792  16.768 -0.0701  1.3612  1.4755
10204TIP3   OH252026   0.389   5.152   0.006  0.1052  0.3912  0.3453
10204TIP3    H152027   0.476   5.153   0.048  0.0297  0.3179  0.5063
10204TIP3    H252028   0.335   5.208   0.062 -0.5208 -1.2861  1.4860
10205TIP3   OH252029   6.088   0.835   1.340  0.8559 -0.0523 -1.2898
10205TIP3    H152030   6.139   0.903   1.385  1.1413 -0.8973 -0.3140
10205TIP3    H252031   6.002   0.837   1.383  0.7621 -0.0983 -1.4746
10206TIP3   OH252032   2.305   3.585  12.844 -0.9093  0.0139  0.1754
10206TIP3    H152033   2.283   3.649  12.912 -1.2887  2.9618 -2.4830
10206TIP3    H252034   2.359   3.520  12.890 -0.4310  2.2301  3.1076
10207TIP3   OH252035   4.312   5.032   3.611  0.5888  0.0265  0.4038
10207TIP3    H152036   4.291   5.064   3.699 -0.2741 -1.8090  0.9074
10207TIP3    H252037   4.269   5.095   3.552 -0.2537  0.3498  1.3330
10208TIP3   OH252038   6.601   5.764   3.243 -0.2420  0.1554 -0.0266
10208TIP3    H152039   6.661   5.820   3.293 -0.8528  0.4632  0.3771
10208TIP3    H252040   6.581   5.815   3.165 -0.2894  0.2183  0.0269
10209TIP3   OH252041   4.801   3.081   6.456  1.1216 -0.2412 -0.0609
10209TIP3    H152042   4.734   3.012   6.453  1.6743 -0.7632 -0.5495
10209TIP3    H252043   4.760   3.156   6.412  0.2785 -0.0258  1.0310
10210TIP3   OH252044   1.917   6.011  11.671  0.2713  0.4478  0.1811
10210TIP3    H152045   1.850   6.059  11.720 -0.0875  0.8039 -0.6374
10210TIP3    H252046   1.875   5.989  11.588  1.0918  0.4643 -0.2483
10211TIP3   OH252047   4.707   5.153  16.549 -0.1676  0.2315 -0.5211
10211TIP3    H152048   4.711   5.060  16.527  1.4675  0.4380 -1.2579
10211TIP3    H252049   4.630   5.186  16.502  0.3725 -0.3709 -1.8681
10212TIP3   OH252050   2.224   4.923  15.210  0.2387 -0.1599  0.4428
10212TIP3    H152051   2.266   4.961  15.134  1.2648 -0.6581  0.7502
10212TIP3    H252052   2.244   4.829  15.205 -2.0237 -0.6904 -0.1653
10213TIP3   OH252053   2.890   1.602  15.519 -0.1665 -0.2020  0.2866
10213TIP3    H152054   2.804   1.639  15.539 -0.3442 -0.1778 -0.5167
10213TIP3    H252055   2.919   1.563  15.602 -1.5727 -1.4801  0.2149
10214TIP3   OH252056   0.559   6.163   4.761 -0.1863  0.4155 -0.9183
10214TIP3    H152057   0.548   6.177   4.855  0.9135  1.5478 -0.9305
10214TIP3    H252058   0.470   6.170   4.726 -0.9101 -2.0673  0.2351
10215TIP3   OH252059   5.038   2.539   1.320  0.4703 -0.0917  0.2645
10215TIP3    H152060   5.113   2.567   1.268 -0.2122 -1.7201 -1.7180
10215TIP3    H252061   5.009   2.457   1.279 -1.2645 -0.4819  2.1015
10216TIP3   OH252062   1.514   3.801  12.677 -0.5527  0.2595 -0.3363
10216TIP3    H152063   1.461   3.837  12.606 -1.2658  0.0485  0.0793
10216TIP3    H252064   1.569   3.735  12.635 -0.6920  0.4130 -0.7597
10217TIP3   OH252065   0.820   4.722   3.307  0.2419  0.3134 -0.1074
10217TIP3    H152066   0.788   4.788   3.368 -0.3118  0.3630 -0.4441
10217TIP3    H252067   0.817   4.766   3.221  0.0525 -0.0900 -0.3065
10218TIP3   OH252068   1.311   3.693  15.133 -0.2690 -0.9950 -0.5247
10218TIP3    H152069   1.358   3.622  15.090  0.2509 -0.5604 -0.6845
10218TIP3    H252070   1.226   3.654  15.157  0.3512 -1.9337  0.2186
10219TIP3   OH252071   2.779   1.556  13.260 -0.1394  0.0247  0.1386
10219TIP3    H152072   2.781   1.489  13.329 -0.8198 -0.0209  0.1157
10219TIP3    H252073   2.758   1.637  13.306 -0.0529  0.0908  0.0608
10220TIP3   OH252074   1.615   3.722   1.763  0.1115 -0.3036 -0.0709
10220TIP3    H152075   1.688   3.767   1.805  0.8530 -1.2695 -0.2965
10220TIP3    H252076   1.648   3.699   1.676 -0.1584 -1.5106  0.1323
10221TIP3   OH252077   0.035   5.976   3.329  0.0314 -0.2402  0.7487
10221TIP3    H152078   0.059   6.066   3.352 -0.2307 -0.2038  0.8861
10221TIP3    H252079   0.006   5.938   3.412  1.2304 -0.8028  0.9237
10222TIP3   OH252080   4.392   6.802   3.084  0.7351  0.3355 -0.1394
10222TIP3    H152081   4.315   6.750   3.108  0.8221 -0.4138 -1.3988
10222TIP3    H252082   4.466   6.742   3.093  0.7088 -0.2607 -2.8298
10223TIP3   OH252083   4.154   6.423  11.314 -0.4711 -0.4763  0.5382
10223TIP3    H152084   4.162   6.504  11.264 -0.9089  0.9234  2.6029
10223TIP3    H252085   4.243   6.404  11.345 -0.4668 -0.4509  0.5408
10224TIP3   OH252086   0.924   1.295  12.079 -0.0424 -0.2543 -0.1628
10224TIP3    H152087   0.946   1.267  11.990  0.6524 -0.0102 -0.0770
10224TIP3    H252088   0.998   1.265  12.132 -0.5782 -0.6218  0.3757
10225TIP3   OH252089   1.360   6.560   6.245 -0.5795 -0.2573  0.4013
10225TIP3    H152090   1.441   6.518   6.273  1.1154  1.6504 -1.3315
10225TIP3    H252091   1.297   6.539   6.314  1.5683 -1.1775  2.2002
10226TIP3   OH252092   5.875   0.609   3.303 -0.5830  0.3256 -0.1263
10226TIP3    H152093   5.849   0.696   3.332 -1.2982  0.6277 -1.5890
10226TIP3    H252094   5.883   0.558   3.384 -2.7447  1.0532  0.5971
10227TIP3   OH252095   0.353   4.296  13.511  0.3621  0.4058  0.3046
10227TIP3    H152096   0.386   4.344  13.587 -0.8312  0.9405  0.5125
10227TIP3    H252097   0.258   4.307  13.516  0.0605 -1.8080  0.2170
10228TIP3   OH252098   6.146   6.610  16.510  0.0074  0.0887  0.5376
10228TIP3    H152099   6.098   6.647  16.584  0.3384  2.1791 -0.2113
10228TIP3    H252100   6.223   6.667  16.501 -0.5674  0.5726 -2.0361
10229TIP3   OH252101   0.825   0.781   2.035 -0.0285  0.1989  0.5493
10229TIP3    H152102   0.872   0.837   1.974  1.0631  1.0116  2.0772
10229TIP3    H252103   0.744   0.758   1.990 -1.0956  3.9856  0.2666
10230TIP3   OH252104   0.475   0.993   2.255 -0.3605 -0.4339 -0.3317
10230TIP3    H152105   0.421   1.067   2.282  0.3873  0.9358 -2.3305
10230TIP3    H252106   0.418   0.942   2.197 -0.5420 -0.8636  0.2165
10231TIP3   OH252107   3.788   5.783   5.665  0.1901  0.5273  0.1029
10231TIP3    H152108   3.779   5.858   5.723  1.8899  1.6779 -1.0075
10231TIP3    H252109   3.880   5.784   5.638 -0.5069  0.0958 -2.6128
10232TIP3   OH252110   5.026   3.941   4.609  0.2489 -1.0188 -0.2435
10232TIP3    H152111   5.104   3.910   4.653  0.6694  0.4743  0.1217
10232TIP3    H252112   5.041   3.921   4.516  0.7077 -1.4617 -0.0727
10233TIP3   OH252113   0.178   0.517  15.084  0.1353 -0.1691 -0.2711
10233TIP3    H152114   0.264   0.507  15.043  0.5073  0.6507  0.2854
10233TIP3    H252115   0.160   0.431  15.123  1.5573  0.1602  1.2157
10234TIP3   OH252116   4.169   1.383  13.567 -0.3999  0.3102  0.1831
10234TIP3    H152117   4.213   1.406  13.648  1.2365  0.6301 -0.7546
10234TIP3    H252118   4.110   1.456  13.550  0.8278  1.2753 -0.0120
10235TIP3   OH252119   1.584   3.373  13.655 -0.1267  0.1225 -0.3834
10235TIP3    H152120   1.529   3.432  13.708  0.4912  0.4022 -0.0345
10235TIP3    H252121   1.673   3.407  13.668  0.2858 -1.1002  0.1100
10236TIP3   OH252122   3.007   0.400  14.099  0.0222 -0.0489 -0.6376
10236TIP3    H152123   3.015   0.425  14.192  0.2239  3.1403 -1.3950
10236TIP3    H252124   2.923   0.354  14.094 -0.2788  0.2499  1.0280
10237TIP3   OH252125   5.847   3.555  12.318 -0.1857 -0.5819  0.5367
10237TIP3    H152126   5.937   3.579  12.341 -0.1481 -0.2136  0.0420
10237TIP3    H252127   5.823   3.617  12.248 -1.5746  0.7325  2.0965
10238TIP3   OH252128   4.117   5.622   4.504 -0.0667  0.0565  0.2939
10238TIP3    H152129   4.165   5.554   4.551 -0.0003 -1.2424 -1.5546
10238TIP3    H252130   4.172   5.700   4.513  2.1953 -1.2337 -1.2300
10239TIP3   OH252131   5.843   1.774   0.176 -0.3114 -0.0862  0.0974
10239TIP3    H152132   5.831   1.683   0.203  2.8515 -1.3047 -1.9460
10239TIP3    H252133   5.820   1.775   0.083 -2.3369  1.8174  0.5278
10240TIP3   OH252134   0.389   1.319  13.375 -0.1789  0.4739 -0.3984
10240TIP3    H152135   0.418   1.345  13.287  1.3785  2.1241  0.5198
10240TIP3    H252136   0.344   1.397  13.409 -2.1087 -0.6628 -0.2427
10241TIP3   OH252137   3.810   3.332  11.915  0.5339 -0.1985  0.2286
10241TIP3    H152138   3.832   3.373  11.832 -0.1981  0.1689  0.2005
10241TIP3    H252139   3.883   3.353  11.973  1.1465 -0.6415 -0.3777
10242TIP3   OH252140   6.759   6.246  14.441  0.0650  0.2244  0.0841
10242TIP3    H152141   6.739   6.269  14.532 -1.3896  0.4671 -0.2687
10242TIP3    H252142   6.850   6.271  14.429  0.6433 -0.9000  1.8160
10243TIP3   OH252143   0.876   2.500   1.029 -0.5942  0.6105 -0.6441
10243TIP3    H152144   0.922   2.542   1.102  0.3005 -1.1568 -0.1275
10243TIP3    H252145   0.932   2.516   0.953  1.4611 -2.1599  0.1089
10244TIP3   OH252146   3.843   6.132   0.075  0.4877 -0.3914  0.7375
10244TIP3    H152147   3.899   6.083   0.135  0.1465  1.4876  2.7315
10244TIP3    H252148   3.756   6.094   0.089  0.6698 -1.0666  0.1350
10245TIP3   OH252149   5.901   5.555   1.021 -0.5917 -0.2148  0.1915
10245TIP3    H152150   5.856   5.624   1.070 -0.7000  0.4917 -0.8772
10245TIP3    H252151   5.832   5.510   0.972 -0.3837 -0.3767  0.0442
10246TIP3   OH252152   3.611   6.559  16.212  0.3014  0.0200  0.3065
10246TIP3    H152153   3.577   6.470  16.200  0.4900  0.0811 -0.7945
10246TIP3    H252154   3.602   6.600  16.126 -0.4701  1.3246  0.9703
10247TIP3   OH252155   1.569   2.758  11.313  0.3389  0.4715 -0.0587
10247TIP3    H152156   1.557   2.842  11.268 -0.1297  1.0634  1.1189
10247TIP3    H252157   1.523   2.769  11.396 -0.3806 -1.2414 -0.1963
10248TIP3   OH252158   1.392   4.035  11.287 -0.4967 -0.1874  0.5596
10248TIP3    H152159   1.326   4.063  11.350 -1.5223 -0.1225 -0.5008
10248TIP3    H252160   1.346   4.034  11.203  0.7262 -0.6341 -0.1360
10249TIP3   OH252161   0.077   2.730  14.102 -0.5973  0.0847  0.0072
10249TIP3    H152162   0.046   2.773  14.023  0.9603 -1.1062 -1.3103
10249TIP3    H252163   0.153   2.678  14.074 -0.0453 -0.4506  2.2552
10250TIP3   OH252164   4.970   2.814   3.649 -0.4663 -0.1845  0.3107
10250TIP3    H152165   4.877   2.794   3.637 -1.2610  3.5551 -1.0340
10250TIP3    H252166   5.010   2.794   3.565 -0.6948  0.9861 -0.0932
10251TIP3   OH252167   3.175   2.088  14.919  0.4263 -0.7326  0.0302
10251TIP3    H152168   3.098   2.048  14.959  1.0258 -0.7700  1.1961
10251TIP3    H252169   3.182   2.045  14.833 -0.3612 -1.3358  0.2534
10252TIP3   OH252170   2.562   3.789   2.105  0.8408 -0.6216  0.1390
10252TIP3    H152171   2.488   3.733   2.082  0.9791 -0.3867 -0.9299
10252TIP3    H252172   2.569   3.850   2.032  2.0153 -0.5568  0.2876
10253TIP3   OH252173   1.439   1.319  13.261 -0.4956  0.1434  0.7316
10253TIP3    H152174   1.494   1.317  13.183 -0.9225 -0.0560  0.4350
10253TIP3    H252175   1.397   1.405  13.258 -0.8268 -0.0229  0.5187
10254TIP3   OH252176   4.557   3.510   1.075  0.4758  0.0424 -0.0832
10254TIP3    H152177   4.546   3.454   0.999  2.1682 -1.2165  0.5420
10254TIP3    H252178   4.531   3.597   1.045 -1.6601 -0.9177 -1.2530
10255TIP3   OH252179   4.526   5.260   5.391  0.4157 -0.4381  0.2739
10255TIP3    H152180   4.487   5.347   5.384  0.7099 -0.3938 -1.4157
10255TIP3    H252181   4.562   5.256   5.479 -0.7300  0.6600  0.8164
10256TIP3   OH252182   4.408   0.551  14.639  0.0102 -0.1132  0.0207
10256TIP3    H152183   4.470   0.484  14.609  0.1613  0.7857 -1.7819
10256TIP3    H252184   4.455   0.633  14.632 -0.3576  0.2954  1.7077
10257TIP3   OH252185   0.292   6.669  15.684  0.0877  0.0208  0.6815
10257TIP3    H152186   0.267   6.643  15.773  0.3753 -1.7944  0.2602
10257TIP3    H252187   0.257   6.758  15.675 -1.2254 -0.3007  2.0954
10258TIP3   OH252188   1.929   4.203  15.050  0.3481 -0.0537  0.1787
10258TIP3    H152189   2.009   4.150  15.044  1.5426  1.8026 -1.2885
10258TIP3    H252190   1.871   4.166  14.983  0.2952 -0.8808  0.6717
10259TIP3   OH252191   3.795   4.374   5.428 -0.2619  0.3957  0.1593
10259TIP3    H152192   3.874   4.371   5.481  0.1435  0.3822 -0.4405
10259TIP3    H252193   3.724   4.353   5.490  0.2258  0.1206  0.6354
10260TIP3   OH252194   1.916   6.380  16.684  0.3083  0.1816  0.1520
10260TIP3    H152195   1.820   6.376  16.690  0.2862  1.5072  0.9999
10260TIP3    H252196   1.937   6.473  16.691  1.6507 -0.0657 -0.3619
10261TIP3   OH252197   6.617   4.360   6.144  0.1130  0.6447  0.3015
10261TIP3    H152198   6.704   4.400   6.142 -0.0014  1.1101  2.3881
10261TIP3    H252199   6.558   4.432   6.166 -0.7642  0.2560 -0.7250
10262TIP3   OH252200   2.885   5.088   6.396  0.4383  0.3226  0.2074
10262TIP3    H152201   2.810   5.043   6.433  0.6625  1.4767  2.2116
10262TIP3    H252202   2.961   5.038   6.425  0.5021 -1.1228 -2.2188
10263TIP3   OH252203   6.572   4.714   1.941 -0.1779 -0.2220  0.4352
10263TIP3    H152204   6.477   4.727   1.951 -0.5761 -2.3390 -0.0663
10263TIP3    H252205   6.581   4.622   1.915  2.0502 -0.1271  0.6813
10264TIP3   OH252206   5.703   0.246   0.679  0.0240  0.0488  0.2660
10264TIP3    H152207   5.668   0.158   0.665  0.9766 -0.4265  0.7764
10264TIP3    H252208   5.627   0.300   0.699 -0.6593 -0.5031 -0.7500
10265TIP3   OH252209   4.216   2.229   6.199 -0.1572 -0.4308  0.2222
10265TIP3    H152210   4.285   2.166   6.176 -1.4641 -1.3842 -1.2229
10265TIP3    H252211   4.150   2.220   6.131 -0.5634  2.3266  0.1139
10266TIP3   OH252212   3.712   2.268   1.536 -0.3496  0.1860 -0.6665
10266TIP3    H152213   3.688   2.355   1.567 -1.4174 -0.1142 -0.6044
10266TIP3    H252214   3.665   2.208   1.594  0.1011 -0.4292 -0.9230
10267TIP3   OH252215   3.849   2.720  12.889  0.0035 -0.0661  0.0637
10267TIP3    H152216   3.877   2.654  12.952  1.3864  1.2926  0.9595
10267TIP3    H252217   3.843   2.674  12.806  0.5344 -1.4032  0.7445
10268TIP3   OH252218   1.960   2.716  14.635 -0.1622 -0.0940  0.0027
10268TIP3    H152219   1.951   2.808  14.610 -1.1318 -0.1494  0.0747
10268TIP3    H252220   2.053   2.703  14.650 -0.1979  1.3374  1.7240
10269TIP3   OH252221   5.622   6.740  12.493 -0.3743  0.3676  0.4793
10269TIP3    H152222   5.686   6.703  12.432 -0.3159  1.2704 -0.0288
10269TIP3    H252223   5.628   6.685  12.571  1.0105  0.4124  0.4259
10270TIP3   OH252224   6.060   0.883  16.538 -0.3764 -0.2156  0.1727
10270TIP3    H152225   6.060   0.790  16.517  0.7057 -0.4724  1.2630
10270TIP3    H252226   5.996   0.892  16.608 -0.6584 -0.0805 -0.0952
10271TIP3   OH252227   3.120   1.132   6.230  0.0288 -0.7096  0.4947
10271TIP3    H152228   3.087   1.045   6.251 -0.5841 -0.3587  1.0243
10271TIP3    H252229   3.050   1.192   6.258 -0.0415 -0.1047 -0.8806
10272TIP3   OH252230   6.404   0.863   3.021  0.0687 -0.7670 -0.2544
10272TIP3    H152231   6.321   0.910   3.013 -0.6638 -1.6903  1.3706
10272TIP3    H252232   6.471   0.926   2.994 -1.1142  0.0833 -1.3250
10273TIP3   OH252233   1.256   6.261  16.442  0.5522 -0.6842 -0.1739
10273TIP3    H152234   1.179   6.314  16.463 -0.4290 -2.2368  0.3063
10273TIP3    H252235   1.323   6.290  16.504 -0.6496 -1.4804  1.5818
10274TIP3   OH252236   5.058   5.376  14.169 -0.3905  0.0519 -0.0444
10274TIP3    H152237   5.114   5.418  14.102  0.6391  0.0201  0.7733
10274TIP3    H252238   5.039   5.447  14.231 -1.7730  0.2093 -0.6154
10275TIP3   OH252239   4.864   0.729   3.409 -0.3121 -0.7972 -0.4269
10275TIP3    H152240   4.810   0.732   3.331 -1.1729 -0.1305  0.1682
10275TIP3    H252241   4.861   0.638   3.438 -2.4731 -0.5106  0.4775
10276TIP3   OH252242   5.618   0.771  16.039 -0.2117  0.4564 -0.2900
10276TIP3    H152243   5.582   0.691  16.002  1.4491 -0.0214 -0.9352
10276TIP3    H252244   5.650   0.746  16.126  1.7851 -0.0446 -1.1055
10277TIP3   OH252245   1.741   4.612  11.224 -0.4673 -0.0055  0.2840
10277TIP3    H152246   1.649   4.584  11.219 -0.7420  1.1083 -1.9591
10277TIP3    H252247   1.765   4.632  11.134  2.3147 -1.1876  0.6690
10278TIP3   OH252248   3.070   4.630   5.547 -0.2814 -0.2942  0.1686
10278TIP3    H152249   3.028   4.716   5.537  0.5838  0.0116 -1.0556
10278TIP3    H252250   3.007   4.568   5.511 -0.6896 -0.1240  0.5791
10279TIP3   OH252251   1.428   5.519  12.562  0.4269  0.1927 -0.4294
10279TIP3    H152252   1.409   5.434  12.521  0.6226 -0.4103  0.6808
10279TIP3    H252253   1.478   5.496  12.640  1.9101  1.4550 -0.9629
10280TIP3   OH252254   3.013   2.115   3.131  0.4378  0.2248  0.0718
10280TIP3    H152255   3.007   2.077   3.219 -2.0176  0.4603  0.0721
10280TIP3    H252256   2.965   2.054   3.076 -1.0880  1.8101 -0.4464
10281TIP3   OH252257   5.086   5.318   0.811  0.1594 -0.2617  0.1716
10281TIP3    H152258   4.992   5.303   0.819  0.6922 -3.5340  2.3964
10281TIP3    H252259   5.111   5.269   0.732 -0.0663  1.3442 -0.9306
10282TIP3   OH252260   0.298   4.737   1.824  0.0779 -0.2098  0.3143
10282TIP3    H152261   0.377   4.718   1.874 -1.4807 -0.7311  2.7376
10282TIP3    H252262   0.270   4.823   1.855 -0.3331 -0.0405 -0.5005
10283TIP3   OH252263   4.963   5.321  15.593 -0.3046  0.6297 -0.0613
10283TIP3    H152264   4.971   5.398  15.537 -0.9878  0.2866 -0.6462
10283TIP3    H252265   5.044   5.320  15.645 -0.6203  2.1545  0.4933
10284TIP3   OH252266   0.119   3.027   4.625 -0.0295 -0.4252 -0.3697
10284TIP3    H152267   0.064   2.985   4.559  0.1137  1.0073 -1.4566
10284TIP3    H252268   0.111   2.971   4.702 -0.1853 -2.1687 -1.5940
10285TIP3   OH252269   1.784   4.727  16.296  0.0178  0.0304  0.1194
10285TIP3    H152270   1.857   4.730  16.357  1.6429 -0.8003 -1.6736
10285TIP3    H252271   1.806   4.657  16.234 -1.0169  1.4567 -2.0206
10286TIP3   OH252272   2.273   3.318   5.812  0.3829  0.3038 -0.0503
10286TIP3    H152273   2.344   3.380   5.790  0.5545 -0.2335 -1.0568
10286TIP3    H252274   2.315   3.256   5.872  1.1785 -0.8100 -1.6987
10287TIP3   OH252275   4.164   4.776  16.529 -0.0544  0.6984 -0.6519
10287TIP3    H152276   4.094   4.712  16.518 -0.3278  1.0115 -0.7418
10287TIP3    H252277   4.243   4.724  16.536 -0.3674  0.3042  0.0911
10288TIP3   OH252278   4.864   3.783  10.393 -0.1630  0.3649  0.2058
10288TIP3    H152279   4.825   3.698  10.414 -1.1730  0.7506 -0.0535
10288TIP3    H252280   4.938   3.791  10.454 -0.5809 -0.3228  0.8216
10289TIP3   OH252281   4.048   1.472  16.195  0.3700 -0.4132 -0.1613
10289TIP3    H152282   4.123   1.505  16.244  0.9925 -1.2301 -0.5420
10289TIP3    H252283   4.040   1.381  16.222 -0.2932 -0.4249 -0.3722
10290TIP3   OH252284   2.342   5.458   2.497  0.2822  0.2062 -0.3950
10290TIP3    H152285   2.317   5.493   2.582 -0.0077 -0.7792 -0.0626
10290TIP3    H252286   2.410   5.518   2.465 -0.5794  1.3733 -0.1067
10291TIP3   OH252287   4.024   2.399   3.258  0.3181 -0.2477  0.5478
10291TIP3    H152288   4.100   2.345   3.237  1.0139  1.3206 -1.3496
10291TIP3    H252289   4.003   2.443   3.175 -1.1673  1.1986  1.6290
10292TIP3   OH252290   5.515   5.441  15.996 -0.7247 -0.5220 -0.0612
10292TIP3    H152291   5.434   5.478  15.960 -0.4132 -0.1065 -0.3307
10292TIP3    H252292   5.584   5.501  15.969 -0.2979 -0.9627  0.0258
10293TIP3   OH252293   4.121   4.215   1.260 -1.1144  0.1363  0.7444
10293TIP3    H152294   4.156   4.283   1.319  1.0055 -0.6378  0.4606
10293TIP3    H252295   4.091   4.146   1.319  0.5267 -0.4115  0.9925
10294TIP3   OH252296   0.761   4.479  16.832 -0.5973  0.5549 -0.1119
10294TIP3    H152297   0.761   4.545  16.901  2.4662  1.0146 -0.4315
10294TIP3    H252298   0.812   4.406  16.867 -1.6907 -0.5686 -0.7595
10295TIP3   OH252299   5.744   4.685   4.029 -0.1953  0.4256  0.1855
10295TIP3    H152300   5.757   4.590   4.038  1.4112  0.2426 -2.7211
10295TIP3    H252301   5.709   4.695   3.940  2.4061  2.6812 -0.7200
10296TIP3   OH252302   6.404   4.294   4.449 -0.0265 -0.1349  0.0678
10296TIP3    H152303   6.437   4.226   4.390  0.4322  0.7293 -0.6787
10296TIP3    H252304   6.450   4.374   4.423  0.0065  0.3202  1.4352
10297TIP3   OH252305   2.470   2.450  15.906 -0.0814 -0.3617 -0.5151
10297TIP3    H152306   2.385   2.450  15.861 -0.4630  1.6955  0.0826
10297TIP3    H252307   2.503   2.539  15.894  0.4736 -0.1561  1.9806
10298TIP3   OH252308   1.190   4.437  16.848 -0.6904 -0.3017 -0.4586
10298TIP3    H152309   1.194   4.469  16.758 -0.0022  0.5564 -0.1329
10298TIP3    H252310   1.278   4.406  16.867 -0.9382 -0.8833 -0.2165
10299TIP3   OH252311   4.931   5.339  15.914  0.5901 -0.0653 -0.3767
10299TIP3    H152312   4.866   5.303  15.973 -2.0080 -0.7965 -3.4030
10299TIP3    H252313   4.902   5.429  15.897 -0.3887 -0.7291 -2.5777
10300TIP3   OH252314   5.433   1.265  13.337  0.1422  0.0657 -0.3118
10300TIP3    H152315   5.342   1.272  13.367 -0.1036 -4.5949  0.8242
10300TIP3    H252316   5.483   1.254  13.418  1.9581  2.9975 -0.8884
10301TIP3   OH252317   3.162   3.919  14.656  0.6341  0.4307 -0.3219
10301TIP3    H152318   3.226   3.921  14.727 -1.0133  0.0616  1.2618
10301TIP3    H252319   3.118   3.835  14.665 -0.1948  0.7425 -1.2622
10302TIP3   OH252320   3.423   2.044  12.123  0.2548  0.2842 -0.1255
10302TIP3    H152321   3.462   1.966  12.085 -0.5418  0.0881 -0.5726
10302TIP3    H252322   3.397   2.097  12.047  0.4377  0.8028  0.1708
10303TIP3   OH252323   4.722   5.985   1.106 -0.1544 -0.3660  0.2400
10303TIP3    H152324   4.694   5.915   1.165 -1.9266  0.5617  0.5839
10303TIP3    H252325   4.641   6.021   1.071  0.7356  1.0431 -0.4943
10304TIP3   OH252326   3.053   6.317  13.983 -0.2791 -0.1683 -0.2202
10304TIP3    H152327   3.029   6.305  14.075  0.2321  1.0913  0.0990
10304TIP3    H252328   2.982   6.276  13.934 -2.3270  2.0708  0.6883
10305TIP3   OH252329   1.864   0.317   2.931 -0.5162 -0.5231 -0.3182
10305TIP3    H152330   1.838   0.289   3.019 -1.0725  1.4361  0.1840
10305TIP3    H252331   1.919   0.394   2.946 -1.7923  0.7223 -1.7131
10306TIP3   OH252332   4.164   5.835  16.998 -0.0546  0.2823  0.8303
10306TIP3    H152333   4.171   5.740  17.006  0.8565  0.2913  0.2793
10306TIP3    H252334   4.149   5.850  16.905 -0.9073  0.6547  1.0154
10307TIP3   OH252335   1.227   1.476  15.937 -0.4623  0.2897  0.2312
10307TIP3    H152336   1.163   1.405  15.935 -1.1537  0.8894 -1.9848
10307TIP3    H252337   1.175   1.555  15.949  0.0180  0.6405  0.0612
10308TIP3   OH252338   5.170   5.792  12.030  0.1065  0.2802 -0.1912
10308TIP3    H152339   5.163   5.715  11.973  1.5382 -0.8501  1.0754
10308TIP3    H252340   5.081   5.806  12.062  0.0325 -1.8088  0.7093
10309TIP3   OH252341   5.841   1.970   4.926  0.4591 -0.6278 -0.7683
10309TIP3    H152342   5.863   1.906   4.993  0.3311 -0.5127 -0.6137
10309TIP3    H252343   5.820   1.918   4.849  0.7915 -0.7551 -0.7750
10310TIP3   OH252344   0.734   0.603  12.820 -0.0260 -0.0287  0.1425
10310TIP3    H152345   0.700   0.610  12.910  3.2085 -0.4137  1.5456
10310TIP3    H252346   0.740   0.509  12.803 -0.4378  0.0424 -0.4303
10311TIP3   OH252347   1.926   6.359  15.932 -0.2894  0.4978  0.4907
10311TIP3    H152348   1.939   6.452  15.952 -0.7208  1.2373 -2.2372
10311TIP3    H252349   2.012   6.330  15.901 -0.9557  1.0144 -2.0471
10312TIP3   OH252350   1.979   6.298   1.139 -0.4410 -0.2950  0.5162
10312TIP3    H152351   2.046   6.258   1.083 -0.9659  1.6254 -1.6270
10312TIP3    H252352   2.015   6.292   1.227  0.7200 -2.8975 -0.0197
10313TIP3   OH252353   4.816   6.365  13.691  0.0460  0.2713  0.2032
10313TIP3    H152354   4.751   6.423  13.650 -2.3036 -2.1082  0.2620
10313TIP3    H252355   4.802   6.280  13.649  3.8720 -0.2061 -0.4492
10314TIP3   OH252356   5.214   0.782   1.510 -0.6573  0.1687 -0.1872
10314TIP3    H152357   5.211   0.782   1.414 -0.0978  0.9234 -0.2161
10314TIP3    H252358   5.177   0.867   1.535 -2.1302 -0.5896  0.3307
10315TIP3   OH252359   0.376   5.445  13.476  0.6914  0.3278  0.5319
10315TIP3    H152360   0.338   5.399  13.401 -0.1490  0.1961  1.0276
10315TIP3    H252361   0.471   5.436  13.464  0.5452 -0.9133  0.2419
10316TIP3   OH252362   2.344   1.208   2.328 -0.3569  0.4361  0.3846
10316TIP3    H152363   2.382   1.277   2.382 -1.0821  1.6068 -0.5518
10316TIP3    H252364   2.304   1.254   2.254 -0.1195 -1.0596 -0.7228
10317TIP3   OH252365   3.554   6.481  15.052 -0.3491  1.0034  0.0455
10317TIP3    H152366   3.477   6.511  15.101 -0.0402  1.5394  0.2133
10317TIP3    H252367   3.628   6.502  15.108 -0.0361  1.0240 -0.3696
10318TIP3   OH252368   0.669   1.830   3.820 -0.1250 -0.3630  0.5385
10318TIP3    H152369   0.719   1.835   3.901  0.1122 -0.6052  0.4086
10318TIP3    H252370   0.620   1.748   3.828 -0.2842 -0.2678  0.5405
10319TIP3   OH252371   1.052   0.636   2.706 -0.0722  0.0704 -0.2210
10319TIP3    H152372   1.037   0.722   2.665  2.5086  0.7775  0.1388
10319TIP3    H252373   0.980   0.626   2.768 -0.0711  2.3083  0.2129
10320TIP3   OH252374   4.360   1.124  13.559 -0.2603 -0.6667 -0.4627
10320TIP3    H152375   4.296   1.191  13.580 -0.0870 -0.3052 -1.0683
10320TIP3    H252376   4.445   1.165  13.577 -0.1857 -1.9267  2.6962
10321TIP3   OH252377   1.898   1.001   5.407  0.3284 -0.3584  0.7206
10321TIP3    H152378   1.848   0.929   5.369  1.1355 -1.4424  1.6507
10321TIP3    H252379   1.842   1.035   5.477 -0.8672  1.2044 -0.8942
10322TIP3   OH252380   6.766   5.205  11.295 -0.5366 -0.0392 -0.3239
10322TIP3    H152381   6.702   5.135  11.305 -0.2724 -0.3800 -0.9846
10322TIP3    H252382   6.784   5.208  11.201  1.4559 -0.8918 -0.0026
10323TIP3   OH252383   4.132   6.528  13.091 -0.6525  0.9284  0.3409
10323TIP3    H152384   4.099   6.544  13.180 -1.0890  0.8690  0.1913
10323TIP3    H252385   4.227   6.533  13.100 -0.6728  0.4512  0.9091
10324TIP3   OH252386   1.474   3.768  13.494 -0.2652 -0.7314  0.1695
10324TIP3    H152387   1.567   3.756  13.515 -0.2770  0.5063  1.0074
10324TIP3    H252388   1.458   3.707  13.422  1.1711 -1.0486  0.0881
10325TIP3   OH252389   3.203   0.494  10.485  0.5860  0.2568  0.0134
10325TIP3    H152390   3.117   0.523  10.453 -0.4630 -1.3159  1.2777
10325TIP3    H252391   3.248   0.576  10.507 -0.3169  1.1516 -1.2620
10326TIP3   OH252392   0.253   4.558  14.229 -0.2475  0.2638  0.7907
10326TIP3    H152393   0.212   4.614  14.163 -0.8696  1.4666  2.1315
10326TIP3    H252394   0.333   4.526  14.187 -0.4358  1.2800 -0.4126
10327TIP3   OH252395   2.268   6.412  15.551 -0.4598  0.3582 -0.0709
10327TIP3    H152396   2.185   6.460  15.555  0.6717  2.3511  1.4180
10327TIP3    H252397   2.298   6.426  15.461 -1.7385 -0.4762 -0.6640
10328TIP3   OH252398   0.601   5.888  11.567  0.8847 -0.6026 -0.2503
10328TIP3    H152399   0.660   5.818  11.598  1.2913 -0.5073 -0.7860
10328TIP3    H252400   0.660   5.956  11.535  0.4895  0.0565  0.4057
10329TIP3   OH252401   5.392   4.312   3.102  0.4200 -0.1485 -0.1015
10329TIP3    H152402   5.350   4.398   3.102  0.1895 -0.2645  0.1999
10329TIP3    H252403   5.410   4.295   3.009  0.1141  0.0498 -0.1979
10330TIP3   OH252404   4.077   3.806   2.919 -0.1010  0.2142  0.2658
10330TIP3    H152405   3.998   3.756   2.941 -0.4713  0.7662  0.2118
10330TIP3    H252406   4.044   3.888   2.882  0.4965 -0.0298 -0.8781
10331TIP3   OH252407   5.365   3.232  15.870 -0.1638  0.2914  0.3955
10331TIP3    H152408   5.353   3.164  15.936 -0.4906 -1.3970 -1.3293
10331TIP3    H252409   5.448   3.274  15.894  0.4730 -1.2593  1.0411
10332TIP3   OH252410   2.637   4.108   6.163 -0.4879 -0.4342  0.7877
10332TIP3    H152411   2.572   4.135   6.228 -0.5323  1.4456  0.0397
10332TIP3    H252412   2.587   4.058   6.099 -1.1093  0.4455  0.5587
10333TIP3   OH252413   2.110   5.288   4.867 -0.0323 -0.6294  0.1524
10333TIP3    H152414   2.136   5.362   4.922  1.3423 -0.9163 -0.0700
10333TIP3    H252415   2.090   5.217   4.929  0.3423 -0.5946  0.3112
10334TIP3   OH252416   0.901   4.802  11.514 -0.0047 -0.1768 -0.0780
10334TIP3    H152417   0.900   4.854  11.595 -0.9615 -2.2865  1.3810
10334TIP3    H252418   0.885   4.865  11.444 -2.0096  1.3854  1.6601
10335TIP3   OH252419   3.641   3.207  11.284  0.1038 -0.4725 -0.3459
10335TIP3    H152420   3.688   3.186  11.365  0.5593 -1.1034 -0.7581
10335TIP3    H252421   3.694   3.276  11.243  0.4017 -0.8249 -0.5629
10336TIP3   OH252422   2.862   0.352  11.259 -0.3003 -0.3339  0.4685
10336TIP3    H152423   2.832   0.417  11.196 -1.4345 -0.3043  1.0176
10336TIP3    H252424   2.903   0.403  11.329  0.0438 -0.3078  0.2534
10337TIP3   OH252425   0.683   6.264   2.631 -0.5971 -0.3561 -0.0446
10337TIP3    H152426   0.718   6.352   2.647 -0.2441 -0.5164  0.0634
10337TIP3    H252427   0.758   6.206   2.641 -0.5794 -0.5635 -1.2987
10338TIP3   OH252428   5.396   4.832  12.404 -0.0517 -0.1486 -0.0302
10338TIP3    H152429   5.366   4.750  12.444  2.8097 -0.8940  0.8456
10338TIP3    H252430   5.372   4.900  12.468  1.1757 -0.8786  1.2714
10339TIP3   OH252431   1.972   6.011  12.557 -0.7818 -0.1582  0.3820
10339TIP3    H152432   1.914   6.029  12.483  1.2599  0.2802 -1.2069
10339TIP3    H252433   1.912   5.994  12.631 -2.8911 -0.0346 -1.1933
10340TIP3   OH252434   2.529   4.701  14.593  0.2431  0.4862  0.1046
10340TIP3    H152435   2.613   4.657  14.608  0.2599 -0.4968 -2.4074
10340TIP3    H252436   2.547   4.762  14.522 -0.6346  2.0798  1.2171
10341TIP3   OH252437   6.383   5.328   2.510 -0.1652  0.3423 -0.2114
10341TIP3    H152438   6.455   5.272   2.482 -0.3966  0.1625 -0.4572
10341TIP3    H252439   6.385   5.323   2.606 -0.3555 -0.3231 -0.2313
10342TIP3   OH252440   1.329   3.601  11.407  0.8439 -0.1975 -0.1758
10342TIP3    H152441   1.367   3.517  11.382  0.5156 -0.1102 -1.0186
10342TIP3    H252442   1.353   3.660  11.335  0.3329  0.2098 -0.0204
10343TIP3   OH252443   2.114   2.595  14.363  0.6337 -0.5199  0.3298
10343TIP3    H152444   2.045   2.591  14.428  0.0135 -0.6614 -0.3249
10343TIP3    H252445   2.168   2.518  14.380  0.4662 -0.5640  0.6582
10344TIP3   OH252446   4.509   0.124   2.895 -0.3632  0.2596  0.2046
10344TIP3    H152447   4.478   0.077   2.973  0.2942  0.3488  0.5293
10344TIP3    H252448   4.430   0.139   2.843 -0.6837 -0.6194  0.4118
10345TIP3   OH252449   0.263   6.147   4.675  0.3186 -0.0563  0.2561
10345TIP3    H152450   0.168   6.138   4.666  0.4757 -0.9885 -0.6772
10345TIP3    H252451   0.291   6.185   4.591  0.8571 -0.6247  0.1696
10346TIP3   OH252452   0.359   2.912   2.801  0.3742 -0.3757 -0.4626
10346TIP3    H152453   0.275   2.956   2.785 -0.1800 -0.7785  1.1642
10346TIP3    H252454   0.423   2.965   2.753 -0.6284  0.6911 -0.6823
10347TIP3   OH252455   6.816   5.145   1.012  0.4896  0.1481 -0.3223
10347TIP3    H152456   6.867   5.065   0.999  0.4124  0.1812 -0.8395
10347TIP3    H252457   6.734   5.114   1.050  0.7888  0.0675  0.2714
10348TIP3   OH252458   1.969   6.281   2.784 -0.0593  0.1967  0.2724
10348TIP3    H152459   1.978   6.195   2.824 -0.3830 -0.1804 -0.4527
10348TIP3    H252460   2.059   6.306   2.762  0.1594  0.5439  1.4806
10349TIP3   OH252461   3.113   6.019   3.690 -0.2784  0.3778  0.6368
10349TIP3    H152462   3.092   5.968   3.612 -0.4157  0.8304  0.3777
10349TIP3    H252463   3.101   5.957   3.763  3.3664 -1.2251  0.1178
10350TIP3   OH252464   2.799   5.687  11.820  0.2542  0.0484  0.0403
10350TIP3    H152465   2.763   5.685  11.731  0.7885  0.3488 -0.1858
10350TIP3    H252466   2.822   5.778  11.835  2.1981 -0.3247 -0.3569
10351TIP3   OH252467   2.353   5.283  16.452 -0.2103  0.6117  0.3330
10351TIP3    H152468   2.398   5.250  16.529  1.1068  1.7328  0.0915
10351TIP3    H252469   2.295   5.351  16.486  1.3782  2.0817  0.2562
10352TIP3   OH252470   6.674   1.660  15.274  0.1381  0.4834 -0.1702
10352TIP3    H152471   6.711   1.632  15.358 -0.8051 -0.2754  0.0136
10352TIP3    H252472   6.616   1.732  15.296 -0.8807 -0.3629 -0.0114
10353TIP3   OH252473   0.977   3.575   4.659 -0.1471 -0.3019 -0.1245
10353TIP3    H152474   0.949   3.628   4.585  0.7450 -0.2004 -0.3978
10353TIP3    H252475   0.954   3.627   4.736 -0.4675 -0.1095 -0.3482
10354TIP3   OH252476   6.442   3.129   3.821  0.2767  0.2379  0.0783
10354TIP3    H152477   6.453   3.179   3.902  2.0566 -1.4201  0.9455
10354TIP3    H252478   6.529   3.093   3.803 -0.8507 -2.4711 -0.5061
10355TIP3   OH252479   3.605   5.222   1.962 -0.0251  0.3237 -0.1746
10355TIP3    H152480   3.646   5.166   2.028 -0.2786  0.8487  0.4330
10355TIP3    H252481   3.653   5.305   1.968 -0.5310  0.6153 -0.1448
10356TIP3   OH252482   6.803   1.715  14.508 -0.5293  1.1109 -0.2460
10356TIP3    H152483   6.803   1.662  14.428  0.6564  1.0206 -0.1970
10356TIP3    H252484   6.797   1.805  14.477  0.5822  1.1147 -0.4805
10357TIP3   OH252485   5.722   3.247   5.432 -0.0823  0.0622 -0.0338
10357TIP3    H152486   5.739   3.275   5.522 -2.1409 -0.4564  0.5545
10357TIP3    H252487   5.756   3.319   5.378  0.8872  0.5251  1.1479
10358TIP3   OH252488   3.504   5.409   3.438 -0.3409  0.2341  0.1753
10358TIP3    H152489   3.568   5.392   3.507 -1.0684  1.5664  1.2249
10358TIP3    H252490   3.447   5.333   3.438  0.9690 -0.7901 -0.5050
10359TIP3   OH252491   3.050   5.279   4.396  0.1823 -0.1255 -0.1002
10359TIP3    H152492   2.970   5.262   4.347 -0.9383 -1.3202  2.0057
10359TIP3    H252493   3.022   5.331   4.471  0.8299 -2.6366  2.0280
10360TIP3   OH252494   3.802   3.567   1.552  0.2241 -0.1823  0.0296
10360TIP3    H152495   3.767   3.642   1.602  0.2034  0.7464 -1.3195
10360TIP3    H252496   3.740   3.496   1.569  0.1147  0.1605  1.1580
10361TIP3   OH252497   5.749   3.937   1.234 -0.2183  0.4569 -0.3633
10361TIP3    H152498   5.794   4.021   1.239  0.6434  0.0180 -0.6087
10361TIP3    H252499   5.656   3.959   1.242 -0.0584  1.5087 -1.1786
10362TIP3   OH252500   1.059   6.630   1.931 -0.2696  0.1002 -0.2157
10362TIP3    H152501   1.008   6.683   1.869 -2.1128  0.1154  1.2305
10362TIP3    H252502   1.150   6.646   1.907 -0.8975  0.5660 -2.5204
10363TIP3   OH252503   1.964   0.476   2.084 -0.8007 -0.4070 -0.4594
10363TIP3    H152504   1.900   0.482   2.013 -0.6897 -2.4187 -0.7838
10363TIP3    H252505   1.966   0.564   2.121 -2.8457  0.0298 -1.2265
10364TIP3   OH252506   6.097   3.316  11.061  0.3749 -0.2156 -0.2389
10364TIP3    H152507   6.116   3.409  11.073  0.5103 -0.2964  0.1969
10364TIP3    H252508   6.172   3.282  11.011 -0.0206  0.0527 -1.0183
10365TIP3   OH252509   3.961   0.305   4.343  0.2993  0.2953  0.1059
10365TIP3    H152510   4.005   0.321   4.260 -0.0211 -1.7642 -0.5158
10365TIP3    H252511   4.021   0.249   4.392  0.3654  1.2699  1.1977
10366TIP3   OH252512   6.389   4.047   5.206 -0.5185 -0.2174 -0.2662
10366TIP3    H152513   6.471   4.005   5.233 -0.0222  1.6349  1.4048
10366TIP3    H252514   6.321   3.988   5.238  0.1164 -1.6359 -1.4144
10367TIP3   OH252515   3.632   6.223   1.954  0.4695 -0.3944  0.3334
10367TIP3    H152516   3.609   6.208   2.045  3.1529  2.3203  1.6558
10367TIP3    H252517   3.576   6.294   1.926  1.2026  0.3422  0.6876
10368TIP3   OH252518   1.592   0.686  15.905  0.0615 -0.1877  0.0387
10368TIP3    H152519   1.608   0.599  15.868  0.0197 -0.6455  1.0578
10368TIP3    H252520   1.500   0.703  15.887  0.1140 -0.2709 -0.3213
10369TIP3   OH252521   4.446   1.319  12.793 -0.2239 -0.5029  0.6665
10369TIP3    H152522   4.407   1.406  12.792  2.7299  0.9427 -0.1655
10369TIP3    H252523   4.420   1.282  12.878 -1.9226  0.9619  0.8327
10370TIP3   OH252524   0.620   2.654   2.001  0.7868 -0.3424 -0.2609
10370TIP3    H152525   0.688   2.635   1.937  2.3612  1.9395  0.6338
10370TIP3    H252526   0.540   2.617   1.963  2.2506 -1.9500 -1.9417
10371TIP3   OH252527   4.034   1.293   4.878  0.2715 -0.1663  0.0134
10371TIP3    H152528   3.982   1.336   4.946  2.5128  1.9283  0.5227
10371TIP3    H252529   4.076   1.220   4.923  0.7834  0.4770  0.6061
10372TIP3   OH252530   0.078   3.742  14.101  0.6152 -0.2971  0.1389
10372TIP3    H152531   0.014   3.747  14.172 -1.7753 -2.8479 -1.6093
10372TIP3    H252532   0.143   3.678  14.131  0.0116 -0.8331  0.3159
10373TIP3   OH252533   0.072   3.817  16.292 -0.5494  0.4149 -0.3345
10373TIP3    H152534  -0.010   3.854  16.326 -0.4830  0.7856 -0.5698
10373TIP3    H252535   0.138   3.842  16.356 -0.5169  0.6500 -0.4579
10374TIP3   OH252536   5.242   4.826  11.100  0.0834  0.2232  0.3182
10374TIP3    H152537   5.196   4.898  11.056 -0.2820 -0.7610 -0.9652
10374TIP3    H252538   5.315   4.806  11.043 -1.7807 -2.7229 -1.2744
10375TIP3   OH252539   4.566   2.916  11.579  0.0697  0.1891  0.4198
10375TIP3    H152540   4.480   2.938  11.545 -0.8181 -2.3224  0.8610
10375TIP3    H252541   4.617   2.998  11.571 -2.3664  1.7939  0.3622
10376TIP3   OH252542   5.773   5.357  15.407  0.1208 -0.2249 -0.2571
10376TIP3    H152543   5.863   5.369  15.376  0.1863 -1.2853 -0.5059
10376TIP3    H252544   5.720   5.413  15.350  0.5914  0.2222 -0.2624
10377TIP3   OH252545   1.878   5.798   2.150 -0.0412 -0.7306 -0.0817
10377TIP3    H152546   1.797   5.816   2.102 -1.1704 -0.2096  1.8782
10377TIP3    H252547   1.853   5.809   2.242  2.3434 -0.2916  0.5721
10378TIP3   OH252548   5.116   5.942  15.895 -0.1351 -0.0391 -0.1428
10378TIP3    H152549   5.200   5.900  15.876 -0.6036 -0.6644 -0.8524
10378TIP3    H252550   5.051   5.873  15.883 -0.8435  0.6825 -0.5607
10379TIP3   OH252551   3.404   2.590  13.766  0.3124  0.0411 -0.5386
10379TIP3    H152552   3.380   2.514  13.712 -1.7897 -0.1103  0.5048
10379TIP3    H252553   3.378   2.565  13.855  3.1675  0.4941  0.5298
10380TIP3   OH252554   3.322   3.271  11.909 -0.1471  0.6118 -0.2441
10380TIP3    H152555   3.244   3.225  11.879 -0.5042  1.2208 -0.2840
10380TIP3    H252556   3.376   3.204  11.951 -0.4872  0.1017 -0.6092
10381TIP3   OH252557   4.145   0.558   1.480  0.1941 -0.4319 -0.5124
10381TIP3    H152558   4.056   0.590   1.471  0.2363  0.2770  1.2341
10381TIP3    H252559   4.200   0.637   1.475  0.6727 -0.7787 -0.8814
10382TIP3   OH252560   5.604   6.113  13.625  0.1182 -0.1061 -0.0506
10382TIP3    H152561   5.597   6.132  13.719  1.1480 -1.7699  0.3859
10382TIP3    H252562   5.697   6.125  13.605 -0.1447  0.5345 -0.9486
10383TIP3   OH252563   2.539   5.650   4.493 -0.4608 -0.0282  0.1210
10383TIP3    H152564   2.482   5.599   4.551  1.7141 -0.8298  1.6909
10383TIP3    H252565   2.539   5.738   4.531  0.2939 -0.3426  0.8784
10384TIP3   OH252566   3.327   2.621   3.504  0.4790  0.3442 -0.2960
10384TIP3    H152567   3.311   2.714   3.519  2.4550  0.9432 -1.5109
10384TIP3    H252568   3.358   2.616   3.413  1.4798 -1.3479  0.0847
10385TIP3   OH252569   6.522   2.850   0.672 -0.1952 -0.2887  0.1018
10385TIP3    H152570   6.496   2.912   0.740  3.0371  0.9819  0.3527
10385TIP3    H252571   6.459   2.779   0.679 -2.1058  1.4438  1.9996
10386TIP3   OH252572   4.122   5.123   0.662  1.0224 -0.2721 -0.0934
10386TIP3    H152573   4.202   5.166   0.630  1.1935 -0.9849 -0.6521
10386TIP3    H252574   4.113   5.045   0.607  0.5692 -0.8151  0.7371
10387TIP3   OH252575   4.508   4.927   1.722 -0.0785 -0.3585  0.3008
10387TIP3    H152576   4.527   4.996   1.659  0.8541 -3.2263 -2.8107
10387TIP3    H252577   4.582   4.929   1.783  0.4741  0.6430 -0.3813
10388TIP3   OH252578   5.816   5.532   0.238 -0.0028 -0.3068  0.2661
10388TIP3    H152579   5.744   5.494   0.188 -1.0406 -0.0305  1.5190
10388TIP3    H252580   5.856   5.457   0.284  1.3707 -0.6712 -1.4021
10389TIP3   OH252581   6.282   5.784   0.432 -0.0834  0.5960  0.6443
10389TIP3    H152582   6.225   5.789   0.355  0.1063  0.7391  0.5107
10389TIP3    H252583   6.222   5.768   0.505 -0.3651  1.3865  0.5970
10390TIP3   OH252584   6.339   2.739   1.505  0.2602 -0.0848 -0.4461
10390TIP3    H152585   6.308   2.700   1.423  1.7461 -2.0367 -0.1575
10390TIP3    H252586   6.433   2.748   1.493  0.3946  0.3043  0.7896
10391TIP3   OH252587   5.460   0.913  11.909 -0.0782 -0.7604  0.8986
10391TIP3    H152588   5.527   0.973  11.941 -0.3516 -0.4024  0.8097
10391TIP3    H252589   5.504   0.829  11.902  0.2453 -0.6226  1.2615
10392TIP3   OH252590   4.248   3.795  13.592 -0.3675 -0.1083 -0.5055
10392TIP3    H152591   4.171   3.767  13.543 -0.2466 -0.3537 -0.5558
10392TIP3    H252592   4.214   3.828  13.675 -0.5488  0.0272 -0.6347
10393TIP3   OH252593   1.589   6.642  12.652 -0.0387 -0.2721 -0.1962
10393TIP3    H152594   1.668   6.627  12.703 -0.8523 -1.2428  0.8327
10393TIP3    H252595   1.617   6.699  12.581  2.0118 -2.2129 -1.0449
10394TIP3   OH252596   4.400   6.098  11.926  0.2849 -0.0889  0.0718
10394TIP3    H152597   4.393   6.187  11.891 -1.8044 -0.2290  0.0294
10394TIP3    H252598   4.315   6.058  11.908  0.8853 -1.8211  0.8670
10395TIP3   OH252599   0.882   6.668   5.035  0.4118  0.4227 -0.3447
10395TIP3    H152600   0.852   6.750   4.996  0.3382  0.7746  0.4233
10395TIP3    H252601   0.809   6.607   5.024 -0.1398  0.9160  0.4260
10396TIP3   OH252602   6.620   2.462   0.912 -0.0593 -0.3359 -0.4828
10396TIP3    H152603   6.716   2.468   0.911  0.0569 -1.3159  0.8346
10396TIP3    H252604   6.596   2.432   0.825  1.0205 -1.9080 -0.2853
10397TIP3   OH252605   0.282   0.004   2.608 -0.1766 -0.1307  0.2278
10397TIP3    H152606   0.358   0.034   2.657  0.0311  0.6393 -0.5472
10397TIP3    H252607   0.306   0.013   2.517 -1.3341  0.4956 -0.0389
10398TIP3   OH252608   1.170   1.387  13.433 -1.3535 -0.4139  0.3514
10398TIP3    H152609   1.216   1.337  13.500 -0.8443  0.6043  0.7866
10398TIP3    H252610   1.155   1.473  13.474 -2.1664 -0.1927 -0.3839
10399TIP3   OH252611   4.324   2.498   6.064  0.0957 -1.1192  0.7487
10399TIP3    H152612   4.249   2.553   6.087  0.4295 -0.0944 -0.4841
10399TIP3    H252613   4.291   2.408   6.071 -1.2976 -0.6858  0.1447
10400TIP3   OH252614   5.237   6.444   4.138  0.8026 -0.3357 -0.9138
10400TIP3    H152615   5.261   6.353   4.121  2.7312 -0.1319  0.4930
10400TIP3    H252616   5.238   6.453   4.233 -1.0109  0.7819 -0.9379
10401TIP3   OH252617   0.206   2.728  12.461  0.6189  0.6520 -0.4495
10401TIP3    H152618   0.256   2.742  12.381 -0.0587  1.2198 -0.7868
10401TIP3    H252619   0.171   2.814  12.483 -0.7110  0.1674 -0.5760
10402TIP3   OH252620   5.148   4.854   5.871  0.1652 -0.1275  0.5944
10402TIP3    H152621   5.119   4.910   5.800  3.0670  1.8705  0.7960
10402TIP3    H252622   5.068   4.830   5.918 -1.4437  1.6640 -1.0852
10403TIP3   OH252623   5.939   1.067   3.514 -0.5444  0.0234  0.3417
10403TIP3    H152624   5.854   1.036   3.545 -0.7593  0.5616  0.3019
10403TIP3    H252625   5.999   0.997   3.536 -0.6565  0.4279  2.1414
10404TIP3   OH252626   4.176   1.486  12.950  0.1004 -0.3031 -0.2081
10404TIP3    H152627   4.252   1.531  12.914 -0.9286 -0.0998 -2.3035
10404TIP3    H252628   4.168   1.407  12.896  0.7750 -2.1183  2.1804
10405TIP3   OH252629   3.043   5.999  13.243  0.2790  0.3035 -0.0451
10405TIP3    H152630   2.962   5.997  13.294  0.1406  1.3428 -0.1974
10405TIP3    H252631   3.016   5.974  13.155  0.1997  0.2293  0.0004
10406TIP3   OH252632   5.864   6.255   0.762  0.4336 -0.0084 -0.2235
10406TIP3    H152633   5.949   6.238   0.802 -0.4236  1.3594  2.4159
10406TIP3    H252634   5.860   6.350   0.753 -1.2480  0.0947  0.9343
10407TIP3   OH252635   5.403   6.662  15.403  0.4062  0.8070  0.8202
10407TIP3    H152636   5.373   6.730  15.464  0.1654  0.8683  0.6367
10407TIP3    H252637   5.331   6.598  15.402 -0.5276  1.7939 -0.9283
10408TIP3   OH252638   3.913   0.354  12.164 -0.6381  0.2625 -0.2264
10408TIP3    H152639   3.881   0.265  12.173  0.0208 -0.0389 -0.7426
10408TIP3    H252640   3.871   0.388  12.085 -0.1265  0.0514 -0.5996
10409TIP3   OH252641   0.923   4.023   3.442 -0.1702 -0.1056  0.3911
10409TIP3    H152642   0.999   3.966   3.431  0.0407  0.2561 -0.0514
10409TIP3    H252643   0.955   4.111   3.421  0.1082  0.5953  3.2424
10410TIP3   OH252644   6.311   0.534  14.645  0.4189  0.1788  0.2635
10410TIP3    H152645   6.240   0.543  14.709  1.6977 -2.0079  2.1460
10410TIP3    H252646   6.283   0.461  14.590  0.3988  0.5108 -0.1700
10411TIP3   OH252647   3.259   0.799  12.773  0.2259 -0.2625  0.1666
10411TIP3    H152648   3.185   0.739  12.772  0.1838 -0.2083 -0.3402
10411TIP3    H252649   3.301   0.784  12.857 -0.2252 -0.4604  0.3582
10412TIP3   OH252650   4.108   3.545  13.499  0.5549  0.1282 -0.0785
10412TIP3    H152651   4.133   3.457  13.471 -0.4987 -0.7426  1.5736
10412TIP3    H252652   4.015   3.539  13.518  0.4010  1.6945 -0.1919
10413TIP3   OH252653   6.451   2.193  12.479 -0.4253  0.1021  0.0854
10413TIP3    H152654   6.399   2.112  12.474  2.1078 -1.5374 -1.9438
10413TIP3    H252655   6.504   2.182  12.558  0.3494 -0.5543 -0.5085
10414TIP3   OH252656   4.027   6.782   1.357  0.2451 -0.3791 -0.6993
10414TIP3    H152657   3.964   6.809   1.423 -0.2225 -0.9821 -0.8861
10414TIP3    H252658   4.102   6.839   1.371 -0.5229  0.6745 -0.7887
10415TIP3   OH252659   5.641   2.712  15.297 -0.6007 -0.0577 -0.1070
10415TIP3    H152660   5.712   2.732  15.358  0.0097 -3.1411  0.3589
10415TIP3    H252661   5.588   2.791  15.294  1.4564  1.4810  1.4760
10416TIP3   OH252662   1.534   5.343   2.962  0.3159  0.1230 -0.2932
10416TIP3    H152663   1.474   5.412   2.932 -1.3021 -1.0251  0.1472
10416TIP3    H252664   1.621   5.374   2.936 -0.2606  2.6190  0.4572
10417TIP3   OH252665   2.518   5.287   2.243  0.0878 -0.8925 -0.1179
10417TIP3    H152666   2.437   5.262   2.199 -0.2454  0.1209 -0.1236
10417TIP3    H252667   2.529   5.379   2.220  1.1873 -0.9937 -0.0189
10418TIP3   OH252668   2.967   3.621   1.243  0.2785  0.2011 -0.7367
10418TIP3    H152669   2.931   3.533   1.231 -0.5071  0.6312 -1.7385
10418TIP3    H252670   3.014   3.617   1.326  0.2163 -1.1472 -0.7462
10419TIP3   OH252671   0.214   5.537  11.380 -0.1631  0.1924  0.0626
10419TIP3    H152672   0.247   5.451  11.406  1.9131  1.2098  1.0608
10419TIP3    H252673   0.119   5.526  11.373  0.0336 -2.1011  0.3539
10420TIP3   OH252674   4.508   2.812   2.677 -0.1309 -0.3715 -0.2519
10420TIP3    H152675   4.484   2.721   2.663 -1.3033  0.0421 -1.1158
10420TIP3    H252676   4.424   2.858   2.684  0.4295  0.5032  1.1861
10421TIP3   OH252677   3.642   3.646  11.772 -0.2632 -0.2297 -0.0624
10421TIP3    H152678   3.597   3.677  11.693  0.5156 -1.2737 -0.9319
10421TIP3    H252679   3.580   3.584  11.811  0.2882 -1.5178 -1.1546
10422TIP3   OH252680   6.494   3.360  12.540  0.6180 -0.2973  0.1280
10422TIP3    H152681   6.522   3.429  12.481  1.5602 -1.4454 -0.8183
10422TIP3    H252682   6.432   3.308  12.488 -2.5266  1.4816  1.7743
10423TIP3   OH252683   4.114   3.977  15.595  0.3590  0.7337 -0.1839
10423TIP3    H152684   4.208   3.988  15.579  1.0567 -0.9383  2.2700
10423TIP3    H252685   4.099   3.883  15.582 -1.4354  1.2263 -2.3347
10424TIP3   OH252686   2.530   6.458   2.269  0.0145  0.3376 -0.5776
10424TIP3    H152687   2.615   6.437   2.307 -0.4597  0.0318  0.3696
10424TIP3    H252688   2.522   6.553   2.279 -0.2082  0.2332  0.3681
10425TIP3   OH252689   2.376   4.640  15.045 -0.1083  0.6987  0.2311
10425TIP3    H152690   2.369   4.717  14.988 -1.1383 -0.0490 -0.6976
10425TIP3    H252691   2.464   4.607  15.030 -0.0101  1.1123 -0.1366
10426TIP3   OH252692   4.872   1.286   5.406 -0.2417 -0.2143  0.0259
10426TIP3    H152693   4.828   1.371   5.407  1.5890  0.7849  0.6554
10426TIP3    H252694   4.938   1.294   5.337  0.1135 -1.0371  0.2562
10427TIP3   OH252695   6.567   2.495   5.173  0.3707  0.4259  0.1231
10427TIP3    H152696   6.636   2.526   5.115  0.1972  2.1671  0.7959
10427TIP3    H252697   6.501   2.564   5.171 -1.1534 -0.9931 -0.1464
10428TIP3   OH252698   6.405   3.356  11.392 -0.4205  0.6425  0.2352
10428TIP3    H152699   6.487   3.348  11.441  2.4595  0.3232 -4.0447
10428TIP3    H252700   6.366   3.269  11.397  1.8766 -0.5703 -1.0671
10429TIP3   OH252701   1.475   0.911  11.829 -0.1571  0.4407  1.2699
10429TIP3    H152702   1.501   0.820  11.814 -1.5269 -0.0807  1.8860
10429TIP3    H252703   1.550   0.951  11.872  0.9675 -0.0242 -0.1874
10430TIP3   OH252704   1.941   0.177  16.245  0.3690  0.3933 -0.5331
10430TIP3    H152705   1.866   0.131  16.207 -1.4280  0.3428  2.7221
10430TIP3    H252706   1.923   0.269  16.228  1.1073  0.2650 -2.2135
10431TIP3   OH252707   5.500   4.105   5.008 -0.2103 -0.1816 -0.5766
10431TIP3    H152708   5.532   4.181   4.960  0.7034  0.2461  0.6370
10431TIP3    H252709   5.563   4.036   4.987  0.5512  0.1713  0.4083
10432TIP3   OH252710   2.193   1.775  14.850  0.1033 -0.1784  0.8679
10432TIP3    H152711   2.284   1.779  14.820  0.5110 -1.2584  1.8801
10432TIP3    H252712   2.167   1.684  14.834 -0.5406 -0.0764  1.2971
10433TIP3   OH252713   4.380   0.838  13.280  0.3311  0.8253 -0.2513
10433TIP3    H152714   4.287   0.824  13.260  0.7517 -0.4321 -1.4153
10433TIP3    H252715   4.410   0.755  13.315  0.8562  1.4604  0.8531
10434TIP3   OH252716   6.733   3.570   0.391  0.3014 -0.1369  0.8860
10434TIP3    H152717   6.780   3.529   0.318  1.3336  4.2730 -1.2849
10434TIP3    H252718   6.644   3.536   0.384 -0.3947  1.7924 -4.3497
10435TIP3   OH252719   4.277   6.090   4.114  0.1775 -0.3240  0.1145
10435TIP3    H152720   4.274   6.046   4.029  0.3482  0.9330 -0.5668
10435TIP3    H252721   4.237   6.027   4.175 -0.4187 -1.0370 -0.9790
10436TIP3   OH252722   1.141   1.805   6.040 -0.8243  0.4867  0.0191
10436TIP3    H152723   1.056   1.789   6.080 -2.1341  2.0316 -1.9644
10436TIP3    H252724   1.153   1.900   6.046  0.2773  0.4106 -0.6617
10437TIP3   OH252725   3.839   2.661  12.300  0.0969 -0.3348  0.2595
10437TIP3    H152726   3.885   2.728  12.351 -0.3400 -1.0449  1.6494
10437TIP3    H252727   3.758   2.646  12.349 -0.8942 -0.2426 -1.2888
10438TIP3   OH252728   2.555   0.661   2.788 -0.4249 -0.4412 -0.6714
10438TIP3    H152729   2.588   0.607   2.860 -1.0527  0.1619  0.0725
10438TIP3    H252730   2.590   0.618   2.709  2.1723  0.1474  0.0461
10439TIP3   OH252731   6.140   6.367  15.439  0.4576  0.2782 -0.2227
10439TIP3    H152732   6.155   6.294  15.499 -0.3450 -1.1219 -1.6367
10439TIP3    H252733   6.113   6.325  15.358  1.3234  2.1208 -1.5183
10440TIP3   OH252734   0.940   1.958  13.484 -0.0389 -0.5872  0.0834
10440TIP3    H152735   0.902   1.879  13.445 -0.1530 -1.6257  2.1888
10440TIP3    H252736   0.869   1.998  13.533  0.3297  0.2000 -0.0133
10441TIP3   OH252737   6.356   1.311  13.146  0.2035  0.1677 -0.3669
10441TIP3    H152738   6.354   1.372  13.219  0.0867  0.1862 -0.3853
10441TIP3    H252739   6.317   1.359  13.073 -0.3715 -0.0986 -0.2474
10442TIP3   OH252740   4.206   3.919  12.773  0.2044 -0.6536 -0.3437
10442TIP3    H152741   4.149   3.982  12.817  0.3594 -0.1755 -0.8154
10442TIP3    H252742   4.272   3.897  12.839  0.1205 -0.3596 -0.1570
10443TIP3   OH252743   3.349   4.426  15.981 -0.0546 -0.2944 -0.2230
10443TIP3    H152744   3.442   4.424  15.960  0.2044  1.6298  0.5043
10443TIP3    H252745   3.346   4.420  16.076 -0.7639 -1.4753 -0.3015
10444TIP3   OH252746   1.317   2.472  15.063 -0.1083 -0.6877  0.3731
10444TIP3    H152747   1.274   2.479  14.977  1.2728 -1.7956 -0.4410
10444TIP3    H252748   1.256   2.419  15.115 -0.3562 -1.1186 -0.3371
10445TIP3   OH252749   5.087   0.707  12.692 -0.1479  0.5607 -0.3336
10445TIP3    H152750   5.169   0.659  12.699 -0.5826  0.0211  3.1919
10445TIP3    H252751   5.102   0.788  12.741 -1.8414  0.0845  1.1227
10446TIP3   OH252752   2.864   0.553  15.420  0.4526 -0.1069 -0.0568
10446TIP3    H152753   2.784   0.606  15.413 -0.1530 -0.8665  0.7571
10446TIP3    H252754   2.844   0.473  15.371  0.5507 -0.4735  0.4912
10447TIP3   OH252755   1.333   1.532   4.479  0.1201  0.0017 -0.1881
10447TIP3    H152756   1.276   1.517   4.555 -0.5183  0.6005 -0.5454
10447TIP3    H252757   1.366   1.621   4.492 -0.8892  0.5410 -1.1861
10448TIP3   OH252758   5.358   3.365   5.339  0.8702  0.2960 -0.0253
10448TIP3    H152759   5.448   3.394   5.323  1.3253 -0.7799  0.4047
10448TIP3    H252760   5.363   3.269   5.331  0.0982  0.0925  1.5046
10449TIP3   OH252761   1.300   5.950  15.376  0.1724  0.1744  0.3738
10449TIP3    H152762   1.243   6.027  15.380  0.2490  0.1863  1.7296
10449TIP3    H252763   1.360   5.968  15.304  0.1853  1.3827  0.6649
10450TIP3   OH252764   5.121   6.455   4.411 -0.2115  0.4638 -0.6421
10450TIP3    H152765   5.031   6.489   4.403 -0.4856 -0.4647 -1.7985
10450TIP3    H252766   5.122   6.408   4.495 -0.5235  1.2644 -0.1793
10451TIP3   OH252767   3.407   5.561  12.930 -0.7058  0.2006  0.1816
10451TIP3    H152768   3.324   5.567  12.883 -0.0151 -1.1327 -1.3015
10451TIP3    H252769   3.418   5.468  12.947  0.0325  0.4625  1.2552
10452TIP3   OH252770   2.814   4.853  15.727  0.4156  0.3027 -0.2997
10452TIP3    H152771   2.724   4.855  15.759  0.5767  0.8354  0.1424
10452TIP3    H252772   2.867   4.839  15.805  0.8074  1.5494 -0.3225
10453TIP3   OH252773   3.568   2.077  13.554 -0.1165  0.0123 -0.1241
10453TIP3    H152774   3.631   2.129  13.604 -0.0675 -0.0020 -0.1707
10453TIP3    H252775   3.485   2.088  13.601  0.1471 -0.8604  0.5673
10454TIP3   OH252776   1.080   2.848   5.869 -0.3847 -0.2665  0.3353
10454TIP3    H152777   1.037   2.906   5.931 -1.1104 -0.0789 -0.3207
10454TIP3    H252778   1.061   2.760   5.900  0.2537 -0.1691  1.0275
10455TIP3   OH252779   0.359   0.312  13.845 -0.0759  0.3384  0.3748
10455TIP3    H152780   0.424   0.258  13.890  0.4473  0.0481 -0.7101
10455TIP3    H252781   0.312   0.250  13.788  1.4242  1.1883 -1.9160
10456TIP3   OH252782   6.765   2.361   4.453 -0.2608  0.2227 -0.4569
10456TIP3    H152783   6.707   2.433   4.429 -1.1357 -0.9533 -2.0655
10456TIP3    H252784   6.785   2.318   4.370  0.1539 -1.4477  0.4710
10457TIP3   OH252785   2.399   4.023   3.924 -0.3077  0.0896  0.2638
10457TIP3    H152786   2.364   3.984   3.844  1.5105  0.6862 -0.8753
10457TIP3    H252787   2.405   4.116   3.905 -0.0337  0.2693  1.1712
10458TIP3   OH252788   1.216   5.303  11.303 -0.1265 -0.3660 -0.1476
10458TIP3    H152789   1.234   5.337  11.215  0.4491 -1.8073 -0.6075
10458TIP3    H252790   1.155   5.231  11.289 -0.2681 -0.4165  0.6776
10459TIP3   OH252791   4.360   3.990   3.455  0.2850  0.5041 -0.1868
10459TIP3    H152792   4.295   3.955   3.516 -0.5839  1.4510 -0.5295
10459TIP3    H252793   4.404   3.913   3.420  0.3615 -0.0855  1.1487
10460TIP3   OH252794   2.561   3.602   2.505 -0.2997 -0.3182 -0.1244
10460TIP3    H152795   2.497   3.616   2.575 -0.3600  0.0540 -0.2518
10460TIP3    H252796   2.508   3.575   2.430  0.0091 -4.9663  0.9896
10461TIP3   OH252797   5.841   5.316  15.033 -0.1458  0.8378  0.2303
10461TIP3    H152798   5.814   5.260  15.106  0.2839 -0.6542 -0.7102
10461TIP3    H252799   5.760   5.357  15.003 -0.6268  0.0298  0.3838
10462TIP3   OH252800   5.877   1.575   1.687 -0.3215 -0.3511  0.4757
10462TIP3    H152801   5.830   1.503   1.729  1.6136 -2.9552 -1.4682
10462TIP3    H252802   5.810   1.639   1.665 -2.4419 -2.3800  0.7003
10463TIP3   OH252803   5.227   4.145  11.406  0.2114 -0.3577 -0.4430
10463TIP3    H152804   5.178   4.068  11.377 -0.0698 -0.2299 -0.3031
10463TIP3    H252805   5.319   4.117  11.401  0.0702 -1.3898  1.4182
10464TIP3   OH252806   3.295   2.093   2.228 -0.0810 -0.6179  0.1564
10464TIP3    H152807   3.389   2.072   2.229  0.2481  0.6474 -0.7910
10464TIP3    H252808   3.278   2.116   2.137 -0.5151  2.4216  0.9032
10465TIP3   OH252809   5.605   1.412   0.493 -0.2429 -0.3513  0.2551
10465TIP3    H152810   5.626   1.407   0.399 -1.3456  1.0904 -0.1170
10465TIP3    H252811   5.643   1.333   0.531 -1.3977 -1.9775 -1.7406
10466TIP3   OH252812   6.595   5.812  13.525  0.5334 -0.0012  0.1972
10466TIP3    H152813   6.639   5.812  13.439 -0.8663  0.1801 -0.5415
10466TIP3    H252814   6.596   5.720  13.551 -0.8469 -0.3843 -0.9945
10467TIP3   OH252815   1.737   4.585  14.984  0.2135 -0.1674 -0.1943
10467TIP3    H152816   1.829   4.574  14.963  0.2381  1.0129 -0.7699
10467TIP3    H252817   1.723   4.680  14.983 -1.2321 -0.3576 -1.1263
10468TIP3   OH252818   4.465   3.700  15.367  0.3317  0.2802 -0.0302
10468TIP3    H152819   4.441   3.622  15.317  1.0037  0.3521 -0.4788
10468TIP3    H252820   4.491   3.666  15.453 -0.6932  0.1429  0.2405
10469TIP3   OH252821   1.051   2.871   2.924 -0.3723 -0.1891 -0.2852
10469TIP3    H152822   1.079   2.902   3.010  0.4846 -0.2707 -0.5280
10469TIP3    H252823   0.955   2.870   2.929 -0.3214 -0.6180  0.8165
10470TIP3   OH252824   6.554   3.812   4.589  0.0343  0.3494 -0.5150
10470TIP3    H152825   6.551   3.906   4.605 -0.1666  0.2360  0.1590
10470TIP3    H252826   6.463   3.787   4.572 -0.1842  0.0031  1.0423
10471TIP3   OH252827   2.078   3.324  13.836 -0.2799  1.2306  0.3820
10471TIP3    H152828   2.097   3.331  13.743 -0.8617  1.9184  0.3046
10471TIP3    H252829   2.083   3.230  13.855  0.0500  1.1078 -0.2919
10472TIP3   OH252830   2.606   5.783  16.215 -0.5829 -0.1444 -0.7041
10472TIP3    H152831   2.685   5.788  16.162 -0.7420  1.4292 -0.8377
10472TIP3    H252832   2.608   5.863  16.269 -0.6687 -1.4329  1.3215
10473TIP3   OH252833   6.797   6.567   0.324  0.2261  0.2411 -0.0848
10473TIP3    H152834   6.841   6.570   0.238 -0.4361 -1.3951 -0.5080
10473TIP3    H252835   6.742   6.490   0.320 -1.2653  1.1902  1.1518
10474TIP3   OH252836   6.193   4.581  14.727 -0.5371  0.0307  0.3155
10474TIP3    H152837   6.151   4.550  14.808 -1.2273  0.3550  0.0878
10474TIP3    H252838   6.140   4.656  14.700  1.1460  1.5182  0.9182
10475TIP3   OH252839   1.256   1.741  13.743 -0.1413  0.6971 -1.0524
10475TIP3    H152840   1.250   1.794  13.822 -1.2878  0.6072 -1.0735
10475TIP3    H252841   1.299   1.798  13.678  0.2151  0.9855 -0.5674
10476TIP3   OH252842   1.687   6.495   3.369  0.0190  0.0078  0.0933
10476TIP3    H152843   1.759   6.525   3.314  1.0342  0.1651  1.4516
10476TIP3    H252844   1.677   6.564   3.435 -1.7743  0.2641 -0.3992
10477TIP3   OH252845   1.105   1.243  11.829  0.1881 -0.4826 -0.1229
10477TIP3    H152846   1.153   1.288  11.898  0.2541  0.1105 -0.5516
10477TIP3    H252847   1.148   1.158  11.822 -0.7480 -1.1658  1.5932
10478TIP3   OH252848   5.638   0.411   3.824  0.0566  0.0751 -0.2808
10478TIP3    H152849   5.601   0.324   3.807 -1.3313  0.0814  2.2705
10478TIP3    H252850   5.724   0.394   3.862  0.5144 -0.0943 -1.3555
10479TIP3   OH252851   6.607   6.352  13.742 -0.4359  0.3186 -0.0451
10479TIP3    H152852   6.678   6.416  13.737  0.3558 -0.5696 -0.4305
10479TIP3    H252853   6.533   6.396  13.701 -0.1237  1.2543  0.3453
10480TIP3   OH252854   2.645   1.689   0.967  0.1909  0.0274  0.1004
10480TIP3    H152855   2.649   1.704   1.062  0.4012 -1.2125  0.3006
10480TIP3    H252856   2.644   1.777   0.929 -0.7674  0.5613  1.2851
10481TIP3   OH252857   6.584   4.571  12.440  0.0980  0.7422 -0.2708
10481TIP3    H152858   6.661   4.615  12.405 -0.7428  1.4738 -1.2661
10481TIP3    H252859   6.510   4.623  12.408 -1.0324 -1.9465 -2.4856
10482TIP3   OH252860   2.372   2.738  16.256  0.2268  0.3146  0.1102
10482TIP3    H152861   2.425   2.658  16.248 -0.7610 -0.3977  0.4570
10482TIP3    H252862   2.343   2.756  16.167  1.1359  0.7778 -0.1023
10483TIP3   OH252863   5.012   6.610  13.155 -0.3646 -0.1516  0.0422
10483TIP3    H152864   5.070   6.648  13.089 -0.0937  2.1618  1.4721
10483TIP3    H252865   5.044   6.521  13.167  0.3281 -0.2326 -2.0341
10484TIP3   OH252866   6.579   5.518   4.462  0.4911 -0.6010  0.4604
10484TIP3    H152867   6.532   5.529   4.380 -0.2395  0.1572  0.9744
10484TIP3    H252868   6.671   5.535   4.439  0.8045 -3.4807 -0.8491
10485TIP3   OH252869   1.597   0.127  14.251 -0.1812  0.0422  0.5610
10485TIP3    H152870   1.547   0.141  14.171  0.9512  3.6862  0.3188
10485TIP3    H252871   1.564   0.044  14.286 -1.8401 -0.8725 -2.7869
10486TIP3   OH252872   0.973   3.693   3.260  0.7168  0.2383  0.6657
10486TIP3    H152873   1.013   3.779   3.274  1.3020  0.0853 -0.0055
10486TIP3    H252874   0.910   3.684   3.331 -0.1612  1.7063  0.1057
10487TIP3   OH252875   0.181   0.631  16.101  0.0111 -0.6722  0.3679
10487TIP3    H152876   0.127   0.553  16.115 -0.3264 -0.2983  1.1752
10487TIP3    H252877   0.230   0.612  16.020 -2.1761 -0.5622 -1.0788
10488TIP3   OH252878   3.287   2.497  13.384  0.7833 -0.4091 -0.6588
10488TIP3    H152879   3.285   2.565  13.452  0.8561 -0.4282 -0.6377
10488TIP3    H252880   3.306   2.544  13.303  3.9665 -0.7187 -0.2279
10489TIP3   OH252881   1.958   5.072   4.112 -0.0824 -0.2819 -0.0598
10489TIP3    H152882   1.902   5.029   4.047  0.4682 -0.8779 -0.1428
10489TIP3    H252883   1.896   5.116   4.171 -0.5688  0.7842 -1.3331
10490TIP3   OH252884   3.634   3.840  14.704 -0.4526 -0.2899  0.2578
10490TIP3    H152885   3.668   3.823  14.791  0.3103  0.1774  0.0602
10490TIP3    H252886   3.676   3.922  14.678 -1.9003  0.4231  0.0902
10491TIP3   OH252887   4.903   5.189  12.244  0.1898 -0.1137  0.5641
10491TIP3    H152888   4.893   5.270  12.294 -0.4397  1.0261 -1.3193
10491TIP3    H252889   4.842   5.197  12.171  2.3685 -0.8371 -1.4791
10492TIP3   OH252890   1.281   1.066  16.562 -0.2099 -0.1615 -0.0037
10492TIP3    H152891   1.240   1.079  16.647 -0.0574  2.2792 -0.2228
10492TIP3    H252892   1.227   1.118  16.502  1.7287  1.1529 -0.7140
10493TIP3   OH252893   4.606   2.061  13.831 -0.1023  0.0562  0.2529
10493TIP3    H152894   4.531   2.024  13.878 -1.9952  1.3278 -1.5869
10493TIP3    H252895   4.633   2.136  13.885  0.0153 -0.5593  1.0587
10494TIP3   OH252896   2.517   0.350  16.406 -0.0699  0.4503 -0.3673
10494TIP3    H152897   2.470   0.380  16.328  0.5523  0.5028 -0.7286
10494TIP3    H252898   2.468   0.388  16.479  0.6993  2.3880 -0.8075
10495TIP3   OH252899   6.216   4.034   2.531  0.1258 -0.0704 -0.2461
10495TIP3    H152900   6.232   4.009   2.440 -0.6396 -0.1877 -0.3533
10495TIP3    H252901   6.162   4.113   2.526 -0.1339 -0.2191  0.1027
10496TIP3   OH252902   1.378   6.532  14.598 -0.0157 -0.1350  0.5690
10496TIP3    H152903   1.306   6.583  14.633  1.1507  1.6219  0.5172
10496TIP3    H252904   1.456   6.586  14.612  1.0218 -1.0416 -1.2110
10497TIP3   OH252905   4.379   5.185   1.239 -1.3122 -0.0643 -0.0992
10497TIP3    H152906   4.296   5.186   1.191 -1.7155 -2.9499  0.3584
10497TIP3    H252907   4.369   5.114   1.302  1.8834 -1.2302 -0.7431
10498TIP3   OH252908   2.899   4.853  16.743  0.2771 -0.5899  0.3018
10498TIP3    H152909   2.935   4.903  16.816  1.5791 -0.2527 -0.5410
10498TIP3    H252910   2.873   4.919  16.679  2.3128 -0.9162 -0.9631
10499TIP3   OH252911   4.562   4.486   4.698  0.0001  0.0845  0.4636
10499TIP3    H152912   4.605   4.549   4.641  1.0582 -2.0834 -1.2886
10499TIP3    H252913   4.469   4.493   4.677  0.3507 -0.5267 -1.4376
10500TIP3   OH252914   2.377   5.334  10.406  0.3094 -0.0984 -0.0988
10500TIP3    H152915   2.379   5.254  10.460  1.8895  0.5871  0.9120
10500TIP3    H252916   2.446   5.320  10.341  0.8158  0.5752  0.2903
10501TIP3   OH252917   4.066   5.305   5.792 -0.1671  0.0739  0.4967
10501TIP3    H152918   3.991   5.252   5.819  0.9645 -2.3262 -0.7456
10501TIP3    H252919   4.110   5.330   5.874 -1.7298  0.6967  1.1807
10502TIP3   OH252920   0.837   6.326  10.569  0.7151 -0.7199  0.1205
10502TIP3    H152921   0.845   6.238  10.532  1.5845  0.2546 -2.1563
10502TIP3    H252922   0.743   6.335  10.589  0.7347 -2.4093  1.1341
10503TIP3   OH252923   2.946   5.846   4.281  0.7513 -0.5805 -0.0696
10503TIP3    H152924   2.964   5.860   4.188 -0.3873 -0.6152 -0.3123
10503TIP3    H252925   2.901   5.762   4.284 -0.0275 -0.1608  0.3992
10504TIP3   OH252926   4.876   2.004  13.035 -0.2779 -0.4442  0.1089
10504TIP3    H152927   4.791   1.999  12.992 -0.4063  0.6452  0.2133
10504TIP3    H252928   4.894   1.914  13.062  0.0642 -1.3061 -2.6843
10505TIP3   OH252929   4.949   6.471  12.171  0.4887  0.2658  0.0136
10505TIP3    H152930   4.857   6.443  12.167 -0.0484  2.0194 -0.6873
10505TIP3    H252931   4.995   6.410  12.114 -0.1023 -1.0292  0.8597
10506TIP3   OH252932   0.955   2.671   0.285  0.7959 -0.5484 -0.0033
10506TIP3    H152933   1.035   2.621   0.305  1.3278  0.1735 -0.2674
10506TIP3    H252934   0.964   2.693   0.192  1.6550  1.8893  0.5809
10507TIP3   OH252935   4.126   2.762   5.878 -0.5819 -0.2960  0.4552
10507TIP3    H152936   4.146   2.731   5.967 -0.3082 -1.6100 -0.0408
10507TIP3    H252937   4.037   2.797   5.884 -1.7666 -3.1200  0.6295
10508TIP3   OH252938   4.617   5.599  11.708  0.3558 -0.4602 -0.0803
10508TIP3    H152939   4.701   5.645  11.711  1.7315 -2.7725  3.5847
10508TIP3    H252940   4.637   5.516  11.665 -0.0696 -1.0139  0.7851
10509TIP3   OH252941   2.078   0.143   1.638 -0.2219  0.1503  0.4864
10509TIP3    H152942   1.984   0.142   1.656 -0.3185 -2.9898  0.3781
10509TIP3    H252943   2.090   0.076   1.571  1.8284  2.3707 -1.5565
10510TIP3   OH252944   1.076   3.943   4.770 -0.0569 -0.1375 -0.1270
10510TIP3    H152945   1.100   4.031   4.800 -0.7892  0.1910 -0.5115
10510TIP3    H252946   1.132   3.928   4.694 -1.7860  1.0665 -1.6958
10511TIP3   OH252947   2.247   1.326  10.985 -0.5286 -0.0990 -0.2722
10511TIP3    H152948   2.303   1.388  10.938  3.1130 -1.8885  1.3093
10511TIP3    H252949   2.210   1.271  10.916  0.9345  0.2129 -1.3628
10512TIP3   OH252950   5.272   5.708  12.845 -0.1653 -0.4928  0.0573
10512TIP3    H152951   5.348   5.697  12.902 -0.0108 -0.5902 -0.1655
10512TIP3    H252952   5.307   5.748  12.766 -0.6300  1.0930  0.6248
10513TIP3   OH252953   1.975   2.188  12.476  0.0296 -0.1616 -0.4375
10513TIP3    H152954   1.896   2.182  12.423  0.8223 -2.0758 -1.5389
10513TIP3    H252955   2.046   2.194  12.412  0.9345 -1.3097  0.4027
10514TIP3   OH252956   6.472   5.023  13.608 -0.2521 -0.0637 -0.0144
10514TIP3    H152957   6.421   4.961  13.660 -0.8953 -0.0739 -0.6440
10514TIP3    H252958   6.563   5.006  13.632 -0.4022 -1.4070 -0.3581
10515TIP3   OH252959   1.285   4.671   3.401  0.4569 -0.2847  0.0898
10515TIP3    H152960   1.240   4.753   3.382  0.3556 -0.4169 -0.2486
10515TIP3    H252961   1.361   4.697   3.454  1.3021  0.2184 -1.3013
10516TIP3   OH252962   1.116   3.099   0.337  0.2896 -0.4204  0.4867
10516TIP3    H152963   1.030   3.126   0.305  1.2362  1.6235 -0.4808
10516TIP3    H252964   1.122   3.136   0.425  0.6065  0.4552  0.1092
10517TIP3   OH252965   1.402   0.681  16.410 -0.1309 -0.0652 -0.1253
10517TIP3    H152966   1.377   0.588  16.409 -0.5743  0.0305  0.7718
10517TIP3    H252967   1.430   0.699  16.320 -1.6307 -0.6487 -0.7443
10518TIP3   OH252968   0.432   3.458   4.961  0.1796 -0.3277 -0.0178
10518TIP3    H152969   0.523   3.442   4.986  0.1237 -0.7451 -0.0727
10518TIP3    H252970   0.386   3.469   5.045  0.1882 -0.6278  0.0255
10519TIP3   OH252971   1.759   6.406   1.470 -0.3324 -0.2969  0.0365
10519TIP3    H152972   1.698   6.347   1.514  0.6438 -0.4720  1.1743
10519TIP3    H252973   1.745   6.491   1.512  0.5143 -0.4367  0.6184
10520TIP3   OH252974   1.293   3.749   0.158  0.0834 -0.1190  0.2807
10520TIP3    H152975   1.264   3.833   0.122  0.4147  0.5945  1.6222
10520TIP3    H252976   1.388   3.748   0.143 -0.1898 -1.2686 -1.7093
10521TIP3   OH252977   0.381   5.349   1.085  1.0110  0.7715 -0.3327
10521TIP3    H152978   0.333   5.381   1.008  0.0593  0.8367  0.2724
10521TIP3    H252979   0.432   5.275   1.052 -0.1131  0.1993 -0.8281
10522TIP3   OH252980   2.318   6.482   2.467  0.3000 -0.1979 -0.7854
10522TIP3    H152981   2.372   6.491   2.389  0.2922  1.1614 -0.6546
10522TIP3    H252982   2.235   6.524   2.445  0.4204  0.5142  0.0614
10523TIP3   OH252983   4.879   0.774   2.275 -0.0018  0.3284 -0.4893
10523TIP3    H152984   4.839   0.709   2.333  1.2853 -0.8972 -0.9443
10523TIP3    H252985   4.875   0.734   2.188  1.2385  0.6536 -0.7024
10524TIP3   OH252986   5.100   0.554  12.298  0.1352  0.0844 -0.0097
10524TIP3    H152987   5.100   0.478  12.356  1.5773 -1.4089 -1.8339
10524TIP3    H252988   5.183   0.599  12.317  0.6115 -0.4072 -0.8438
10525TIP3   OH252989   1.046   1.147   3.425 -0.2459  0.2445 -0.4155
10525TIP3    H152990   1.122   1.199   3.403 -0.9534  1.5496  0.1340
10525TIP3    H252991   0.983   1.165   3.355 -1.1419  1.5529  0.6704
10526TIP3   OH252992   1.050   4.265   5.470  0.1232  0.7274 -0.0361
10526TIP3    H152993   1.121   4.224   5.421 -0.2648 -1.8451  1.3983
10526TIP3    H252994   0.970   4.236   5.425 -0.1352  2.6656 -0.9459
10527TIP3   OH252995   3.491   2.128  13.844  0.0007 -0.2332 -0.2378
10527TIP3    H152996   3.450   2.120  13.930  1.9521 -0.2336  0.7418
10527TIP3    H252997   3.585   2.119  13.861  0.3919 -1.0106 -2.4752
10528TIP3   OH252998   6.490   0.176  11.901  0.6207  0.6730  0.0444
10528TIP3    H152999   6.440   0.113  11.848 -0.2696  1.1086  0.3540
10528TIP3    H253000   6.555   0.212  11.840  0.7709 -0.1211 -0.2856
10529TIP3   OH253001   3.604   2.854  12.707 -0.6649 -0.1644 -0.8622
10529TIP3    H153002   3.652   2.915  12.763 -0.1652 -1.3173 -0.0009
10529TIP3    H253003   3.604   2.896  12.621  1.7230 -0.0183 -0.8539
10530TIP3   OH253004   6.251   1.136  16.951 -0.4688 -0.3146  0.0102
10530TIP3    H153005   6.200   1.060  16.922 -3.5026  1.4529  0.2732
10530TIP3    H253006   6.278   1.114  17.040 -1.3244 -1.0871  0.0964
10531TIP3   OH253007   4.490   3.131  11.295 -0.3108  0.2952  0.2399
10531TIP3    H153008   4.577   3.128  11.336  0.6311  2.1372 -1.4695
10531TIP3    H253009   4.506   3.113  11.203 -1.5800  1.7142 -0.2915
10532TIP3   OH253010   6.418   6.255  11.123 -0.7138  0.4902  0.1425
10532TIP3    H153011   6.493   6.208  11.159 -0.0262 -0.3375 -2.1843
10532TIP3    H253012   6.400   6.324  11.187  0.3195 -0.9041  2.0592
10533TIP3   OH253013   3.648   4.245  11.609  0.6315  0.3686  0.3076
10533TIP3    H153014   3.647   4.242  11.705 -2.1814 -0.7163  0.3362
10533TIP3    H253015   3.624   4.157  11.582 -2.3180  1.5217 -1.2391
10534TIP3   OH253016   0.227   2.949  16.928  0.7047 -1.3372 -0.6102
10534TIP3    H153017   0.265   2.862  16.935  0.5659 -1.2774  1.6128
10534TIP3    H253018   0.133   2.936  16.944  0.7869 -0.7361  0.5256
10535TIP3   OH253019   5.739   4.665  12.104 -0.2713  0.1648  0.3094
10535TIP3    H153020   5.733   4.721  12.181  1.0891 -0.7161  1.0869
10535TIP3    H253021   5.702   4.581  12.132  2.0463 -0.7946  0.6923
10536TIP3   OH253022   4.490   4.798  14.948 -0.1690  0.3755 -0.2973
10536TIP3    H153023   4.490   4.877  15.003  0.1524 -0.9867  1.7457
10536TIP3    H253024   4.402   4.762  14.958 -0.6569  0.9562 -2.0569
10537TIP3   OH253025   4.182   0.037   3.895  0.9904 -0.0422 -0.2037
10537TIP3    H153026   4.153   0.097   3.826 -1.5783 -0.2796  0.5732
10537TIP3    H253027   4.259   0.080   3.933  0.8220  1.4329 -1.4180
10538TIP3   OH253028   3.703   3.278  16.669 -0.1473 -0.9524 -0.0106
10538TIP3    H153029   3.629   3.322  16.711  0.8563  1.3610 -0.5040
10538TIP3    H253030   3.775   3.287  16.731  0.3990 -0.7428 -0.6589
10539TIP3   OH253031   4.471   1.709  15.179 -0.0948  0.0432 -1.4455
10539TIP3    H153032   4.536   1.778  15.165  0.6920  0.0916  1.5798
10539TIP3    H253033   4.388   1.755  15.188  0.2280  0.4973 -0.6845
10540TIP3   OH253034   4.100   5.863   1.945  0.8844  0.7084 -0.3958
10540TIP3    H153035   4.095   5.953   1.912  0.2001  1.0983  0.7183
10540TIP3    H253036   4.084   5.871   2.039 -1.0272 -0.7582 -0.5319
10541TIP3   OH253037   6.338   2.912   0.459  0.0232  0.1237 -0.1960
10541TIP3    H153038   6.306   2.997   0.429  1.3088  0.3462 -1.0280
10541TIP3    H253039   6.409   2.933   0.520  1.5858 -0.2791 -1.7761
10542TIP3   OH253040   0.872   5.165  13.523 -0.1267 -0.3224  0.1713
10542TIP3    H153041   0.778   5.157  13.538 -0.0658  1.1986  1.6858
10542TIP3    H253042   0.882   5.160  13.428 -1.5296 -2.1474  0.0702
10543TIP3   OH253043   5.227   1.891   5.867 -0.7093  1.2759  0.2174
10543TIP3    H153044   5.238   1.799   5.893 -2.6688  1.1389  0.7310
10543TIP3    H253045   5.311   1.915   5.829  0.1665 -0.4480  0.9262
10544TIP3   OH253046   2.489   3.997  14.328  0.3340 -0.2231  0.4680
10544TIP3    H153047   2.547   4.053  14.275  0.1177 -0.8360 -0.4400
10544TIP3    H253048   2.506   4.024  14.418 -0.3764  1.8851  0.0208
10545TIP3   OH253049   1.602   2.522   0.179 -0.0824  0.0293 -0.1597
10545TIP3    H153050   1.672   2.514   0.115  1.8260 -1.9467  2.0361
10545TIP3    H253051   1.552   2.441   0.170 -0.1681  0.0128  0.4629
10546TIP3   OH253052   4.687   3.979   3.401 -0.0248 -0.4410 -0.1128
10546TIP3    H153053   4.759   3.971   3.464 -1.0900  2.4566  1.6283
10546TIP3    H253054   4.705   4.060   3.353 -0.9125 -0.9579 -1.3955
10547TIP3   OH253055   6.034   0.271  13.626 -0.1780  0.0916  0.1351
10547TIP3    H153056   6.011   0.229  13.709 -1.3255  0.2413 -0.0917
10547TIP3    H253057   6.008   0.362  13.637  1.4071  0.5585  0.2731
10548TIP3   OH253058   3.418   6.538  14.791  0.7578 -0.1727  0.2006
10548TIP3    H153059   3.464   6.567  14.712 -0.2716  1.3701  0.1228
10548TIP3    H253060   3.483   6.547  14.861  1.2044 -0.0470 -0.2227
10549TIP3   OH253061   1.596   2.208   5.577 -0.3787 -0.9422 -0.1030
10549TIP3    H153062   1.632   2.293   5.553 -1.7061  0.2836  1.9242
10549TIP3    H253063   1.537   2.186   5.504  1.2022 -0.9772 -1.4305
10550TIP3   OH253064   0.367   5.404   0.155  0.0025 -0.2316  0.3236
10550TIP3    H153065   0.424   5.469   0.197  1.1184 -1.8731  1.4388
10550TIP3    H253066   0.300   5.384   0.220 -0.8934  0.4284 -0.3593
10551TIP3   OH253067   4.392   6.375  15.158 -0.2215  0.7867  0.1859
10551TIP3    H153068   4.314   6.415  15.197 -0.6126  1.2591 -1.0185
10551TIP3    H253069   4.373   6.282  15.156 -0.6713  0.8775  0.0907
10552TIP3   OH253070   1.824   3.872   1.847  0.1000 -0.3110  0.4824
10552TIP3    H153071   1.918   3.853   1.845  0.0248 -0.9269  1.6479
10552TIP3    H253072   1.815   3.940   1.914 -0.2414  0.1015  0.0268
10553TIP3   OH253073   3.781   0.568   1.052 -0.1363  0.0366  0.0304
10553TIP3    H153074   3.700   0.569   1.000  0.3139 -0.1485 -0.6944
10553TIP3    H253075   3.804   0.660   1.063  0.3190  0.0558 -0.9994
10554TIP3   OH253076   2.302   4.944   0.523 -0.0254  0.1584 -0.2195
10554TIP3    H153077   2.250   4.987   0.456  2.3582 -0.2852 -2.5227
10554TIP3    H253078   2.295   4.850   0.503 -1.4279 -0.2718  1.8983
10555TIP3   OH253079   3.207   6.340  14.465 -0.8655  0.1724 -0.4753
10555TIP3    H153080   3.237   6.425  14.498 -1.9971 -0.3596  2.2671
10555TIP3    H253081   3.123   6.358  14.424 -0.7641  0.4729 -0.5502
10556TIP3   OH253082   4.070   2.616  16.387 -0.0265  0.2327 -0.5473
10556TIP3    H153083   4.000   2.676  16.410 -0.8696 -0.6000 -0.8949
10556TIP3    H253084   4.064   2.605  16.292  2.0587  1.9539 -0.9633
10557TIP3   OH253085   1.067   4.740  15.055 -0.5227 -0.3298  0.0127
10557TIP3    H153086   1.012   4.740  15.133  0.0335 -1.2487  0.4151
10557TIP3    H253087   1.157   4.745  15.087 -0.1873 -2.3741 -0.4446
10558TIP3   OH253088   4.200   5.602  12.893  0.7440  0.7406  0.5024
10558TIP3    H153089   4.111   5.577  12.918  0.7372  1.1061  0.8491
10558TIP3    H253090   4.241   5.630  12.974  1.6285 -0.7340  0.5976
10559TIP3   OH253091   2.037   6.379   1.415 -0.2583  0.9134 -0.5937
10559TIP3    H153092   2.101   6.315   1.447  1.6349  2.6437 -0.6863
10559TIP3    H253093   1.953   6.348   1.447  0.6964 -1.1538  0.0437
10560TIP3   OH253094   6.140   1.820   2.075 -0.5377 -0.0495  0.5279
10560TIP3    H153095   6.221   1.838   2.122 -0.4945 -2.8008  1.7126
10560TIP3    H253096   6.073   1.869   2.123  0.1542  0.8627  0.5905
10561TIP3   OH253097   3.837   5.881  13.075 -0.3399  0.1192 -0.4197
10561TIP3    H153098   3.764   5.837  13.032 -1.1168  0.7009  0.2504
10561TIP3    H253099   3.874   5.816  13.134  0.3203 -0.4812 -1.4773
10562TIP3   OH253100   1.906   2.282  15.987  0.0523  0.3258  0.3497
10562TIP3    H153101   1.822   2.305  16.025  0.0455 -1.3994  1.4884
10562TIP3    H253102   1.943   2.365  15.958 -2.1303  1.1022 -0.4087
10563TIP3   OH253103   3.871   3.724  14.027  0.5679  0.1850 -0.1801
10563TIP3    H153104   3.794   3.777  14.050  0.3396  0.9784 -2.5507
10563TIP3    H253105   3.944   3.786  14.028  1.3325 -0.6238  2.3637
10564TIP3   OH253106   6.183   1.952  12.998 -0.3619 -0.1833 -0.2254
10564TIP3    H153107   6.103   1.946  12.945 -0.6705  2.4131 -0.1998
10564TIP3    H253108   6.254   1.951  12.935 -0.6404  1.1732 -0.5841
10565TIP3   OH253109   0.329   3.256   0.733  0.3077 -0.3160 -0.3081
10565TIP3    H153110   0.365   3.337   0.697  0.5112  0.5234  1.6246
10565TIP3    H253111   0.405   3.210   0.769  0.2310 -1.5409 -1.6414
10566TIP3   OH253112   3.972   0.553   2.219 -0.3425 -0.1585 -0.8565
10566TIP3    H153113   4.010   0.554   2.307 -2.0553 -2.1276 -0.0224
10566TIP3    H253114   3.881   0.580   2.232 -1.2257 -2.5401 -1.6535
10567TIP3   OH253115   2.046   5.833   4.555 -0.3465  0.2869 -0.3001
10567TIP3    H153116   2.049   5.798   4.644 -0.4417  0.1258 -0.3608
10567TIP3    H253117   1.960   5.875   4.549 -1.1568 -1.3661 -0.9430
10568TIP3   OH253118   1.665   5.688  11.647  0.0400 -0.0819  0.1555
10568TIP3    H153119   1.755   5.684  11.679 -0.1183  1.2085  0.8215
10568TIP3    H253120   1.656   5.777  11.612 -0.7597 -0.4373 -0.5738
10569TIP3   OH253121   1.923   3.654  12.207  0.1997 -0.5565  0.4060
10569TIP3    H153122   1.989   3.645  12.275  0.5759  0.8204  0.2474
10569TIP3    H253123   1.864   3.580  12.221  1.1158 -1.1528  1.2685
10570TIP3   OH253124   0.032   2.564   1.721  0.1495  0.6103  0.1288
10570TIP3    H153125   0.014   2.476   1.688  0.1621  1.4676 -2.4077
10570TIP3    H253126  -0.043   2.616   1.692  1.4338  1.9682 -0.9713
10571TIP3   OH253127   2.913   0.223  14.518 -0.5140  0.4621  0.1881
10571TIP3    H153128   2.961   0.191  14.595 -0.2221  1.6469  0.5217
10571TIP3    H253129   2.825   0.241  14.551  0.0251  2.4760  0.6814
10572TIP3   OH253130   4.292   2.223  14.850 -0.0987  0.2739  0.6817
10572TIP3    H153131   4.210   2.186  14.818  1.3570 -0.7418 -2.2227
10572TIP3    H253132   4.317   2.167  14.924 -0.8314 -0.8868  0.0683
10573TIP3   OH253133   2.699   6.333  12.431  0.0299 -0.0728  0.1609
10573TIP3    H153134   2.641   6.407  12.451 -0.4966 -0.0549 -1.3351
10573TIP3    H253135   2.701   6.282  12.512 -0.6608  0.8693  0.7962
10574TIP3   OH253136   4.792   3.284   0.223  0.7892 -0.0366 -0.0817
10574TIP3    H153137   4.756   3.337   0.152 -0.9095  1.7078  1.9511
10574TIP3    H253138   4.868   3.334   0.254  1.9624 -1.1458 -1.0368
10575TIP3   OH253139   4.965   4.864   5.180  0.4102  0.1718  0.0959
10575TIP3    H153140   4.997   4.948   5.213  1.2934 -0.2985  0.4733
10575TIP3    H253141   5.016   4.848   5.101  0.0001  0.1590 -0.1654
10576TIP3   OH253142   2.839   3.127   1.570 -0.1798  0.6363  0.2341
10576TIP3    H153143   2.890   3.057   1.611 -0.6766  0.6689  0.9202
10576TIP3    H253144   2.869   3.207   1.613  1.2004  1.0145 -1.3335
10577TIP3   OH253145   5.337   3.531   4.273 -0.1914 -0.0605 -0.1542
10577TIP3    H153146   5.416   3.505   4.225  0.0715 -0.8560  0.6822
10577TIP3    H253147   5.309   3.613   4.231  0.3428 -0.4358 -1.2911
10578TIP3   OH253148   5.128   2.585  15.479 -0.0089  0.1541 -0.2512
10578TIP3    H153149   5.155   2.647  15.412  0.4334  0.4989  0.2315
10578TIP3    H253150   5.200   2.586  15.543 -0.1644 -0.5798 -0.0538
10579TIP3   OH253151   6.254   2.050  16.837  0.1086  0.8345 -0.5856
10579TIP3    H153152   6.264   2.141  16.866  1.5029 -0.0740  2.1151
10579TIP3    H253153   6.332   2.032  16.784 -0.7887  1.5194 -2.2059
10580TIP3   OH253154   6.358   0.973   5.137  0.1158 -0.9619 -0.1469
10580TIP3    H153155   6.392   1.059   5.114  1.7075 -0.8797  2.1498
10580TIP3    H253156   6.264   0.987   5.149  0.0340 -0.0172 -1.6602
10581TIP3   OH253157   3.469   2.283  10.407  0.0363 -0.1220  0.1987
10581TIP3    H153158   3.403   2.214  10.403 -1.3414  1.0791  1.0479
10581TIP3    H253159   3.445   2.342  10.336  0.7875 -0.1705 -0.0926
10582TIP3   OH253160   0.942   4.511  16.266  0.1093  0.6325 -0.3470
10582TIP3    H153161   0.896   4.595  16.269  0.8797  1.1006 -1.2366
10582TIP3    H253162   1.011   4.523  16.201  0.8753 -0.3632  0.2383
10583TIP3   OH253163   6.297   1.070  14.358  0.0315  0.0050  0.2455
10583TIP3    H153164   6.252   0.990  14.384  0.7012 -0.2895  0.5104
10583TIP3    H253165   6.255   1.096  14.276  0.7166 -1.3715 -0.5781
10584TIP3   OH253166   4.638   6.275  13.386 -0.5141 -0.4060  0.3153
10584TIP3    H153167   4.606   6.282  13.296 -0.2193  0.3310  0.2668
10584TIP3    H253168   4.645   6.180  13.401  2.8008 -0.6230 -1.6490
10585TIP3   OH253169   4.790   6.103  10.709 -0.0808  0.2264  0.0370
10585TIP3    H153170   4.829   6.174  10.761  0.4827  0.0612 -0.1560
10585TIP3    H253171   4.809   6.023  10.758  0.5530  0.0568 -0.4718
10586TIP3   OH253172   5.283   4.529  10.513  0.1981  0.0140 -0.3852
10586TIP3    H153173   5.272   4.611  10.466 -1.8912 -1.1024 -2.0119
10586TIP3    H253174   5.349   4.480  10.464 -2.3143 -1.3443 -2.6457
10587TIP3   OH253175   6.670   2.416  14.895  0.0571 -0.3969  0.0544
10587TIP3    H153176   6.742   2.414  14.832  0.3902 -0.4197  0.4354
10587TIP3    H253177   6.613   2.486  14.864  0.5416  0.0091  0.0796
10588TIP3   OH253178   5.410   3.330   4.001  0.7639 -0.0209 -0.4129
10588TIP3    H153179   5.447   3.286   3.924 -2.8833 -0.5902 -2.0902
10588TIP3    H253180   5.373   3.411   3.965 -1.8715 -0.7556  0.4333
10589TIP3   OH253181   2.179   3.661  11.694 -0.0496 -0.3089 -0.0246
10589TIP3    H153182   2.119   3.615  11.636  0.6820 -1.8860  0.3948
10589TIP3    H253183   2.149   3.638  11.782 -1.7790  2.8744  0.3596
10590TIP3   OH253184   4.556   3.827   2.835 -0.6420  0.3538  0.1602
10590TIP3    H153185   4.507   3.763   2.886  0.3220 -0.5990 -0.0801
10590TIP3    H253186   4.596   3.885   2.901  0.3561 -0.6912  0.5181
10591TIP3   OH253187   5.537   3.630  14.152 -0.3435 -0.2344  0.1616
10591TIP3    H153188   5.516   3.721  14.129  1.2250  0.2617  0.5676
10591TIP3    H253189   5.452   3.589  14.167 -1.2348  0.5893 -2.0788
10592TIP3   OH253190   1.210   4.447  13.802 -0.2536 -1.1356  0.1024
10592TIP3    H153191   1.206   4.523  13.744  1.0008 -0.9200  0.2800
10592TIP3    H253192   1.286   4.398  13.772  0.7714 -0.7328  1.8975
10593TIP3   OH253193   1.327   4.734  16.762 -0.0625 -0.1324  0.0262
10593TIP3    H153194   1.252   4.675  16.763 -1.0189  1.0103 -1.0154
10593TIP3    H253195   1.393   4.686  16.712 -0.9735 -0.1782 -1.1909
10594TIP3   OH253196   5.784   0.405   2.031 -0.0817  0.5611 -0.3259
10594TIP3    H153197   5.847   0.478   2.032  0.4687  0.0975  0.2239
10594TIP3    H253198   5.837   0.329   2.055 -0.8383  0.1397  0.0158
10595TIP3   OH253199   2.141   4.938   2.530  0.0354 -0.1626  0.1428
10595TIP3    H153200   2.120   4.997   2.458 -0.4507 -1.3709 -0.7516
10595TIP3    H253201   2.113   4.852   2.499  1.7900 -1.0615  0.9266
10596TIP3   OH253202   2.656   5.691  11.563  0.2351  0.1519  0.5495
10596TIP3    H153203   2.690   5.695  11.474  0.0441 -0.8358  0.4280
10596TIP3    H253204   2.582   5.751  11.563 -0.7696 -1.0425 -0.4082
10597TIP3   OH253205   1.217   6.447  13.936  0.0614  0.0490 -0.4939
10597TIP3    H153206   1.151   6.378  13.949 -1.4801  1.4784 -0.4678
10597TIP3    H253207   1.300   6.406  13.962 -1.0315 -1.3076  1.0311
10598TIP3   OH253208   0.611   6.050   0.564 -0.2581 -0.0638 -0.1076
10598TIP3    H153209   0.623   6.142   0.539 -1.5435 -0.0813 -0.8649
10598TIP3    H253210   0.547   6.053   0.635  0.5796 -0.3074  0.6795
10599TIP3   OH253211   3.440   6.019  15.728  0.3887  0.3901  0.2858
10599TIP3    H153212   3.474   6.052  15.811 -1.1948 -2.1144  2.1005
10599TIP3    H253213   3.516   6.017  15.670  1.4997  2.4484  1.5726
10600TIP3   OH253214   5.326   3.523  14.746 -0.0227 -0.4298  0.0269
10600TIP3    H153215   5.348   3.611  14.778  0.1202  0.0337 -1.2963
10600TIP3    H253216   5.252   3.496  14.801  0.7700 -0.0465  1.3346
10601TIP3   OH253217   0.408   0.323   2.341 -0.6367  0.3704  0.1025
10601TIP3    H153218   0.325   0.364   2.318 -0.5990  1.0490  1.1390
10601TIP3    H253219   0.390   0.229   2.339 -0.8505  0.4100 -1.8268
10602TIP3   OH253220   5.958   0.467  10.896  0.2797  0.1782  0.1040
10602TIP3    H153221   5.892   0.430  10.837  1.7573 -2.0894 -0.2857
10602TIP3    H253222   5.987   0.392  10.949  0.7233  1.6579  2.0510
10603TIP3   OH253223   3.977   4.394  16.744 -0.1789 -0.1215 -0.1962
10603TIP3    H153224   3.952   4.401  16.652 -1.3277 -0.4422  0.0842
10603TIP3    H253225   4.065   4.356  16.742  1.3193  3.0541 -1.2717
10604TIP3   OH253226   0.477   5.405   3.199 -0.5970  0.1437  0.1263
10604TIP3    H153227   0.391   5.449   3.200  0.6318  2.7695  0.6127
10604TIP3    H253228   0.540   5.477   3.197  1.6234 -1.6960  0.0884
10605TIP3   OH253229   0.586   3.775   0.958 -0.1041 -0.0877  0.4209
10605TIP3    H153230   0.562   3.821   1.038  0.4720 -0.2979  0.7190
10605TIP3    H253231   0.589   3.844   0.891 -2.2993 -0.1574  0.1726
10606TIP3   OH253232   4.071   2.175   2.102  0.2003 -0.3598  0.2424
10606TIP3    H153233   4.049   2.265   2.127  0.9716  0.2760 -1.2871
10606TIP3    H253234   4.159   2.161   2.137 -0.5780 -1.1527  1.9796
10607TIP3   OH253235   5.231   1.675  14.868 -0.5853  0.3031  0.4226
10607TIP3    H153236   5.198   1.650  14.954 -2.6045  0.2468 -0.2983
10607TIP3    H253237   5.174   1.629  14.806  0.8553  0.2864 -0.9662
10608TIP3   OH253238   0.713   3.146  14.571 -0.8974 -0.0465  0.3890
10608TIP3    H153239   0.669   3.061  14.561 -0.5703  0.0950 -3.4026
10608TIP3    H253240   0.701   3.167  14.664 -0.8427 -4.2712  1.5836
10609TIP3   OH253241   4.215   0.341  16.895  0.5833 -0.4356 -0.8607
10609TIP3    H153242   4.239   0.341  16.988 -1.0142  4.0169 -0.1938
10609TIP3    H253243   4.271   0.408  16.856 -0.8063 -0.1042 -2.3989
10610TIP3   OH253244   1.016   4.361   2.810  0.0536  0.1890 -0.3851
10610TIP3    H153245   1.108   4.380   2.828 -0.4297  3.1531 -0.5955
10610TIP3    H253246   0.974   4.363   2.896 -0.1042  0.7835 -0.4723
10611TIP3   OH253247   5.191   0.126  16.083  0.2224  0.4315  0.4372
10611TIP3    H153248   5.097   0.109  16.073  0.2819  0.2364  0.1817
10611TIP3    H253249   5.233   0.052  16.040  0.5132 -0.4280  2.1273
10612TIP3   OH253250   0.407   0.261   0.606 -0.1642 -0.1010 -0.2686
10612TIP3    H153251   0.461   0.193   0.647  0.6662 -0.6673 -2.2107
10612TIP3    H253252   0.319   0.224   0.603 -0.0215 -0.4655  0.0441
10613TIP3   OH253253   3.276   1.782   0.582  0.5610  0.5712 -0.1983
10613TIP3    H153254   3.266   1.804   0.489  0.2765 -0.7946 -0.5170
10613TIP3    H253255   3.191   1.802   0.620  0.4821  0.5461 -0.3598
10614TIP3   OH253256   0.555   3.317   2.574  0.4374 -0.0762  0.3158
10614TIP3    H153257   0.507   3.399   2.581 -0.3049 -0.4955  0.2888
10614TIP3    H253258   0.571   3.306   2.480  0.0186 -0.2471  0.2624
10615TIP3   OH253259   6.543   3.397   4.622  0.1921 -0.1368 -0.0182
10615TIP3    H153260   6.622   3.438   4.587  0.7688 -1.4038 -0.2431
10615TIP3    H253261   6.527   3.321   4.566 -2.5879  1.3622 -1.4729
10616TIP3   OH253262   6.668   2.579  11.074  0.2934 -0.1548  0.3864
10616TIP3    H153263   6.756   2.602  11.102  0.4921 -1.5417  0.9802
10616TIP3    H253264   6.675   2.488  11.043 -0.7672 -0.0240 -0.3154
10617TIP3   OH253265   3.385   4.883  15.501  0.7610  0.6331  0.1296
10617TIP3    H153266   3.307   4.917  15.544  1.0538 -0.8229  1.9631
10617TIP3    H253267   3.458   4.915  15.555  1.3949  1.4198 -1.1647
10618TIP3   OH253268   1.696   3.027  14.193 -0.2807 -0.4062 -0.1445
10618TIP3    H153269   1.726   2.936  14.197  0.7403 -0.1510 -1.2698
10618TIP3    H253270   1.764   3.076  14.239  0.5682  0.0619 -1.8155
10619TIP3   OH253271   6.478   1.302   1.224 -0.5323  0.9706 -0.0722
10619TIP3    H153272   6.474   1.264   1.312  1.3792 -1.6052 -0.9820
10619TIP3    H253273   6.408   1.368   1.224  0.1507  1.9832  3.7305
10620TIP3   OH253274   3.289   2.493   1.865  0.3592  0.1659  0.5848
10620TIP3    H153275   3.283   2.543   1.947  2.6822  0.7777  0.4636
10620TIP3    H253276   3.301   2.559   1.797  1.8630 -0.4274  0.2203
10621TIP3   OH253277   2.384   0.839   5.602 -0.2198 -0.0998 -0.3701
10621TIP3    H153278   2.294   0.870   5.611 -0.3685 -0.4591 -0.6250
10621TIP3    H253279   2.377   0.744   5.593  0.0740 -0.0088 -1.8821
10622TIP3   OH253280   1.631   4.276  10.250 -0.2063 -0.3422  0.5321
10622TIP3    H153281   1.545   4.233  10.247 -0.7430  0.7017 -1.5329
10622TIP3    H253282   1.612   4.368  10.232  1.4980 -0.5297 -3.4125
10623TIP3   OH253283   2.860   2.929   6.074 -0.1418  0.0948 -0.1813
10623TIP3    H153284   2.849   3.011   6.122  0.1192 -0.1142  0.2402
10623TIP3    H253285   2.834   2.950   5.985  1.8433  1.1863 -0.5574
10624TIP3   OH253286   5.477   3.752  13.339  0.0034 -0.1333 -0.3718
10624TIP3    H153287   5.448   3.843  13.345 -2.4246 -0.7854 -1.0501
10624TIP3    H253288   5.539   3.751  13.267  0.8733  1.1303  0.3110
10625TIP3   OH253289   2.645   2.041  13.094  0.3942 -0.3826 -0.4205
10625TIP3    H153290   2.615   2.000  13.176  0.8386 -0.2494 -0.1860
10625TIP3    H253291   2.715   2.100  13.122 -0.4078  0.7421 -0.7162
10626TIP3   OH253292   1.110   2.946   4.613  0.3722  0.0900 -0.3138
10626TIP3    H153293   1.179   2.977   4.672  0.7325 -2.1982  0.5766
10626TIP3    H253294   1.151   2.876   4.563 -1.3348 -1.5391  0.4523
10627TIP3   OH253295   5.421   5.222  15.473  0.2128 -0.4478  0.1342
10627TIP3    H153296   5.359   5.176  15.416 -0.6759  0.4457  0.3473
10627TIP3    H253297   5.372   5.239  15.553  0.9474 -0.2795  0.5619
10628TIP3   OH253298   4.648   0.363  14.848  0.3305 -0.5894 -0.3499
10628TIP3    H153299   4.620   0.348  14.758  1.0104 -1.3930 -0.4395
10628TIP3    H253300   4.651   0.458  14.857  1.9903 -0.4545 -1.7494
10629TIP3   OH253301   6.327   2.917   4.386  0.2263  0.2027 -0.0476
10629TIP3    H153302   6.386   2.951   4.453  0.9408  0.7197 -0.9198
10629TIP3    H253303   6.248   2.891   4.435  0.6675  0.7008  0.9653
10630TIP3   OH253304   2.262   5.546   2.149 -0.3813 -0.3494  0.0670
10630TIP3    H153305   2.201   5.505   2.211 -0.2128  0.1434  0.5640
10630TIP3    H253306   2.323   5.476   2.125 -0.6417 -0.6265  0.2052
10631TIP3   OH253307   5.010   6.376  11.081  0.9300 -0.2985  0.0620
10631TIP3    H153308   5.098   6.395  11.114  1.5450 -0.9667 -1.0910
10631TIP3    H253309   4.986   6.293  11.122  2.1439 -1.6916 -1.8631
10632TIP3   OH253310   3.178   3.083  14.645  0.7572 -0.8370 -0.1870
10632TIP3    H153311   3.266   3.119  14.642  0.5454 -0.3567 -0.9006
10632TIP3    H253312   3.163   3.062  14.737  1.2309  0.0397  0.0978
10633TIP3   OH253313   1.884   3.441  14.759 -0.1096 -0.4879  0.1360
10633TIP3    H153314   1.835   3.522  14.744  0.5430 -0.0125  0.4888
10633TIP3    H253315   1.904   3.408  14.671 -1.8326 -1.1859 -0.0191
10634TIP3   OH253316   4.467   4.622   0.215  0.1681 -0.3818 -0.6751
10634TIP3    H153317   4.418   4.546   0.185 -1.1207  0.2603 -0.2923
10634TIP3    H253318   4.453   4.687   0.146 -0.6142  0.2242  0.0299
10635TIP3   OH253319   5.833   5.265  14.374 -0.3040  0.0964  0.0649
10635TIP3    H153320   5.806   5.356  14.385 -0.7573 -0.1639  1.3408
10635TIP3    H253321   5.921   5.262  14.410 -0.7004 -0.1759  1.0431
10636TIP3   OH253322   5.508   1.839   5.791 -0.6692 -0.1130 -0.1266
10636TIP3    H153323   5.508   1.744   5.785  0.0140 -0.0723 -0.9940
10636TIP3    H253324   5.534   1.857   5.882 -0.2418 -0.7509 -0.1137
10637TIP3   OH253325   1.822   1.714   4.989  0.5360  0.2473  0.0733
10637TIP3    H153326   1.862   1.705   5.075  2.1087  0.1976 -0.6302
10637TIP3    H253327   1.728   1.719   5.006  0.8050 -0.0609  1.7561
10638TIP3   OH253328   4.721   4.669  15.473 -0.5241 -0.7011 -0.2580
10638TIP3    H153329   4.729   4.617  15.393 -0.3059 -1.2880  0.1335
10638TIP3    H253330   4.634   4.646  15.507 -1.1653  0.5471 -1.0004
10639TIP3   OH253331   6.246   0.946   2.752 -0.4471 -0.1146  0.7206
10639TIP3    H153332   6.172   0.886   2.747 -0.1787 -0.4142  0.0469
10639TIP3    H253333   6.215   1.026   2.710 -0.7456  0.1546  1.4504
10640TIP3   OH253334   0.723   1.271   3.142  0.2176  0.1397 -0.1038
10640TIP3    H153335   0.737   1.336   3.211 -0.0727 -0.7697  0.8249
10640TIP3    H253336   0.809   1.262   3.101  0.4122  0.6327  0.1760
10641TIP3   OH253337   5.646   5.935  16.384  0.2467  0.3909 -0.6770
10641TIP3    H153338   5.646   5.938  16.288  2.1042 -0.4912 -0.7573
10641TIP3    H253339   5.731   5.970  16.409 -0.4512  1.1938  0.7110
10642TIP3   OH253340   6.634   6.617  12.175 -0.1523 -0.5564  0.2350
10642TIP3    H153341   6.653   6.629  12.082  2.5006  0.4409  0.8201
10642TIP3    H253342   6.592   6.699  12.202  0.1040 -0.4019  0.1627
10643TIP3   OH253343   4.279   2.035   2.244 -0.5484 -0.2900 -0.5560
10643TIP3    H153344   4.290   1.992   2.159 -0.8340 -1.5647  0.0366
10643TIP3    H253345   4.235   1.970   2.299  1.1144 -0.1309  1.0781
10644TIP3   OH253346   0.599   6.305   0.493 -0.1605  0.0817  0.3260
10644TIP3    H153347   0.620   6.361   0.567  3.4863 -0.3703 -0.1707
10644TIP3    H253348   0.583   6.366   0.421  3.1310  0.7132 -0.0500
10645TIP3   OH253349   6.201   5.239   1.853  0.0452 -0.0859 -0.2363
10645TIP3    H153350   6.227   5.277   1.769  0.0695  1.0938  0.2822
10645TIP3    H253351   6.105   5.233   1.847 -0.3021  2.9102  0.7602
10646TIP3   OH253352   2.756   1.845  12.531  0.0952 -0.2860 -0.2026
10646TIP3    H153353   2.843   1.850  12.570 -0.0880 -0.9167  0.3061
10646TIP3    H253354   2.711   1.776  12.580  0.1026 -1.6502 -1.9832
10647TIP3   OH253355   2.525   4.653  16.610 -0.1785 -0.6562 -0.2729
10647TIP3    H153356   2.558   4.653  16.520 -2.0523 -0.9696 -0.9919
10647TIP3    H253357   2.430   4.654  16.601 -0.4041 -0.5391  1.7211
10648TIP3   OH253358   0.293   1.944  14.997  0.5187  0.6862 -0.6297
10648TIP3    H153359   0.201   1.946  14.972  0.7421  2.3568 -1.5155
10648TIP3    H253360   0.340   1.930  14.915  1.0389 -2.9720  0.1444
10649TIP3   OH253361   6.344   1.439  12.650 -0.0847 -0.1193 -0.2249
10649TIP3    H153362   6.429   1.408  12.618  0.7207  0.8818  0.8611
10649TIP3    H253363   6.280   1.396  12.593  1.1298 -1.0671 -0.9299
10650TIP3   OH253364   3.669   2.878   5.485  0.2836  0.6884  0.1767
10650TIP3    H153365   3.595   2.936   5.468  0.8327  1.4208  0.2564
10650TIP3    H253366   3.747   2.930   5.464  0.7823 -0.0884  0.0379
10651TIP3   OH253367   1.766   3.632   0.641 -0.8210  0.2819 -0.5690
10651TIP3    H153368   1.807   3.706   0.597  1.4910  0.7954  2.1666
10651TIP3    H253369   1.692   3.671   0.688  1.8236  1.6293  2.9274
10652TIP3   OH253370   2.066   2.517   3.343 -0.1867  0.0964 -0.0333
10652TIP3    H153371   2.158   2.490   3.338  0.0031  0.6742  0.1976
10652TIP3    H253372   2.063   2.577   3.418 -0.0668  2.6755 -1.9458
10653TIP3   OH253373   5.130   5.931  11.667  0.8228 -0.4002 -0.0880
10653TIP3    H153374   5.180   5.880  11.731  1.5638 -0.2480 -0.5292
10653TIP3    H253375   5.147   5.888  11.583  0.1196 -0.4092 -0.2305
10654TIP3   OH253376   5.241   3.668  12.086 -0.1327  0.0554 -0.2257
10654TIP3    H153377   5.291   3.688  12.165  0.2606  0.6759 -0.6219
10654TIP3    H253378   5.209   3.579  12.100 -2.1708  0.9794  1.7454
10655TIP3   OH253379   1.462   2.459   5.416 -0.1688  0.5524  0.2878
10655TIP3    H153380   1.436   2.549   5.394  0.3754  0.1885 -2.0366
10655TIP3    H253381   1.553   2.467   5.444 -0.6983  0.9384  2.0601
10656TIP3   OH253382   4.334   1.025   5.373 -0.2749 -0.2452 -0.7059
10656TIP3    H153383   4.392   1.100   5.356 -0.5048 -0.1045 -0.8764
10656TIP3    H253384   4.391   0.948   5.361  0.5025 -0.0748  1.4987
10657TIP3   OH253385   4.450   0.421  14.302  0.6690  0.3348 -0.4183
10657TIP3    H153386   4.501   0.409  14.381  0.8602  1.8659 -0.2911
10657TIP3    H253387   4.475   0.348  14.246  0.3638 -0.8976  0.9942
10658TIP3   OH253388   2.342   3.691  15.446  0.0693 -0.4837  0.0848
10658TIP3    H153389   2.379   3.758  15.503 -2.3824  1.2669 -0.1795
10658TIP3    H253390   2.323   3.617  15.503  1.8619 -0.5758  0.5991
10659TIP3   OH253391   6.157   1.383  14.744  0.5850  0.0596  0.1129
10659TIP3    H153392   6.065   1.362  14.726  0.6257  0.5188 -0.6671
10659TIP3    H253393   6.197   1.391  14.657  1.3193  0.0461  0.4468
10660TIP3   OH253394   6.128   2.108  10.458 -0.2302  0.3304  0.0219
10660TIP3    H153395   6.085   2.188  10.427 -1.6641  0.1177  1.3293
10660TIP3    H253396   6.060   2.061  10.506 -0.3980 -3.2410 -3.1950
10661TIP3   OH253397   0.371   0.356   4.198  0.2924  0.0499 -0.7023
10661TIP3    H153398   0.341   0.393   4.281 -0.4440 -0.0500 -0.9162
10661TIP3    H253399   0.465   0.373   4.196  0.6314 -1.3582  0.8880
10662TIP3   OH253400   1.317   1.104   3.829  0.3202  0.0467  0.1269
10662TIP3    H153401   1.321   1.055   3.748  0.7609 -0.2130  0.2979
10662TIP3    H253402   1.409   1.113   3.856  0.2734  1.2332 -0.0629
10663TIP3   OH253403   0.780   3.433   1.061 -0.8204  0.3761  0.5913
10663TIP3    H153404   0.788   3.344   1.027 -0.8850  0.0155  1.5038
10663TIP3    H253405   0.686   3.451   1.058 -1.0597 -0.3699  2.3037
10664TIP3   OH253406   2.989   2.562   1.698 -0.3482  0.0820 -0.4639
10664TIP3    H153407   3.051   2.623   1.738  0.8310  1.0017 -3.3547
10664TIP3    H253408   2.993   2.483   1.752  2.1132  0.7297  0.4188
10665TIP3   OH253409   5.681   2.305   2.105  0.4685 -0.3220  0.6153
10665TIP3    H153410   5.701   2.399   2.106 -0.1385 -0.1349 -0.9603
10665TIP3    H253411   5.585   2.301   2.111  0.5929 -1.0287  4.0637
10666TIP3   OH253412   4.823   5.847   0.271  0.0836  0.1865 -0.0728
10666TIP3    H153413   4.887   5.827   0.340 -0.0879  0.8211  0.2894
10666TIP3    H253414   4.875   5.850   0.191  0.3160 -0.4107  0.0543
10667TIP3   OH253415   2.194   1.590  12.703 -0.3633 -0.6033  0.1708
10667TIP3    H153416   2.212   1.603  12.796  1.0084 -0.0124 -0.1495
10667TIP3    H253417   2.101   1.613  12.693 -0.2739  0.2969  1.2184
10668TIP3   OH253418   1.030   4.406  11.920 -0.5741  0.2033 -0.3268
10668TIP3    H153419   1.041   4.405  11.825 -0.8850 -0.7815 -0.3659
10668TIP3    H253420   0.966   4.476  11.936 -1.3845 -0.3741 -0.9547
10669TIP3   OH253421   5.937   3.609  14.851  0.0928 -0.7622  0.4523
10669TIP3    H153422   5.852   3.575  14.877 -0.1672 -0.9132 -0.5460
10669TIP3    H253423   5.919   3.662  14.774  0.9262 -0.9468  0.1185
10670TIP3   OH253424   1.023   1.349  12.663  0.0415 -0.4938 -0.3062
10670TIP3    H153425   1.064   1.323  12.745  0.9827 -0.7058 -0.8302
10670TIP3    H253426   1.095   1.353  12.600 -0.3578  1.4226 -0.7193
10671TIP3   OH253427   0.730   2.003  16.610 -0.1669 -0.0207 -0.1288
10671TIP3    H153428   0.639   2.014  16.637 -0.3200 -0.3545 -0.5045
10671TIP3    H253429   0.762   1.929  16.662  0.2151  0.7677  0.7922
10672TIP3   OH253430   4.725   1.896   1.994 -0.0744 -0.4209  0.0010
10672TIP3    H153431   4.668   1.926   1.923  0.1292 -0.5296 -0.2115
10672TIP3    H253432   4.665   1.865   2.062 -0.3413  1.6759  0.7987
10673TIP3   OH253433   3.159   4.124  13.559  0.0015  0.0863 -0.1937
10673TIP3    H153434   3.139   4.075  13.639  0.1214 -0.0834 -0.2663
10673TIP3    H253435   3.197   4.059  13.500 -0.9070  0.0288 -0.7188
10674TIP3   OH253436   4.207   6.688   1.635 -0.1815  0.6137  0.3268
10674TIP3    H153437   4.258   6.651   1.563  1.8323  1.1396  1.4179
10674TIP3    H253438   4.231   6.781   1.635 -0.2198  0.6338  1.6197
10675TIP3   OH253439   4.293   1.314   0.015 -0.0090  0.7051 -0.2753
10675TIP3    H153440   4.360   1.339   0.078 -0.9364 -0.0658  1.0683
10675TIP3    H253441   4.210   1.324   0.063 -0.5655 -4.3999  0.3922
10676TIP3   OH253442   1.639   2.142  12.644 -0.8250 -0.0750  0.5162
10676TIP3    H153443   1.720   2.111  12.684 -0.3083 -0.1479 -0.5451
10676TIP3    H253444   1.654   2.236  12.629  0.6391 -0.7278 -3.1243
10677TIP3   OH253445   4.733   0.813   6.214 -0.4848 -0.3244  0.5805
10677TIP3    H153446   4.637   0.810   6.216 -0.7950  1.7699 -3.1006
10677TIP3    H253447   4.758   0.741   6.156  0.0578 -0.0810  0.5065
10678TIP3   OH253448   1.158   0.305   3.415  0.4937  0.2104  0.2820
10678TIP3    H153449   1.138   0.261   3.498  0.2914  0.5319  0.4064
10678TIP3    H253450   1.176   0.395   3.440 -1.8392  0.8847 -0.2420
10679TIP3   OH253451   6.706   1.774  11.942  0.2370  0.4173 -0.1761
10679TIP3    H153452   6.724   1.824  12.021 -0.0746  1.4239 -0.7209
10679TIP3    H253453   6.723   1.683  11.966 -1.2286  0.5230  1.4677
10680TIP3   OH253454   0.163   3.334   4.890  0.5265 -0.3584 -0.1235
10680TIP3    H153455   0.073   3.336   4.920 -0.0924  0.6958 -1.8809
10680TIP3    H253456   0.200   3.417   4.920  1.7576 -1.8005  2.7549
10681TIP3   OH253457   1.376   0.691   1.693 -0.3600  0.1738  0.4636
10681TIP3    H153458   1.456   0.728   1.656 -1.6638  1.5972 -1.0713
10681TIP3    H253459   1.386   0.597   1.682  0.6454  0.3879 -0.6867
10682TIP3   OH253460   1.000   3.038  14.006  0.2072  1.0000 -0.4436
10682TIP3    H153461   1.049   3.077  13.933  2.3668 -2.7369 -1.2227
10682TIP3    H253462   1.061   3.043  14.080 -0.2152  0.7322 -0.0759
10683TIP3   OH253463   3.398   5.533   2.215  0.1421  0.1868  0.3771
10683TIP3    H153464   3.472   5.473   2.228 -0.8911 -0.4699  4.5282
10683TIP3    H253465   3.324   5.475   2.196  0.1008  0.6530 -1.0154
10684TIP3   OH253466   3.318   4.536   1.421  0.0535 -0.2556  0.2818
10684TIP3    H153467   3.372   4.503   1.349  1.8840 -0.3409  1.6114
10684TIP3    H253468   3.260   4.600   1.381  0.4655 -0.8972 -1.3930
10685TIP3   OH253469   3.501   3.190  13.960  0.5652  0.2224 -0.0820
10685TIP3    H153470   3.576   3.137  13.934 -0.2743 -0.6698 -0.7639
10685TIP3    H253471   3.448   3.132  14.015 -0.2052  0.4342 -0.5813
10686TIP3   OH253472   4.129   2.125  12.087 -0.0603 -0.2298 -0.2053
10686TIP3    H153473   4.103   2.183  12.015  1.3150  0.3034 -0.2955
10686TIP3    H253474   4.223   2.113  12.075  0.6631  1.6280  2.7023
10687TIP3   OH253475   4.953   0.584  13.571  0.1321 -0.2483  0.1492
10687TIP3    H153476   4.981   0.623  13.654 -0.7896  0.0412  0.3405
10687TIP3    H253477   5.003   0.630  13.504 -1.4779  1.8731  0.3013
10688TIP3   OH253478   2.650   0.971   3.864  0.2326 -0.2337 -0.3266
10688TIP3    H153479   2.617   1.061   3.864 -0.5527 -0.4708  1.3897
10688TIP3    H253480   2.596   0.926   3.930  0.9631 -1.8276 -0.7652
10689TIP3   OH253481   1.667   1.033  11.977 -0.3167 -0.2717 -0.2473
10689TIP3    H153482   1.703   1.089  12.046 -1.2641 -1.0669  0.9311
10689TIP3    H253483   1.674   0.944  12.011  1.1992 -0.9265 -2.1188
10690TIP3   OH253484   1.358   5.907   3.115 -0.1522 -0.2951  0.4029
10690TIP3    H153485   1.340   5.881   3.205 -1.9113  1.1585  0.5153
10690TIP3    H253486   1.286   5.964   3.091 -0.3010 -1.4638 -2.3143
10691TIP3   OH253487   2.090   0.025   1.979 -0.0303  0.1055 -0.4516
10691TIP3    H153488   2.012  -0.018   1.945 -0.0993  1.2914 -1.8937
10691TIP3    H253489   2.149   0.031   1.904  0.4585  1.4075  0.0078
10692TIP3   OH253490   4.326   0.332  12.320 -0.3553 -0.1652 -0.4903
10692TIP3    H153491   4.341   0.289  12.236 -0.6219 -2.1265  0.4160
10692TIP3    H253492   4.241   0.300  12.349 -0.5414  0.9542  0.2712
10693TIP3   OH253493   6.004   1.106  12.332 -0.1044 -0.6524  0.1300
10693TIP3    H153494   6.059   1.177  12.364  0.0661 -0.2788 -0.9304
10693TIP3    H253495   5.915   1.140  12.337 -0.2723 -1.2672  1.8732
10694TIP3   OH253496   6.253   3.615   1.305 -0.2025  0.2236  0.0713
10694TIP3    H153497   6.301   3.571   1.375 -2.7239  0.5268  2.1368
10694TIP3    H253498   6.200   3.547   1.264 -0.4638  0.4637  0.0041
10695TIP3   OH253499   5.393   5.391   2.450 -0.4236  0.0353 -0.4986
10695TIP3    H153500   5.389   5.374   2.356 -0.7866  0.1472 -0.5020
10695TIP3    H253501   5.428   5.480   2.458 -1.8858  0.6354 -0.5722
10696TIP3   OH253502   3.824   2.418  13.379 -0.0898  0.3842 -0.1858
10696TIP3    H153503   3.749   2.423  13.439 -0.0004 -1.0774  0.0860
10696TIP3    H253504   3.786   2.416  13.292 -0.6099 -2.8020 -0.0071
10697TIP3   OH253505   0.803   4.237   1.160 -0.2639  0.0739  0.0413
10697TIP3    H153506   0.727   4.237   1.101 -0.2749  2.0984  0.0047
10697TIP3    H253507   0.770   4.199   1.241 -0.4657 -1.9681 -0.9156
10698TIP3   OH253508   4.205   0.077   5.993 -0.5438  0.0714 -0.1315
10698TIP3    H153509   4.154   0.135   6.049 -0.2551 -0.2659  0.5002
10698TIP3    H253510   4.279   0.131   5.964  0.1843 -0.1884  1.1335
10699TIP3   OH253511   4.840   0.915   3.956  0.4870 -0.3271  0.2088
10699TIP3    H153512   4.753   0.944   3.986  0.9107 -0.3033  1.4803
10699TIP3    H253513   4.880   0.993   3.918  0.6118  0.1273  1.2253
10700TIP3   OH253514   0.161   1.770   5.018  0.0210  0.6648  0.9572
10700TIP3    H153515   0.214   1.842   4.984  1.6008 -0.4336  0.9885
10700TIP3    H253516   0.099   1.812   5.078  0.1047  2.1176  0.0559
10701TIP3   OH253517   5.770   6.481   2.940 -0.2756  0.3008  0.4458
10701TIP3    H153518   5.724   6.532   2.873 -1.2767 -1.9449 -0.6751
10701TIP3    H253519   5.862   6.483   2.913  0.0917  3.0778  1.5474
10702TIP3   OH253520   4.132   2.976   0.561 -0.8010 -0.2775 -0.5290
10702TIP3    H153521   4.162   2.917   0.492  0.8133 -0.2227  0.0741
10702TIP3    H253522   4.122   3.061   0.517 -2.7417 -0.8647 -1.3089
10703TIP3   OH253523   0.249   1.294  14.739 -0.3758  0.3662 -0.3790
10703TIP3    H153524   0.343   1.286  14.721 -0.5057 -0.7001 -0.6795
10703TIP3    H253525   0.225   1.380  14.704  0.3711  0.3937 -0.8485
10704TIP3   OH253526   4.457   5.026   4.660 -0.5053 -0.2933  0.3085
10704TIP3    H153527   4.498   5.022   4.574  1.1707 -1.2925  1.1138
10704TIP3    H253528   4.498   5.100   4.703 -0.2717 -0.6845  0.7650
10705TIP3   OH253529   0.959   0.760   1.521 -0.1401  0.4521  0.3380
10705TIP3    H153530   0.994   0.675   1.494 -0.0410  0.6878 -0.2862
10705TIP3    H253531   0.979   0.765   1.615 -0.4446 -0.3533  0.4581
10706TIP3   OH253532   5.372   3.770   3.765  0.7396 -0.1309  0.7055
10706TIP3    H153533   5.374   3.849   3.819 -0.1170  0.5315 -0.1798
10706TIP3    H253534   5.315   3.793   3.692  1.9542 -0.9452 -0.5527
10707TIP3   OH253535   1.246   0.349  15.964 -0.3436 -0.1039  0.0835
10707TIP3    H153536   1.222   0.262  15.931  1.0973  0.1538 -1.8021
10707TIP3    H253537   1.200   0.410  15.907  0.1212  0.3623  0.1966
10708TIP3   OH253538   3.348   2.928   3.311  0.0265 -0.4662  0.0279
10708TIP3    H153539   3.260   2.956   3.288  0.4831  2.2170  1.1513
10708TIP3    H253540   3.351   2.933   3.406  1.1816 -1.2618  0.0541
10709TIP3   OH253541   3.267   5.436  12.533  0.0943  0.0699 -0.0768
10709TIP3    H153542   3.270   5.489  12.613  3.1734 -1.5703  1.0919
10709TIP3    H253543   3.326   5.481  12.473  1.5756 -1.1066  0.4065
10710TIP3   OH253544   3.599   1.713   4.696 -0.4579 -0.3870 -0.3124
10710TIP3    H153545   3.511   1.749   4.695 -0.7726 -1.1323 -0.2373
10710TIP3    H253546   3.623   1.707   4.788 -0.1361  0.2484 -0.3462
10711TIP3   OH253547   1.257   0.328   5.297  0.3351  0.6919  0.5327
10711TIP3    H153548   1.228   0.238   5.282  2.0074  0.1640  0.2973
10711TIP3    H253549   1.275   0.332   5.391  0.9936  0.5294  0.4222
10712TIP3   OH253550   4.023   1.615  13.524  0.5554  0.1464  0.5244
10712TIP3    H153551   4.052   1.706  13.530 -0.5031  0.4421  1.6215
10712TIP3    H253552   3.933   1.620  13.491  0.4028 -0.4905  0.8222
10713TIP3   OH253553   5.393   0.335   4.880  0.2594  0.1749  0.0291
10713TIP3    H153554   5.323   0.271   4.861 -0.6419  1.6300 -1.9708
10713TIP3    H253555   5.349   0.420   4.874  1.6659  1.0394  1.4907
10714TIP3   OH253556   0.589   1.908  13.566  0.5826 -0.4047 -0.1182
10714TIP3    H153557   0.517   1.926  13.628 -0.3519  0.1466 -1.3211
10714TIP3    H253558   0.627   1.994  13.548  1.2886 -0.6427  0.1796
10715TIP3   OH253559   0.445   2.090  12.901 -0.6997  0.4811 -0.3695
10715TIP3    H153560   0.519   2.117  12.847 -0.3747 -0.1724 -0.2547
10715TIP3    H253561   0.443   2.153  12.973  1.0579 -0.7266  0.7951
10716TIP3   OH253562   2.215   4.288  15.094  0.0717 -0.0281  0.0131
10716TIP3    H153563   2.204   4.291  15.189 -1.5363  0.2167 -0.1452
10716TIP3    H253564   2.162   4.362  15.062  0.4594 -0.2051 -1.0816
10717TIP3   OH253565   0.890   0.053  14.973 -0.2344  0.8392 -0.4044
10717TIP3    H153566   0.909   0.068  15.066 -0.6314  0.7852 -0.3140
10717TIP3    H253567   0.857  -0.037  14.970  0.6722  0.5103 -0.7300
10718TIP3   OH253568   1.118   6.508   4.853 -0.6093 -0.2453 -0.4768
10718TIP3    H153569   1.105   6.489   4.946 -2.1202  0.4070 -0.5291
10718TIP3    H253570   1.140   6.601   4.850  1.0341 -0.6011 -0.6807
10719TIP3   OH253571   6.529   2.161   3.907  0.1112 -0.1669 -0.4898
10719TIP3    H153572   6.497   2.193   3.992 -1.8110 -2.1516 -0.3692
10719TIP3    H253573   6.513   2.233   3.847 -2.7107 -0.2140  0.0342
10720TIP3   OH253574   4.806   2.064   3.480  0.0388 -0.1932 -0.5603
10720TIP3    H153575   4.751   2.061   3.558  0.0235 -3.4819 -0.5570
10720TIP3    H253576   4.890   2.098   3.511 -0.0924 -1.0399  0.8226
10721TIP3   OH253577   6.782   3.374  10.018  0.1321 -0.1967  0.0669
10721TIP3    H153578   6.770   3.280  10.034 -1.5344  0.1739  1.4287
10721TIP3    H253579   6.863   3.380   9.968  1.4630 -2.2108  1.7900
10722TIP3   OH253580   5.469   5.862   2.024  0.1247  0.1802  0.1221
10722TIP3    H153581   5.495   5.866   1.932  1.2940  0.2955  0.4301
10722TIP3    H253582   5.428   5.777   2.035  1.7696 -0.6721 -0.0851
10723TIP3   OH253583   4.872   4.619   4.036  0.3831  0.0144  0.6841
10723TIP3    H153584   4.794   4.564   4.027  0.2482  0.2936  0.0520
10723TIP3    H253585   4.848   4.685   4.100  0.0456  0.1761  0.3956
10724TIP3   OH253586   3.331   1.438   2.057  0.2104  0.4459 -0.0686
10724TIP3    H153587   3.242   1.429   2.089  0.5537  1.6296  1.3480
10724TIP3    H253588   3.350   1.356   2.013 -0.4447 -1.2175  2.5170
10725TIP3   OH253589   6.562   4.070   4.374 -0.0946  0.4746 -0.3759
10725TIP3    H153590   6.594   4.123   4.301  1.1431 -0.9452 -0.9122
10725TIP3    H253591   6.567   3.980   4.343 -0.1323 -0.1231  1.2335
10726TIP3   OH253592   1.840   3.266  16.152  0.3589  0.6843  0.6328
10726TIP3    H153593   1.837   3.345  16.098 -0.0936  0.4703  0.3472
10726TIP3    H253594   1.758   3.220  16.134 -0.2775  1.1025  2.2434
10727TIP3   OH253595   4.409   0.917   2.373  0.1975 -0.0601  0.2419
10727TIP3    H153596   4.494   0.958   2.356 -0.2728 -0.0513 -2.4542
10727TIP3    H253597   4.427   0.855   2.445  2.6304 -0.4845 -0.6286
10728TIP3   OH253598   0.491   4.020   4.580  0.4258  0.1464 -0.5440
10728TIP3    H153599   0.427   4.039   4.648  0.8272  0.2010 -0.1719
10728TIP3    H253600   0.440   4.012   4.499  0.0101  0.6666 -0.3369
10729TIP3   OH253601   2.800   5.759   3.381 -0.7932  0.9371  0.1674
10729TIP3    H153602   2.809   5.796   3.293 -0.7319  0.5258  0.0007
10729TIP3    H253603   2.796   5.665   3.368  1.2458  0.7305  0.7574
10730TIP3   OH253604   6.312   2.342   2.198 -0.4304 -0.0938  0.4000
10730TIP3    H153605   6.258   2.421   2.200 -1.0350 -0.3894 -1.5926
10730TIP3    H253606   6.253   2.272   2.225 -0.7890 -0.2608 -0.7444
10731TIP3   OH253607   5.692   1.751  16.582 -0.4619 -0.2651  0.4618
10731TIP3    H153608   5.666   1.806  16.656 -2.3402  0.4116 -0.6264
10731TIP3    H253609   5.612   1.703  16.558  0.4202 -1.3880 -0.3646
10732TIP3   OH253610   2.618   2.915  15.924 -0.0467  0.4254  0.7899
10732TIP3    H153611   2.678   2.986  15.905 -0.4789  0.8772  1.0815
10732TIP3    H253612   2.531   2.953  15.910 -0.2599 -0.5163 -0.6982
10733TIP3   OH253613   5.227   0.983  15.673 -0.3895 -0.1186 -0.3964
10733TIP3    H153614   5.315   1.008  15.643 -0.6857 -0.0213 -1.2170
10733TIP3    H253615   5.239   0.956  15.764  0.1873  1.5768  0.0528
10734TIP3   OH253616   4.432   4.432  14.856 -0.0427  0.1670  1.2052
10734TIP3    H153617   4.432   4.410  14.763  1.2507  0.4339  1.1266
10734TIP3    H253618   4.475   4.357  14.898  1.8551  1.2262  1.2496
10735TIP3   OH253619   4.571   6.095  14.218 -0.1869 -0.2698  0.3947
10735TIP3    H153620   4.508   6.071  14.150  2.0904 -3.1116 -0.9416
10735TIP3    H253621   4.644   6.134  14.170  0.2499  0.4359  1.5958
10736TIP3   OH253622   5.826   6.797  15.295  0.0219 -0.2923  0.0758
10736TIP3    H153623   5.756   6.844  15.341 -0.4587 -0.4586 -0.4748
10736TIP3    H253624   5.793   6.708  15.286  1.6410 -1.2687  2.6749
10737TIP3   OH253625   4.450   0.403   4.457  0.3855 -0.2467 -0.2257
10737TIP3    H153626   4.478   0.415   4.547 -1.4275 -0.2265  0.3635
10737TIP3    H253627   4.391   0.476   4.440 -1.1495 -1.5264 -0.6276
10738TIP3   OH253628   6.571   3.565   3.451 -0.2812  0.0102 -0.0618
10738TIP3    H153629   6.647   3.568   3.509  0.8512  0.8334 -1.5251
10738TIP3    H253630   6.558   3.656   3.423 -1.9393 -0.0903  0.3131
10739TIP3   OH253631   1.390   2.751  14.965 -0.1152  0.6086 -0.0599
10739TIP3    H153632   1.431   2.812  15.025 -0.9152  1.3226 -0.2162
10739TIP3    H253633   1.345   2.688  15.022  2.3000 -1.0444  0.1560
10740TIP3   OH253634   4.812   0.298  11.306  0.2392 -0.5003 -0.3475
10740TIP3    H153635   4.850   0.221  11.262  2.3810 -1.8486  3.3600
10740TIP3    H253636   4.882   0.363  11.304 -0.3598  0.1440 -0.6022
10741TIP3   OH253637   5.236   3.473   5.553 -0.6261 -0.0915 -0.1517
10741TIP3    H153638   5.234   3.567   5.538 -0.1162 -0.2358 -1.2473
10741TIP3    H253639   5.276   3.437   5.474 -0.5758 -1.2073  0.3592
10742TIP3   OH253640   6.743   0.688   5.199 -0.2365 -0.5353  0.0963
10742TIP3    H153641   6.816   0.725   5.249  0.1461  0.4419 -1.1565
10742TIP3    H253642   6.754   0.593   5.210  1.2111 -0.4177 -0.0295
10743TIP3   OH253643   3.256   3.728   2.232  0.0491  0.4344  0.1751
10743TIP3    H153644   3.268   3.773   2.148  1.6241 -0.7799 -0.2986
10743TIP3    H253645   3.341   3.690   2.251 -0.5411 -0.1236  1.8700
10744TIP3   OH253646   4.597   1.672   1.192 -0.2903  0.4742  0.8707
10744TIP3    H153647   4.502   1.673   1.186 -0.2098  1.5169 -0.7468
10744TIP3    H253648   4.623   1.589   1.154 -0.4587  1.4932 -1.6554
10745TIP3   OH253649   4.751   1.817  13.481 -0.8695  0.3199 -0.1714
10745TIP3    H153650   4.665   1.784  13.452 -0.0206 -1.4255 -0.8676
10745TIP3    H253651   4.810   1.798  13.408  0.0953  1.6783  0.2147
10746TIP3   OH253652   0.704   1.579   0.276  0.0641 -0.2958  0.4311
10746TIP3    H153653   0.788   1.597   0.317 -0.5888  0.7867  1.3548
10746TIP3    H253654   0.643   1.570   0.349 -0.2780 -3.3087 -0.0998
10747TIP3   OH253655   1.888   4.908  16.944  0.0566 -0.0572  0.4819
10747TIP3    H153656   1.907   4.955  17.025 -2.0573  0.1235  0.9554
10747TIP3    H253657   1.897   4.974  16.875  0.6307  0.1137  0.7159
10748TIP3   OH253658   5.656   5.668   5.847 -0.0456 -0.0973  0.8968
10748TIP3    H153659   5.658   5.675   5.942  0.4378 -0.1091  0.8929
10748TIP3    H253660   5.573   5.708   5.821 -0.9781 -1.6252  1.4342
10749TIP3   OH253661   1.265   3.769  11.875  0.3803  0.9270 -0.8250
10749TIP3    H153662   1.228   3.850  11.840  0.5173  1.3335 -0.0473
10749TIP3    H253663   1.338   3.748  11.816 -1.2981 -0.1332 -2.6620
10750TIP3   OH253664   6.125   4.285  15.925  0.3869  0.1220  0.4807
10750TIP3    H153665   6.201   4.246  15.883 -1.3315 -2.2924 -0.6086
10750TIP3    H253666   6.097   4.354  15.865  1.8589  1.2922  1.0798
10751TIP3   OH253667   5.136   6.219   2.316 -0.0654 -0.0344  0.5211
10751TIP3    H153668   5.174   6.306   2.303  0.3759  0.1022  2.4007
10751TIP3    H253669   5.208   6.158   2.296  0.0684  0.0937  0.6133
10752TIP3   OH253670   2.897   3.096  16.549 -0.3543  0.4011 -0.4759
10752TIP3    H153671   2.814   3.136  16.521 -0.7362 -0.3829 -0.4985
10752TIP3    H253672   2.895   3.009  16.511 -1.2354 -0.9961  2.4865
10753TIP3   OH253673   6.746   0.993   3.475  0.5683 -0.1294 -0.0858
10753TIP3    H153674   6.680   0.997   3.406 -0.4183 -1.1083  0.7428
10753TIP3    H253675   6.757   1.084   3.504  0.5783  0.2118 -1.1426
10754TIP3   OH253676   6.729   1.694   5.701  0.1778 -0.2093  0.6355
10754TIP3    H153677   6.683   1.743   5.770 -1.0753  3.0273 -2.1761
10754TIP3    H253678   6.661   1.679   5.635  1.5639 -2.1832 -0.4142
10755TIP3   OH253679   0.650   3.277  16.715 -0.4741  0.3961 -0.4870
10755TIP3    H153680   0.665   3.271  16.621  0.3560 -1.5677 -0.2602
10755TIP3    H253681   0.736   3.298  16.752 -0.8390  1.3866 -0.1542
10756TIP3   OH253682   1.631   0.266   4.578  0.0670 -0.3002 -0.3702
10756TIP3    H153683   1.680   0.341   4.611 -0.0985 -0.0588 -0.6719
10756TIP3    H253684   1.644   0.198   4.644  1.6602 -0.5727 -0.9383
10757TIP3   OH253685   2.406   5.696   0.802  0.1677 -0.9451 -0.4037
10757TIP3    H153686   2.501   5.702   0.803  0.2325 -1.8280 -0.5463
10757TIP3    H253687   2.386   5.632   0.734 -0.5598 -0.3659 -0.7558
10758TIP3   OH253688   6.455   2.904  15.838 -0.3480 -0.0185  0.1279
10758TIP3    H153689   6.379   2.872  15.886  1.7253 -3.7336  1.4017
10758TIP3    H253690   6.517   2.932  15.906  0.1985  1.0211 -0.7679
10759TIP3   OH253691   4.768   3.567   1.251  0.4901 -0.4238 -0.0387
10759TIP3    H153692   4.691   3.528   1.210  1.5584 -1.1354 -1.4527
10759TIP3    H253693   4.816   3.494   1.289  0.4160  0.0292  0.9542
10760TIP3   OH253694   5.959   2.583   1.773  0.2816  0.3019 -0.7461
10760TIP3    H153695   6.037   2.533   1.749  0.4295 -0.0240  0.3251
10760TIP3    H253696   5.940   2.555   1.863 -3.6468 -2.9794 -2.3032
10761TIP3   OH253697   5.245   1.304  12.148  0.3505  0.0443 -0.1417
10761TIP3    H153698   5.307   1.376  12.136  2.2514 -1.7795 -2.1149
10761TIP3    H253699   5.223   1.276  12.060 -2.2836 -0.2912  0.5391
10762TIP3   OH253700   1.452   1.366  11.633 -0.1972  0.0445  0.2073
10762TIP3    H153701   1.470   1.459  11.646 -0.3217  0.0542  0.3063
10762TIP3    H253702   1.438   1.331  11.721  0.1381 -0.1274  0.1929
10763TIP3   OH253703   5.965   1.990   2.217 -0.1680  0.5051  0.2792
10763TIP3    H153704   5.913   2.014   2.294 -1.4025 -1.0347 -0.0349
10763TIP3    H253705   5.904   1.943   2.160  1.1555  0.1221 -0.8758
10764TIP3   OH253706   1.905   0.776  16.005  0.6613 -0.0890 -0.3014
10764TIP3    H153707   1.942   0.807  15.922  0.3981 -2.1929 -1.2723
10764TIP3    H253708   1.810   0.783  15.993  0.6327  1.0789  0.4634
10765TIP3   OH253709   2.097   1.493   5.899  0.6448 -0.2678 -0.3167
10765TIP3    H153710   2.077   1.419   5.955 -0.8335 -3.1482 -4.2079
10765TIP3    H253711   2.193   1.495   5.894  0.7289 -1.1763  0.7274
10766TIP3   OH253712   2.115   6.329  11.862 -0.3835 -0.0637 -0.2445
10766TIP3    H153713   2.147   6.274  11.934 -0.3404 -0.4131 -0.5310
10766TIP3    H253714   2.025   6.349  11.886 -0.1850  0.3266  0.2078
10767TIP3   OH253715   0.120   3.245  15.939  0.3600  0.3878  0.4961
10767TIP3    H153716   0.032   3.215  15.916  0.2121  0.6278  0.7364
10767TIP3    H253717   0.116   3.262  16.033  0.0277  2.4394  0.1756
10768TIP3   OH253718   2.076   6.202  12.354 -0.1593 -0.7605 -0.3916
10768TIP3    H153719   1.996   6.163  12.318 -1.1867  0.5204  0.4261
10768TIP3    H253720   2.048   6.243  12.435  1.0817  0.7961 -0.7139
10769TIP3   OH253721   1.859   2.607   0.990  0.1739  0.2751 -0.0521
10769TIP3    H153722   1.800   2.566   1.054  0.2512 -0.3416 -0.3744
10769TIP3    H253723   1.944   2.566   1.006  0.1811  0.0799 -0.5940
10770TIP3   OH253724   6.456   6.358   5.714 -0.0679  0.1336  0.0594
10770TIP3    H153725   6.453   6.411   5.635 -0.6529  2.1749  1.3860
10770TIP3    H253726   6.501   6.412   5.779 -2.4046 -0.0678  2.0380
10771TIP3   OH253727   0.527   0.823   1.082  0.1241  0.8269  0.1227
10771TIP3    H153728   0.609   0.836   1.035  2.3725  0.2390  3.5002
10771TIP3    H253729   0.524   0.895   1.145  0.1654 -1.1858  2.6286
10772TIP3   OH253730   1.184   1.661  11.748 -0.1429  0.2909 -0.2324
10772TIP3    H153731   1.274   1.688  11.764  0.2324  0.1696 -1.9476
10772TIP3    H253732   1.164   1.601  11.820  1.1708  0.2545  0.1233
10773TIP3   OH253733   0.550   5.828   0.421 -0.1817  0.9251 -0.0792
10773TIP3    H153734   0.581   5.848   0.333  2.1915 -0.8518  0.2562
10773TIP3    H253735   0.574   5.905   0.473 -0.6309  1.5287 -0.7504
10774TIP3   OH253736   0.670   2.728  13.744 -0.3748 -0.0400 -0.0738
10774TIP3    H153737   0.653   2.638  13.771  0.3554 -0.2763 -0.3887
10774TIP3    H253738   0.590   2.755  13.699 -0.4391 -0.6710 -0.3448
10775TIP3   OH253739   6.761   4.829   5.377  0.5176 -0.2730  0.2210
10775TIP3    H153740   6.798   4.742   5.386  0.8714  0.0704  3.5815
10775TIP3    H253741   6.820   4.874   5.316  0.6341 -2.1399 -1.1407
10776TIP3   OH253742   5.790   0.369  14.744 -0.1383 -0.2369 -0.3071
10776TIP3    H153743   5.857   0.356  14.811 -1.7637 -0.8373  1.2748
10776TIP3    H253744   5.791   0.463  14.726  0.4268 -0.0983  0.4161
10777TIP3   OH253745   2.492   3.917  12.711  0.6367 -0.0745 -0.5399
10777TIP3    H153746   2.433   3.851  12.746  2.4135 -3.2996 -3.0806
10777TIP3    H253747   2.466   3.928  12.620  1.5621  1.3948 -0.6666
10778TIP3   OH253748   5.925   2.647   1.434  0.2500  0.2740 -0.0983
10778TIP3    H153749   6.003   2.628   1.486 -0.1135  0.0007  0.3575
10778TIP3    H253750   5.868   2.697   1.493  0.5055  1.4006 -0.7576
10779TIP3   OH253751   2.912   2.804  12.153  0.0005 -0.5038 -1.1994
10779TIP3    H153752   2.892   2.898  12.152 -1.1522 -0.7008  0.3200
10779TIP3    H253753   2.858   2.768  12.082 -2.5242 -0.5035  0.5849
10780TIP3   OH253754   5.282   4.474   4.974  0.1106  0.5967 -0.1953
10780TIP3    H153755   5.202   4.519   5.003 -0.9127 -1.7302  0.8050
10780TIP3    H253756   5.251   4.405   4.916  1.4814  0.1971 -0.4806
10781TIP3   OH253757   1.755   0.768   4.997  0.2557  0.2397  0.4289
10781TIP3    H153758   1.754   0.803   4.908  1.9947 -0.6773 -0.0089
10781TIP3    H253759   1.707   0.685   4.991  0.8013 -0.0673  0.2080
10782TIP3   OH253760   2.535   1.896   6.243 -0.1115  0.2853  0.0147
10782TIP3    H153761   2.622   1.935   6.257 -0.5047  2.0368 -1.9020
10782TIP3    H253762   2.553   1.808   6.211  0.9242  0.2972  0.5195
10783TIP3   OH253763   6.560   5.623   0.729  0.1643 -0.1646 -0.3213
10783TIP3    H153764   6.585   5.568   0.803 -0.4277 -0.9071 -0.6531
10783TIP3    H253765   6.531   5.560   0.662  0.0890  0.5255 -0.9440
10784TIP3   OH253766   6.330   6.507   3.563  0.1658  0.7364 -0.5248
10784TIP3    H153767   6.327   6.483   3.656 -1.3020  0.1669 -0.6787
10784TIP3    H253768   6.257   6.568   3.552  2.9137  4.3364 -0.4735
10785TIP3   OH253769   2.960   6.210   3.947  0.3004 -0.4131 -0.4298
10785TIP3    H153770   3.022   6.152   3.903  0.6586  0.2873 -0.8498
10785TIP3    H253771   2.915   6.256   3.877  1.7474  1.6393 -0.1162
10786TIP3   OH253772   3.527   3.362   3.115  0.3137  0.0954  0.3006
10786TIP3    H153773   3.464   3.403   3.056  0.0664 -0.5452  0.1035
10786TIP3    H253774   3.475   3.331   3.189 -0.0110 -2.3475 -0.8455
10787TIP3   OH253775   2.906   2.836   2.078 -0.0106  0.5747  0.1353
10787TIP3    H153776   2.968   2.848   2.151 -0.0738  0.5165  0.1985
10787TIP3    H253777   2.883   2.925   2.051 -0.8450  0.6101  0.9144
10788TIP3   OH253778   6.585   2.647   4.105  0.1799  0.1514 -0.3358
10788TIP3    H153779   6.626   2.562   4.091  0.2381  0.3699 -1.6302
10788TIP3    H253780   6.509   2.647   4.047 -1.4660 -0.0793  1.7276
10789TIP3   OH253781   0.998   5.683   5.060  0.2685 -0.1365  0.0521
10789TIP3    H153782   1.032   5.714   5.143 -2.4698 -0.3453  1.3881
10789TIP3    H253783   1.042   5.599   5.045  1.4678  0.3470  0.7915
10790TIP3   OH253784   5.378   1.290  15.195  0.0990 -0.2142 -0.3586
10790TIP3    H153785   5.423   1.371  15.171  0.1302 -0.2801 -0.5228
10790TIP3    H253786   5.343   1.257  15.112 -0.4230 -0.0581 -0.2020
10791TIP3   OH253787   3.208   6.649  16.720 -0.0468 -0.2818  0.3619
10791TIP3    H153788   3.237   6.657  16.811  1.8044 -0.2422 -0.1910
10791TIP3    H253789   3.132   6.591  16.724 -0.2941  0.1118  1.9776
10792TIP3   OH253790   5.193   2.290  15.095  0.2699  0.3009 -0.1058
10792TIP3    H153791   5.177   2.376  15.135  0.0338  0.0618  0.3095
10792TIP3    H253792   5.251   2.310  15.021  3.2816  0.3961  2.0912
10793TIP3   OH253793   2.974   3.881  13.263 -0.1808 -0.1745 -0.0272
10793TIP3    H153794   2.894   3.899  13.313  0.1475 -0.4617  0.6164
10793TIP3    H253795   2.981   3.785  13.263  0.4767 -0.1324  0.4349
10794TIP3   OH253796   0.993   6.408  16.780 -0.1889  0.1381 -0.1440
10794TIP3    H153797   0.910   6.418  16.733 -0.6693  1.6183  0.9714
10794TIP3    H253798   1.059   6.444  16.719 -0.4737 -0.2024 -0.6604
10795TIP3   OH253799   6.417   3.483  14.617 -0.5265 -0.7803  0.5074
10795TIP3    H153800   6.407   3.573  14.587 -0.3781 -1.1850 -0.8285
10795TIP3    H253801   6.327   3.453  14.635 -0.5894 -0.4390  0.7763
10796TIP3   OH253802   5.564   6.650  12.042  0.2064  0.5547 -0.1052
10796TIP3    H153803   5.580   6.728  11.989 -0.3986  1.5429  1.1104
10796TIP3    H253804   5.524   6.684  12.123  0.2304 -0.9864  0.5821
10797TIP3   OH253805   0.964   5.313   1.579  0.2867 -0.0768 -0.1382
10797TIP3    H153806   1.009   5.350   1.655  2.5837 -2.0047 -0.4133
10797TIP3    H253807   1.000   5.361   1.504 -0.5623  0.5404 -0.1624
10798TIP3   OH253808   0.146   6.243  13.071 -0.3693  0.3462  0.4850
10798TIP3    H153809   0.231   6.199  13.062  0.0795  1.2534  0.1944
10798TIP3    H253810   0.142   6.303  12.996 -1.2336  0.3756  0.5438
10799TIP3   OH253811   6.361   0.212  16.367 -0.1505  0.1855  0.0679
10799TIP3    H153812   6.267   0.234  16.370  0.0114  0.8393  0.8658
10799TIP3    H253813   6.402   0.278  16.423  0.7316 -0.4013  0.1258
10800TIP3   OH253814   4.202   1.240  10.341  0.2831 -0.3373 -0.3860
10800TIP3    H153815   4.267   1.171  10.329  0.4891 -0.3180  0.5484
10800TIP3    H253816   4.156   1.216  10.422  0.8716  1.0205  0.3756
10801TIP3   OH253817   5.945   0.003   5.853 -0.3090 -0.7584  0.2209
10801TIP3    H153818   5.996  -0.046   5.918 -0.2450 -0.2486  0.5631
10801TIP3    H253819   5.942  -0.055   5.777 -0.3826 -1.3664  0.6755
10802TIP3   OH253820   4.635   6.745   3.245  0.2419  0.3663  0.1495
10802TIP3    H153821   4.655   6.656   3.215 -0.9207  0.2569 -0.3702
10802TIP3    H253822   4.566   6.734   3.310 -0.4898  0.9278 -0.5098
10803TIP3   OH253823   3.454   1.245   1.749 -0.7468  0.0484 -0.4326
10803TIP3    H153824   3.517   1.303   1.706  1.4413 -0.9880  1.1626
10803TIP3    H253825   3.454   1.166   1.695 -2.4800  0.8343 -1.6830
10804TIP3   OH253826   2.766   5.002   5.208  0.2639  0.3830  0.3226
10804TIP3    H153827   2.675   5.030   5.196  0.3903  0.8525  0.4240
10804TIP3    H253828   2.761   4.934   5.276  0.0845  1.0130  0.9506
10805TIP3   OH253829   4.228   3.814  16.018  0.4134 -0.5216 -0.6577
10805TIP3    H153830   4.173   3.865  16.077  2.2500  2.0958 -1.0073
10805TIP3    H253831   4.289   3.767  16.075  0.8578  0.3851 -0.3543
10806TIP3   OH253832   3.859   4.745   2.642 -0.2189 -0.1453 -0.3710
10806TIP3    H153833   3.942   4.741   2.595  0.3770 -0.2604  0.6782
10806TIP3    H253834   3.823   4.831   2.620  0.6056  0.2689 -0.1185
10807TIP3   OH253835   3.903   5.531   2.395  0.5850 -0.3597 -0.2869
10807TIP3    H153836   3.816   5.493   2.408  0.7438 -0.5973  0.1011
10807TIP3    H253837   3.886   5.615   2.352  0.2114 -0.7136 -0.8456
10808TIP3   OH253838   1.240   4.805   5.382  0.3562  0.1229 -0.4632
10808TIP3    H153839   1.329   4.798   5.417  0.1230 -1.7048 -0.1478
10808TIP3    H253840   1.192   4.734   5.425 -1.5069  1.6467  0.0871
10809TIP3   OH253841   0.694   5.673   5.117 -0.1212  0.3434  0.2862
10809TIP3    H153842   0.784   5.668   5.085 -0.2325  0.8090 -0.1025
10809TIP3    H253843   0.702   5.711   5.204  0.0017  1.0436 -0.0226
10810TIP3   OH253844   1.522   0.055   3.937  0.2311  0.1744 -0.3840
10810TIP3    H153845   1.533   0.101   4.020 -0.7598 -0.3647  0.0646
10810TIP3    H253846   1.433   0.077   3.909  0.4004  0.0011 -1.0867
10811TIP3   OH253847   1.175   5.600  12.657 -0.0676 -0.0946 -0.1400
10811TIP3    H153848   1.161   5.651  12.736  0.7791 -1.3832  0.9012
10811TIP3    H253849   1.270   5.600  12.645  0.1931 -2.8501  0.9949
10812TIP3   OH253850   2.039   1.463  12.429 -0.6776 -0.6380 -0.2960
10812TIP3    H153851   2.126   1.487  12.397  0.2872 -2.5568  0.7272
10812TIP3    H253852   2.008   1.397  12.367 -0.7473 -1.0493  0.1696
10813TIP3   OH253853   2.737   4.461   4.655  0.4118 -0.3823  0.6428
10813TIP3    H153854   2.735   4.539   4.600  0.8430 -1.0327 -0.3337
10813TIP3    H253855   2.806   4.478   4.719  1.3991 -0.4664 -0.3740
10814TIP3   OH253856   0.191   2.965  11.645  0.0533  0.3440  0.1147
10814TIP3    H153857   0.198   3.052  11.683  0.8661  0.3743 -0.0928
10814TIP3    H253858   0.101   2.960  11.612 -0.0427  1.0395  0.2666
10815TIP3   OH253859   4.532   4.515  15.887 -0.5803 -0.5876  0.1703
10815TIP3    H153860   4.546   4.602  15.850  0.2504 -0.3282  1.0642
10815TIP3    H253861   4.436   4.507  15.892 -0.7150 -0.5071 -1.6726
10816TIP3   OH253862   3.973   3.113  14.326  0.1504  0.1629 -0.4837
10816TIP3    H153863   3.929   3.193  14.300  2.6459  1.0096 -2.5370
10816TIP3    H253864   4.066   3.129  14.307  0.9474 -2.6373  0.5114
10817TIP3   OH253865   4.480   4.643   3.624 -0.1010  0.2568 -0.1551
10817TIP3    H153866   4.436   4.682   3.700  1.6011  1.1718  0.4166
10817TIP3    H253867   4.534   4.714   3.589  0.4050 -0.6343 -1.2289
10818TIP3   OH253868   3.239   2.177   3.894  0.1282  0.2348  0.4005
10818TIP3    H153869   3.202   2.262   3.867  0.0053 -0.4389 -1.7991
10818TIP3    H253870   3.321   2.170   3.844 -0.8268 -1.7523 -1.0324
10819TIP3   OH253871   4.064   2.326   4.364 -0.0821 -0.3709 -0.1851
10819TIP3    H153872   4.158   2.319   4.380 -0.1086 -0.9983 -0.2639
10819TIP3    H253873   4.027   2.355   4.448 -0.0503 -2.1652  0.4975
10820TIP3   OH253874   2.837   6.588   4.200 -0.5054 -0.5036  0.0967
10820TIP3    H153875   2.791   6.650   4.144  0.0136 -0.1970  0.0059
10820TIP3    H253876   2.805   6.502   4.172 -0.5895 -0.3230 -0.3633
10821TIP3   OH253877   1.304   3.971   2.957  0.5825  0.4454 -0.2266
10821TIP3    H153878   1.299   4.058   2.996 -2.1215  0.9009 -1.4225
10821TIP3    H253879   1.392   3.968   2.917  2.2654  1.0614  3.0934
10822TIP3   OH253880   2.497   3.865  16.766 -0.0331 -0.1769 -1.2799
10822TIP3    H153881   2.502   3.770  16.775  0.7104  0.0303  1.2507
10822TIP3    H253882   2.405   3.885  16.785 -0.0770 -0.3331 -1.3212
10823TIP3   OH253883   3.172   3.742   1.024 -0.4027 -0.4745  0.4978
10823TIP3    H153884   3.153   3.675   0.957  0.5065  0.2593 -0.5147
10823TIP3    H253885   3.141   3.824   0.985 -1.4027 -0.2481  1.6860
10824TIP3   OH253886   0.393   6.608  11.511  0.0286  0.5232  0.1524
10824TIP3    H153887   0.333   6.595  11.585  1.4216  0.2318  1.2972
10824TIP3    H253888   0.360   6.685  11.465 -2.4446 -0.8681 -0.5700
10825TIP3   OH253889   5.652   4.733   1.372  0.0065  0.5064 -0.1863
10825TIP3    H153890   5.679   4.702   1.459 -1.5128  2.0021  0.8548
10825TIP3    H253891   5.610   4.657   1.332 -2.2880  0.6468  1.7329
10826TIP3   OH253892   2.488   3.729  17.035  0.5061 -0.0720 -0.1752
10826TIP3    H153893   2.542   3.796  16.994 -0.8543  0.6187 -0.8912
10826TIP3    H253894   2.480   3.660  16.970 -1.0614  0.7080 -0.8702
10827TIP3   OH253895   3.072   3.479  12.376 -0.6897 -0.1404 -0.0455
10827TIP3    H153896   3.147   3.421  12.383 -0.1710  0.4214 -0.7684
10827TIP3    H253897   2.999   3.429  12.414  0.3205 -0.1088  2.0462
10828TIP3   OH253898   5.287   2.915  12.772 -0.5260 -0.3871 -0.1159
10828TIP3    H153899   5.301   2.987  12.711  1.1051 -1.1067 -0.6460
10828TIP3    H253900   5.194   2.891  12.759 -0.5699  0.3513 -1.3441
10829TIP3   OH253901   0.848   0.307   0.875  0.4814 -0.4010 -0.3445
10829TIP3    H153902   0.809   0.340   0.794  2.0692 -0.6269 -1.2415
10829TIP3    H253903   0.798   0.228   0.896 -0.5625  0.1825 -0.5459
10830TIP3   OH253904   5.516   1.674  14.384  0.0459 -0.5676 -0.6104
10830TIP3    H153905   5.562   1.590  14.389  1.0491 -0.0487 -0.9462
10830TIP3    H253906   5.446   1.667  14.449 -0.8716 -2.2615 -1.7210
10831TIP3   OH253907   3.669   1.662   3.790  0.1168  0.1663 -0.1712
10831TIP3    H153908   3.705   1.741   3.751  1.4065  1.2824  2.9416
10831TIP3    H253909   3.673   1.678   3.885 -0.5569 -3.2143  0.5632
10832TIP3   OH253910   6.783   1.977  13.552  0.3146 -0.6470 -0.4791
10832TIP3    H153911   6.796   1.901  13.609 -0.9719  0.1993  1.0153
10832TIP3    H253912   6.736   1.942  13.476  0.2627 -1.4625 -0.0789
10833TIP3   OH253913   4.460   0.513   2.878  0.0356 -0.0204 -0.2330
10833TIP3    H153914   4.369   0.532   2.854 -0.1705 -0.7923 -0.0822
10833TIP3    H253915   4.487   0.443   2.819 -0.7828 -2.6151  2.2628
10834TIP3   OH253916   4.723   2.901   2.829 -0.3873 -0.3501 -0.1248
10834TIP3    H153917   4.653   2.868   2.772  0.8025 -2.1026 -0.6622
10834TIP3    H253918   4.791   2.834   2.825  1.0831  0.9939  0.8730
10835TIP3   OH253919   3.285   6.080  14.528  0.1133 -0.0961 -0.1746
10835TIP3    H153920   3.249   6.149  14.473 -0.3261 -0.9777 -1.0395
10835TIP3    H253921   3.235   6.085  14.609  0.7405  1.1994  0.1593
10836TIP3   OH253922   0.719   6.456   4.988 -0.1910  0.3569  0.3710
10836TIP3    H153923   0.727   6.460   4.892  0.8225  1.7774  0.4692
10836TIP3    H253924   0.632   6.421   5.004 -0.8724  1.2918 -1.0863
10837TIP3   OH253925   4.077   0.383   5.378 -0.6417 -0.5380  0.8539
10837TIP3    H153926   4.143   0.411   5.441 -0.3009 -0.2318  0.3605
10837TIP3    H253927   3.994   0.416   5.413 -0.2736  0.9320  0.3791
10838TIP3   OH253928   2.966   6.230   2.504  0.3138  0.1635 -0.4041
10838TIP3    H153929   3.040   6.286   2.482  2.0485 -1.1769  1.5683
10838TIP3    H253930   2.953   6.244   2.598 -1.3444 -0.3346 -0.5365
10839TIP3   OH253931   2.320   5.806   2.017 -0.2053  0.2922 -0.3937
10839TIP3    H153932   2.328   5.761   2.101  1.0594 -0.6501 -0.9744
10839TIP3    H253933   2.360   5.745   1.954 -1.1833  0.9509 -1.6832
10840TIP3   OH253934   3.462   1.839   3.145  0.3597 -0.0197  0.7521
10840TIP3    H153935   3.404   1.820   3.071  0.8070 -3.0191  1.0444
10840TIP3    H253936   3.413   1.901   3.199 -0.3701  1.4948 -1.5131
10841TIP3   OH253937   0.258   6.535  14.560 -0.9266  0.0387  0.2360
10841TIP3    H153938   0.166   6.562  14.557 -0.6564  0.8978 -1.3310
10841TIP3    H253939   0.306   6.609  14.524  0.3275 -0.6840  0.3705
10842TIP3   OH253940   1.311   0.751   5.119 -0.2112 -0.4088 -0.3427
10842TIP3    H153941   1.267   0.681   5.167  0.9985 -1.0859 -0.1764
10842TIP3    H253942   1.389   0.770   5.171 -0.6585  1.3046 -0.2143
10843TIP3   OH253943   2.083   3.633   3.653  0.0596  0.3295  0.0066
10843TIP3    H153944   2.149   3.650   3.586 -0.4043  1.5772 -0.1583
10843TIP3    H253945   2.028   3.564   3.616  1.5003 -1.0437  0.3287
10844TIP3   OH253946   3.213   2.794   2.919 -0.0891  0.0424 -0.1981
10844TIP3    H153947   3.215   2.700   2.900 -0.4524 -0.1006  0.4430
10844TIP3    H253948   3.191   2.835   2.836 -0.7262 -0.4997 -0.3056
10845TIP3   OH253949   4.601   2.081  11.505  0.1605  0.0181 -0.0356
10845TIP3    H153950   4.575   2.173  11.495  0.1351 -0.0038 -0.1661
10845TIP3    H253951   4.696   2.082  11.493  0.1784  0.0485  0.1065
10846TIP3   OH253952   4.911   4.940   4.835  0.0633 -0.5128 -0.3814
10846TIP3    H153953   4.835   4.882   4.844 -0.0518 -0.2022  0.7685
10846TIP3    H253954   4.986   4.886   4.862  0.4134 -1.1068 -2.3790
10847TIP3   OH253955   1.782   3.874  15.827 -0.2973  0.4117  0.4483
10847TIP3    H153956   1.828   3.958  15.818  1.0558 -0.5091 -2.5817
10847TIP3    H253957   1.754   3.872  15.918  1.2230  3.3319  1.1127
10848TIP3   OH253958   1.344   0.232  10.849 -0.4166  0.5221  0.0077
10848TIP3    H153959   1.273   0.295  10.858 -1.3914 -0.6350  0.7889
10848TIP3    H253960   1.420   0.275  10.889 -0.5627  1.9068 -1.1407
10849TIP3   OH253961   2.055   5.958  10.802  0.5705 -0.3676  0.3227
10849TIP3    H153962   2.034   5.950  10.895  0.7431  1.9360  0.6034
10849TIP3    H253963   2.135   6.009  10.799  0.1977  0.1824 -1.1117
10850TIP3   OH253964   1.972   3.699  12.628 -0.0585  0.1572  0.2476
10850TIP3    H153965   1.916   3.687  12.551  0.6941  0.4627 -0.3704
10850TIP3    H253966   1.920   3.751  12.688 -0.7006 -0.1726 -0.0111
10851TIP3   OH253967   2.981   3.081   0.199  0.3776  0.3663  0.0874
10851TIP3    H153968   2.891   3.098   0.227  0.5234  0.2819  0.6269
10851TIP3    H253969   2.994   2.988   0.219  0.1893  0.0650 -1.1242
10852TIP3   OH253970   1.637   5.062   1.697  0.1015 -0.2340 -0.3707
10852TIP3    H153971   1.606   5.073   1.606 -1.6291 -0.9464  0.0899
10852TIP3    H253972   1.686   4.980   1.696  0.1422 -0.2074 -0.6762
10853TIP3   OH253973   5.781   1.278   5.465 -0.2512 -0.2231 -0.4628
10853TIP3    H153974   5.772   1.212   5.397 -0.3510 -1.0624  0.3382
10853TIP3    H253975   5.865   1.259   5.506 -1.0755 -1.0218  0.9443
10854TIP3   OH253976   1.630   1.986  15.340  0.0719 -0.2133 -0.1195
10854TIP3    H153977   1.643   2.081  15.349 -1.2974  0.0228 -0.3650
10854TIP3    H253978   1.662   1.966  15.252 -0.9280  0.3079 -0.6327
10855TIP3   OH253979   3.319   0.224   0.223  0.1377  0.1539 -0.3872
10855TIP3    H153980   3.253   0.291   0.204  0.6143  0.2960 -1.6733
10855TIP3    H253981   3.402   0.264   0.199  0.8252  0.2556  1.9600
10856TIP3   OH253982   2.144   4.689   0.878 -0.4419 -0.6132  0.5651
10856TIP3    H153983   2.115   4.724   0.794 -0.0129 -0.9683  0.2692
10856TIP3    H253984   2.115   4.754   0.942  0.7426  0.5226 -0.0139
10857TIP3   OH253985   6.462   0.220  15.141 -0.2699 -0.0460  0.1622
10857TIP3    H153986   6.372   0.252  15.153 -0.2800 -0.3231  0.8781
10857TIP3    H253987   6.456   0.126  15.155 -0.0578 -0.2359 -0.9287
10858TIP3   OH253988   2.034   3.635  15.710 -0.1224 -0.2456  0.2008
10858TIP3    H153989   2.022   3.701  15.642  0.6980 -1.2229 -0.9300
10858TIP3    H253990   2.039   3.685  15.791 -1.2138  0.9391 -0.4229
10859TIP3   OH253991   4.594   3.663  15.623  0.1249 -0.5587 -0.8580
10859TIP3    H153992   4.580   3.677  15.716  0.0696  1.4078 -1.1184
10859TIP3    H253993   4.625   3.572  15.616 -2.6564 -1.7302  0.7387
10860TIP3   OH253994   6.163   5.864   0.200  0.1438  0.1144 -0.6784
10860TIP3    H153995   6.129   5.953   0.199 -0.2602  0.0856  1.9431
10860TIP3    H253996   6.086   5.809   0.183  0.5299  0.2089 -3.0730
10861TIP3   OH253997   4.398   0.515  16.809  0.1244  0.4625 -0.0685
10861TIP3    H153998   4.425   0.564  16.887  2.3488 -2.2688  1.0488
10861TIP3    H253999   4.460   0.542  16.741 -0.0302  0.7863 -0.0803
10862TIP3   OH254000   0.432   5.145   3.832 -0.6693 -0.5222  0.4620
10862TIP3    H154001   0.489   5.203   3.781  0.5109 -2.0918 -0.0794
10862TIP3    H254002   0.352   5.140   3.781 -0.1168 -0.7436 -0.4130
10863TIP3   OH254003   3.068   4.026   4.540  0.3306 -0.3585 -0.3688
10863TIP3    H154004   3.065   4.119   4.562  1.3957 -0.4379  0.1774
10863TIP3    H254005   2.987   4.010   4.492  0.5028  1.0229 -1.1507
10864TIP3   OH254006   1.307   4.825   2.533  0.4090 -0.3624 -0.2797
10864TIP3    H154007   1.214   4.847   2.539  0.2723 -0.4705 -1.7655
10864TIP3    H254008   1.349   4.886   2.594 -0.3176  1.8274 -1.8251
10865TIP3   OH254009   3.264   2.271   2.451 -0.3518  0.1942 -0.4084
10865TIP3    H154010   3.247   2.207   2.382 -3.3539  1.3311 -0.8713
10865TIP3    H254011   3.359   2.285   2.448  0.4052 -3.7996 -0.5656
10866TIP3   OH254012   5.575   3.063  15.180  1.0995 -0.3890  0.0947
10866TIP3    H154013   5.567   2.995  15.247 -0.9347 -0.5654 -0.2838
10866TIP3    H254014   5.666   3.058  15.151  1.3485 -1.9790  1.0853
10867TIP3   OH254015   5.633   1.175   2.038 -0.1288 -0.7415  0.7061
10867TIP3    H154016   5.617   1.216   2.123  1.8908  1.4245  0.1482
10867TIP3    H254017   5.549   1.178   1.994 -0.1668  2.8706  0.7644
10868TIP3   OH254018   5.735   6.172   1.668  0.1921 -0.6146 -0.4205
10868TIP3    H154019   5.819   6.175   1.716 -0.1273  0.8891  0.0826
10868TIP3    H254020   5.669   6.167   1.737 -0.2614  1.2647 -0.6702
10869TIP3   OH254021   1.018   1.431   2.359  0.0355 -0.2666  0.0054
10869TIP3    H154022   1.041   1.383   2.280 -0.2538  1.9556 -1.5129
10869TIP3    H254023   0.928   1.404   2.378  0.4881 -1.6604  0.2725
10870TIP3   OH254024   3.733   4.952  10.660 -0.3633  0.3316 -0.2058
10870TIP3    H154025   3.751   4.870  10.614 -1.8923  0.3594 -0.9196
10870TIP3    H254026   3.815   5.002  10.653 -0.1159 -0.2219 -1.7340
10871TIP3   OH254027   5.678   0.360  15.280  0.3044 -0.1755 -0.4270
10871TIP3    H154028   5.626   0.288  15.315  0.0573  0.5199  0.6969
10871TIP3    H254029   5.632   0.387  15.200 -2.4414  1.8517  1.6191
10872TIP3   OH254030   0.301   3.602   0.309 -0.2856 -0.5702 -0.2300
10872TIP3    H154031   0.396   3.613   0.301  0.0778 -3.6191 -1.1771
10872TIP3    H254032   0.265   3.637   0.227  0.3872 -2.2789 -1.3061
10873TIP3   OH254033   5.092   6.194  11.761  0.4129 -0.3278  0.3230
10873TIP3    H154034   5.085   6.105  11.727  1.5423  0.1795 -1.3375
10873TIP3    H254035   5.186   6.213  11.760  0.1553  1.0177  0.2960
10874TIP3   OH254036   0.671   0.442  13.605 -0.0799 -0.3380  1.0222
10874TIP3    H154037   0.658   0.520  13.659 -1.7449 -1.9041  3.0874
10874TIP3    H254038   0.637   0.370  13.659  0.5518 -2.3818 -1.1396
10875TIP3   OH254039   6.633   2.572  14.495  0.2219  0.1511 -0.5184
10875TIP3    H154040   6.566   2.637  14.514  0.9975  0.6187  0.6732
10875TIP3    H254041   6.672   2.601  14.412 -0.6020  0.2310 -0.8826
10876TIP3   OH254042   2.888   6.203   0.011  0.2091  0.1119 -0.6047
10876TIP3    H154043   2.975   6.161   0.007  1.4230  1.3177  4.5499
10876TIP3    H254044   2.905   6.294  -0.011 -0.1332  0.0125 -1.2830
10877TIP3   OH254045   5.798   6.064   0.128 -0.3520 -0.0147 -0.2379
10877TIP3    H154046   5.767   5.985   0.084 -0.3285 -0.3035  0.2611
10877TIP3    H254047   5.754   6.063   0.213  0.0088  0.2658 -0.0474
10878TIP3   OH254048   0.645   5.948  15.411 -0.3242 -0.6335  0.2423
10878TIP3    H154049   0.700   5.888  15.461  1.4995  0.5695 -0.2168
10878TIP3    H254050   0.570   5.895  15.385 -0.6153 -1.6827  2.9410
10879TIP3   OH254051   3.527   6.561   4.355  0.1429  0.1048  0.0611
10879TIP3    H154052   3.619   6.587   4.351 -0.0078  1.1838  2.1047
10879TIP3    H254053   3.510   6.549   4.448 -2.0007  0.7963 -0.1903
10880TIP3   OH254054   0.738   1.145   1.145  0.0766  0.1199  0.2201
10880TIP3    H154055   0.769   1.137   1.055 -0.4118  3.9280 -0.4704
10880TIP3    H254056   0.817   1.141   1.198  1.1003  2.7616 -0.9209
10881TIP3   OH254057   1.870   6.227  10.316  0.1020 -0.2051  0.0242
10881TIP3    H154058   1.875   6.312  10.360 -0.1731 -0.5489  0.7377
10881TIP3    H254059   1.842   6.166  10.385 -1.7704 -0.5095 -0.9554
10882TIP3   OH254060   1.913   2.930   0.549  0.0883 -0.1066 -0.9496
10882TIP3    H154061   1.886   2.991   0.618  1.8383  1.1109 -1.2765
10882TIP3    H254062   1.961   2.861   0.596 -0.1970 -0.1891 -0.7777
10883TIP3   OH254063   5.134   4.606  11.473  0.2436  0.1897 -0.0008
10883TIP3    H154064   5.167   4.535  11.419  1.3717  0.0263  0.8622
10883TIP3    H254065   5.212   4.658  11.494 -0.2909  0.6747  0.8379
10884TIP3   OH254066   4.230   2.267   0.647 -0.4112  0.0868 -0.0771
10884TIP3    H154067   4.229   2.243   0.739 -1.6672 -0.9495 -0.3413
10884TIP3    H254068   4.140   2.253   0.617 -0.3415  1.7180 -1.1371
10885TIP3   OH254069   0.206   6.648  10.936 -0.2490 -0.0381  0.5688
10885TIP3    H154070   0.224   6.646  10.842  0.5276  0.5073  0.6900
10885TIP3    H254071   0.284   6.691  10.974 -1.5231  1.8588  1.2068
10886TIP3   OH254072   0.707   1.466  13.089 -0.2504 -0.2354  0.6954
10886TIP3    H154073   0.633   1.415  13.055 -1.8241  1.7413  0.9634
10886TIP3    H254074   0.668   1.525  13.153  1.2992  1.8491 -0.1603
10887TIP3   OH254075   6.282   5.861   4.700 -0.5144 -0.4318 -0.0127
10887TIP3    H154076   6.323   5.875   4.615  1.1884 -0.7944  0.7035
10887TIP3    H254077   6.287   5.766   4.714  0.2807 -0.2679  0.9558
10888TIP3   OH254078   2.358   0.566   5.540 -0.1764  0.3848  0.5242
10888TIP3    H154079   2.298   0.513   5.592  1.3878 -2.4228 -0.3166
10888TIP3    H254080   2.340   0.543   5.449  1.6191  0.0048  0.2184
10889TIP3   OH254081   1.503   2.658  13.981  0.3572 -0.4451 -0.1649
10889TIP3    H154082   1.551   2.608  13.915 -0.7722 -0.1263 -1.2592
10889TIP3    H254083   1.467   2.733  13.934  0.0303  0.1299  0.9449
10890TIP3   OH254084   6.467   1.781  12.810  0.4373  0.1720  0.4305
10890TIP3    H154085   6.555   1.812  12.788  0.0363  0.8055 -0.3370
10890TIP3    H254086   6.414   1.860  12.814 -0.1065 -0.2051  0.8822
10891TIP3   OH254087   1.386   6.180   3.852 -0.3615 -0.1063  0.0523
10891TIP3    H154088   1.395   6.113   3.919  2.6150 -0.2190 -0.3210
10891TIP3    H254089   1.458   6.241   3.870 -0.2704  0.5353 -2.2268
10892TIP3   OH254090   0.652   6.492   1.414  0.2096 -0.2632  0.8686
10892TIP3    H154091   0.740   6.482   1.377  1.1936 -0.4027  3.1163
10892TIP3    H254092   0.644   6.586   1.432 -0.2642 -0.1993  0.3840
10893TIP3   OH254093   0.466   1.030   1.897 -0.0725 -0.1282  0.0667
10893TIP3    H154094   0.375   1.031   1.869  0.2788 -0.4424 -1.1254
10893TIP3    H254095   0.496   0.941   1.877  0.9362  0.4400 -1.0259
10894TIP3   OH254096   5.728   4.316   0.686 -0.4089  0.3770 -0.2280
10894TIP3    H154097   5.738   4.389   0.624  0.9236 -1.0572 -1.8331
10894TIP3    H254098   5.697   4.243   0.632  1.7896 -1.2212  0.5134
10895TIP3   OH254099   2.443   4.630   4.346  0.5380 -0.1535 -0.6026
10895TIP3    H154100   2.510   4.674   4.294  0.4352  1.3153  0.4360
10895TIP3    H254101   2.479   4.543   4.363  2.7060  0.9227  0.7859
10896TIP3   OH254102   4.991   3.739  14.268  0.3339  0.0678 -0.6161
10896TIP3    H154103   4.908   3.777  14.296  0.4846 -0.0210 -0.0444
10896TIP3    H254104   5.012   3.675  14.335  0.3093 -0.7111 -1.3296
10897TIP3   OH254105   2.676   5.354  14.531  0.2505  0.1725 -0.2094
10897TIP3    H154106   2.581   5.348  14.523  0.0941  1.5583  0.3184
10897TIP3    H254107   2.696   5.444  14.506  1.3038  0.2140  0.7150
10898TIP3   OH254108   5.226   3.665  11.175 -0.1594  0.0697  0.5496
10898TIP3    H154109   5.271   3.633  11.097 -0.9766  1.0756 -0.3629
10898TIP3    H254110   5.294   3.669  11.242  0.1220 -2.9068  0.5685
10899TIP3   OH254111   6.140   4.706   0.841 -0.8117 -0.1267  0.4028
10899TIP3    H154112   6.221   4.684   0.888 -0.7858 -2.5882 -0.6456
10899TIP3    H254113   6.081   4.739   0.910  0.8224  1.1192  1.2816
10900TIP3   OH254114   4.487   4.198  14.984 -0.5886  0.2010 -0.5747
10900TIP3    H154115   4.553   4.150  14.935 -0.8794 -0.7995 -0.0095
10900TIP3    H254116   4.463   4.140  15.057 -3.0359 -0.0487 -1.4739
10901TIP3   OH254117   5.340   6.806  11.773  0.2914 -0.7006  0.0193
10901TIP3    H154118   5.310   6.809  11.682 -0.3347  0.6255  0.2448
10901TIP3    H254119   5.376   6.718  11.783  0.4439 -0.8470 -1.5275
10902TIP3   OH254120   1.021   6.371   3.407 -0.2982 -0.7605  0.2037
10902TIP3    H154121   1.106   6.401   3.439 -0.3244 -1.2832  0.7796
10902TIP3    H254122   0.957   6.422   3.457 -0.3258 -0.2721 -0.3239
10903TIP3   OH254123   0.981   5.082   0.621 -0.2321 -0.1399  0.8532
10903TIP3    H154124   1.040   5.008   0.604  1.1621  0.6101  2.2121
10903TIP3    H254125   1.036   5.147   0.663 -0.8784  2.6055 -2.1804
10904TIP3   OH254126   6.202   4.987  14.632 -0.2607  0.0927 -0.1612
10904TIP3    H154127   6.228   5.079  14.642 -2.8780  0.9584 -0.4987
10904TIP3    H254128   6.114   4.983  14.670 -0.7134 -1.9972 -1.2747
10905TIP3   OH254129   2.322   5.064  13.070 -0.3710  0.3621 -0.0999
10905TIP3    H154130   2.328   4.969  13.073 -0.3940  0.3436 -0.5668
10905TIP3    H254131   2.412   5.094  13.059 -0.0422  0.5144  2.4330
10906TIP3   OH254132   5.161   1.971  14.851  0.3743 -0.1401 -0.4683
10906TIP3    H154133   5.200   1.884  14.860  1.9638  0.2957 -2.3680
10906TIP3    H254134   5.087   1.959  14.792 -1.4703 -0.6802  1.8168
10907TIP3   OH254135   2.894   2.570  16.239 -0.0881  0.5409 -0.6360
10907TIP3    H154136   2.834   2.620  16.184 -1.4631  0.2774  0.5603
10907TIP3    H254137   2.878   2.479  16.215  0.6109  0.5140 -1.0422
10908TIP3   OH254138   1.918   1.961   0.110  0.1374 -0.1748  0.3764
10908TIP3    H154139   1.994   1.905   0.114 -0.9284 -1.8937 -1.4058
10908TIP3    H254140   1.849   1.913   0.157 -0.5115  0.0989 -0.2622
10909TIP3   OH254141   4.690   3.302   5.617  0.1389 -0.2828  1.0266
10909TIP3    H154142   4.776   3.333   5.588 -0.1509  0.9361  1.3941
10909TIP3    H254143   4.627   3.351   5.563 -0.3504  0.1036  1.9287
10910TIP3   OH254144   5.512   3.087   5.823 -0.4854 -0.0664  0.2309
10910TIP3    H154145   5.529   3.132   5.906 -0.0546  0.2899 -0.0454
10910TIP3    H254146   5.469   3.153   5.769 -0.8029 -0.3114  0.1788
10911TIP3   OH254147   6.474   1.961   5.599  0.4650  0.5107  0.4557
10911TIP3    H154148   6.510   1.905   5.530  1.5659  2.0344 -0.2766
10911TIP3    H254149   6.431   1.900   5.660 -1.4542 -0.8250 -2.0399
10912TIP3   OH254150   1.475   3.611   3.483  0.1854 -0.5245  0.1345
10912TIP3    H154151   1.472   3.707   3.477  0.4714 -0.4842  0.5742
10912TIP3    H254152   1.384   3.584   3.479  0.0947 -0.2272  0.1412
10913TIP3   OH254153   1.925   3.988  13.815 -0.5468 -0.2378 -0.0834
10913TIP3    H154154   1.962   3.968  13.729 -0.7081  0.4404 -0.3219
10913TIP3    H254155   1.925   3.905  13.862 -0.5313 -0.6297 -0.7691
10914TIP3   OH254156   3.373   0.415  11.979 -0.2116 -0.5284  0.0058
10914TIP3    H154157   3.289   0.417  12.026 -1.1282  1.6906 -1.5598
10914TIP3    H254158   3.362   0.345  11.914 -1.9407  1.3313 -1.8693
10915TIP3   OH254159   1.225   2.593   0.343  0.1623 -0.1220  0.2634
10915TIP3    H154160   1.289   2.584   0.413 -1.7216  1.6385  2.3882
10915TIP3    H254161   1.263   2.658   0.283  1.0304 -0.2837  0.6338
10916TIP3   OH254162   6.122   0.188  16.893  0.4724  0.0510  0.4986
10916TIP3    H154163   6.087   0.100  16.889  0.9848 -0.1364 -0.0103
10916TIP3    H254164   6.046   0.244  16.911 -0.0461 -0.3623 -0.3500
10917TIP3   OH254165   6.744   5.288   1.675  0.4234  0.1770  0.2363
10917TIP3    H154166   6.736   5.368   1.624  0.2023 -0.4448 -0.7371
10917TIP3    H254167   6.799   5.312   1.749 -0.9161  1.6023  0.7962
10918TIP3   OH254168   0.672   2.434  10.541 -0.1650 -0.1952 -0.7369
10918TIP3    H154169   0.618   2.357  10.558 -1.8872  1.1018 -0.1078
10918TIP3    H254170   0.654   2.456  10.450 -1.9790  1.1228 -0.1196
10919TIP3   OH254171   4.952   4.421   2.342  0.0146  0.1613  0.2417
10919TIP3    H154172   4.913   4.341   2.379 -1.6986  1.2457  0.8974
10919TIP3    H254173   4.881   4.485   2.343  1.7217  2.1579  1.1576
10920TIP3   OH254174   4.190   4.020   1.571 -0.0621 -0.5975 -0.6901
10920TIP3    H154175   4.207   4.108   1.605  0.0413 -0.7952 -0.2099
10920TIP3    H254176   4.096   4.019   1.552 -0.1155 -0.4663 -0.4410
10921TIP3   OH254177   3.554   2.329  11.784 -0.3088 -0.1142  0.5950
10921TIP3    H154178   3.476   2.384  11.790  0.5309  1.0706  1.1723
10921TIP3    H254179   3.589   2.326  11.873  0.2532 -0.6859  0.3671
10922TIP3   OH254180   2.125   3.812   3.259  0.0440 -0.3372  0.1754
10922TIP3    H154181   2.062   3.865   3.308  1.3707  1.1352  0.3525
10922TIP3    H254182   2.175   3.765   3.326 -0.7802 -1.4566  0.0369
10923TIP3   OH254183   1.750   0.619   1.375  0.5287 -0.2701  0.1056
10923TIP3    H154184   1.740   0.712   1.395 -1.3192 -0.5683  0.7618
10923TIP3    H254185   1.687   0.602   1.306  2.3531 -0.6329 -1.5580
10924TIP3   OH254186   1.874   2.806   1.201 -0.2074 -0.4321 -0.3777
10924TIP3    H154187   1.853   2.736   1.139 -2.9670  0.2644 -0.3425
10924TIP3    H254188   1.818   2.790   1.277 -0.9309  1.7743 -0.3669
10925TIP3   OH254189   1.940   5.318   3.559  0.5689  0.1960  0.0481
10925TIP3    H154190   1.925   5.364   3.641  0.2147  0.2082 -0.0218
10925TIP3    H254191   1.935   5.386   3.492  2.0592  0.3957  0.1092
10926TIP3   OH254192   4.098   0.042  13.858  0.7597  0.0368  0.5429
10926TIP3    H154193   4.166   0.106  13.838 -0.4274  1.5559  1.0879
10926TIP3    H254194   4.018   0.081  13.823  0.0636 -1.3890  0.4892
10927TIP3   OH254195   1.187   3.358   3.572  0.2011  0.4266  0.2571
10927TIP3    H154196   1.183   3.446   3.533 -1.1866  1.1012  1.8343
10927TIP3    H254197   1.098   3.324   3.564  0.4621 -0.3755  0.6872
10928TIP3   OH254198   6.009   2.573   2.686  0.1559  0.3244  0.2791
10928TIP3    H154199   5.955   2.636   2.640  0.0945 -0.9256 -1.4930
10928TIP3    H254200   5.968   2.562   2.771 -1.3935  0.6672 -0.3947
10929TIP3   OH254201   6.679   0.620  16.004 -0.2657  0.0101  0.5507
10929TIP3    H154202   6.737   0.615  15.928 -0.0563 -0.1569  0.7188
10929TIP3    H254203   6.609   0.680  15.977 -0.3357 -0.2528  0.1336
10930TIP3   OH254204   1.283   6.255   1.062 -0.6538  0.2478  0.2943
10930TIP3    H154205   1.341   6.276   0.989 -0.8653 -0.2293 -0.0146
10930TIP3    H254206   1.342   6.227   1.132 -0.4988 -0.0997  0.0284
10931TIP3   OH254207   3.904   4.123  16.743 -0.1711  0.0874 -0.4971
10931TIP3    H154208   3.937   4.175  16.816  0.3215  1.2652 -1.5162
10931TIP3    H254209   3.826   4.170  16.713  0.4048  0.3809 -1.5710
10932TIP3   OH254210   5.915   0.905   0.200  0.1512 -0.3845  0.6605
10932TIP3    H154211   5.921   0.843   0.273  2.0620 -1.0163  0.0377
10932TIP3    H254212   5.934   0.853   0.122 -0.6572  0.5218 -0.1702
10933TIP3   OH254213   3.571   0.039   3.568  0.6701 -0.4591  0.4687
10933TIP3    H154214   3.651   0.076   3.605 -1.1872  2.9547  1.4870
10933TIP3    H254215   3.530  -0.007   3.642  0.4446  0.1069  0.7036
10934TIP3   OH254216   4.361   0.239   3.192  0.2680 -0.2015  0.3267
10934TIP3    H154217   4.399   0.160   3.152  0.9346  1.4825 -2.6421
10934TIP3    H254218   4.434   0.299   3.200 -0.7568  1.2500 -0.5954
10935TIP3   OH254219   0.738   0.982   3.587 -0.5238  0.0246 -0.4053
10935TIP3    H154220   0.761   0.959   3.497 -1.4438 -0.6277 -0.4959
10935TIP3    H254221   0.771   0.909   3.640  1.4790  1.1809  0.0140
10936TIP3   OH254222   1.007   0.532  11.594  0.2808 -0.0970 -0.3434
10936TIP3    H154223   1.086   0.584  11.609  1.7976 -2.5615  0.8074
10936TIP3    H254224   0.997   0.531  11.499  3.0166 -1.5457 -0.7200
10937TIP3   OH254225   1.492   4.889   4.483  0.2994 -0.6194  0.4211
10937TIP3    H154226   1.482   4.844   4.400  0.4303 -0.7004  0.4487
10937TIP3    H254227   1.540   4.827   4.539  1.5054 -0.0167  0.0929
10938TIP3   OH254228   1.184   5.874  11.949  0.7822  0.0416  0.0634
10938TIP3    H154229   1.135   5.923  12.015 -0.9068 -1.1209 -0.2577
10938TIP3    H254230   1.181   5.929  11.871  0.8097  0.4038  0.3140
10939TIP3   OH254231   5.181   4.532   1.691 -0.3389 -0.3600  0.5729
10939TIP3    H154232   5.091   4.499   1.698 -0.6260  0.6451  2.0883
10939TIP3    H254233   5.179   4.593   1.618 -1.0889  0.2107  1.0584
10940TIP3   OH254234   2.070   1.021  15.745  0.6380  0.1415  0.4046
10940TIP3    H154235   2.084   0.964  15.669 -0.1551 -0.0033  0.3560
10940TIP3    H254236   2.114   1.103  15.722  0.9538 -0.1248  0.0580
10941TIP3   OH254237   3.256   2.853  11.523  0.5329  0.1904 -0.4479
10941TIP3    H154238   3.233   2.872  11.432 -0.7173  1.1042  0.0325
10941TIP3    H254239   3.184   2.798  11.556  0.5523  0.5539  0.2260
10942TIP3   OH254240   6.497   5.924  11.961  0.1866  0.2815 -0.3865
10942TIP3    H154241   6.455   5.993  11.909 -0.9323 -0.2067 -0.1728
10942TIP3    H254242   6.489   5.955  12.051  0.9013  0.4936 -0.3927
10943TIP3   OH254243   0.987   6.201   4.339 -0.5930 -0.7104 -0.2858
10943TIP3    H154244   0.905   6.247   4.321  0.3840  1.7958  1.1350
10943TIP3    H254245   1.003   6.149   4.261 -2.4174  0.4731 -1.5280
10944TIP3   OH254246   5.621   2.465   3.942 -0.3533  0.1785  0.1600
10944TIP3    H154247   5.715   2.459   3.929 -0.2784  1.6952 -0.2479
10944TIP3    H254248   5.587   2.496   3.858 -1.5455 -2.5817 -0.4874
10945TIP3   OH254249   6.310   5.786  16.825  0.2802  0.1035 -0.1249
10945TIP3    H154250   6.405   5.781  16.825  0.3851  1.6074 -1.1040
10945TIP3    H254251   6.286   5.783  16.918  1.3986  1.3874  0.2353
10946TIP3   OH254252   4.969   6.707  15.785  0.2194  0.6761  0.4615
10946TIP3    H154253   5.013   6.628  15.816 -0.3944 -0.7485 -2.0051
10946TIP3    H254254   4.973   6.700  15.690 -1.3679  2.7694  0.1870
10947TIP3   OH254255   4.169   1.660  14.075  1.0368  0.0382 -0.3887
10947TIP3    H154256   4.104   1.668  14.145  1.4868  0.6085 -0.0254
10947TIP3    H254257   4.139   1.721  14.008  0.1567 -1.1005 -1.0756
10948TIP3   OH254258   2.076   0.546  13.051 -0.0233  0.1270 -0.0503
10948TIP3    H154259   2.142   0.614  13.064 -0.6330  0.8275 -0.5244
10948TIP3    H254260   2.049   0.557  12.960 -0.4757 -0.4396  0.0151
10949TIP3   OH254261   1.091   3.553  16.917 -0.3547 -0.4838  0.1703
10949TIP3    H154262   1.150   3.620  16.884  0.0120 -0.8028  0.1721
10949TIP3    H254263   1.131   3.523  16.999 -1.3422  0.4298  1.0327
10950TIP3   OH254264   6.208   2.919  14.331 -0.6887 -0.4574  0.0982
10950TIP3    H154265   6.302   2.907  14.318 -0.5033  1.3407 -0.5124
10950TIP3    H254266   6.178   2.960  14.250 -1.8395 -0.2471  0.6163
10951TIP3   OH254267   1.310   2.199   3.643 -0.5649  0.5131  0.2343
10951TIP3    H154268   1.362   2.254   3.584  0.2921  0.3868  0.8420
10951TIP3    H254269   1.333   2.231   3.730  1.7369 -2.2220  0.7804
10952TIP3   OH254270   1.560   0.696  13.020 -0.3196 -0.2750  0.5911
10952TIP3    H154271   1.615   0.765  12.983 -1.1038  0.9201  1.5935
10952TIP3    H254272   1.591   0.616  12.977  0.6531  0.6684 -0.5521
10953TIP3   OH254273   0.954   4.574   3.489  0.1311 -0.1581  0.5742
10953TIP3    H154274   0.888   4.614   3.433 -1.1738 -0.8795  1.5447
10953TIP3    H254275   1.037   4.594   3.446 -0.8200 -1.0713 -1.8311
10954TIP3   OH254276   6.576   5.226  13.930  0.3287 -0.3653 -0.6474
10954TIP3    H154277   6.670   5.235  13.944  0.4284  0.4212 -1.6739
10954TIP3    H254278   6.536   5.275  14.002  0.7203 -0.2483 -0.5077
10955TIP3   OH254279   5.039   4.142  15.655 -0.2819  0.7175  0.6957
10955TIP3    H154280   4.970   4.123  15.718 -0.3171  0.7725  0.6734
10955TIP3    H254281   5.099   4.067  15.662 -0.8949  0.1415 -0.0404
10956TIP3   OH254282   4.251   0.549  15.169 -0.6262  0.1230 -0.4934
10956TIP3    H154283   4.287   0.539  15.081 -2.0863  0.1612 -1.1245
10956TIP3    H254284   4.318   0.510  15.227  0.3305  0.0564 -1.6052
10957TIP3   OH254285   2.905   3.275  12.440 -0.6236 -0.0734 -0.3555
10957TIP3    H154286   2.964   3.201  12.453  0.8721  1.2604  0.8868
10957TIP3    H254287   2.818   3.239  12.454  0.0866 -1.5185  0.6158
10958TIP3   OH254288   0.617   1.985  14.330  1.3266  0.1117 -0.8066
10958TIP3    H154289   0.567   2.026  14.401  1.2925  0.7107 -1.1677
10958TIP3    H254290   0.554   1.974  14.259  1.0578 -1.6105 -0.3431
10959TIP3   OH254291   0.363   3.800  15.151  0.0433  0.5600 -0.6759
10959TIP3    H154292   0.320   3.832  15.072 -0.7487  1.1021 -0.0395
10959TIP3    H254293   0.316   3.841  15.223 -0.0610 -0.8961  0.1353
10960TIP3   OH254294   4.243   4.084  12.541  0.0194 -0.2020  0.1233
10960TIP3    H154295   4.234   4.028  12.618  0.6762  1.0183  1.1243
10960TIP3    H254296   4.194   4.038  12.473 -1.7568 -0.6540  1.6126
10961TIP3   OH254297   0.383   3.073  13.912  0.2136  0.1381 -0.0597
10961TIP3    H154298   0.416   3.121  13.988  1.4229  0.2562 -0.6288
10961TIP3    H254299   0.400   3.131  13.837 -1.6685  0.3665 -0.3758
10962TIP3   OH254300   6.125   1.099  11.348  0.2259  0.5136 -0.2770
10962TIP3    H154301   6.080   1.031  11.399 -1.1983  1.9526  0.4882
10962TIP3    H254302   6.156   1.054  11.270  1.3608 -1.4891  1.2538
10963TIP3   OH254303   5.891   2.394  14.176  0.0687 -0.1109 -0.5657
10963TIP3    H154304   5.893   2.309  14.133 -0.4107  0.1053 -1.0275
10963TIP3    H254305   5.908   2.375  14.268 -2.7383 -1.0439 -0.1595
10964TIP3   OH254306   1.324   4.337  16.335  0.2431  0.0537 -0.0829
10964TIP3    H154307   1.259   4.281  16.291  0.4389 -2.6905  2.7002
10964TIP3    H254308   1.282   4.423  16.340 -1.4162 -0.5623 -1.9093
10965TIP3   OH254309   5.046   3.433   3.481 -0.1295 -0.1483  0.5224
10965TIP3    H154310   5.066   3.341   3.461  2.8073 -0.0820  2.5092
10965TIP3    H254311   4.960   3.430   3.521 -0.6068 -1.8527 -0.4931
10966TIP3   OH254312   6.737   0.183   0.961  0.6180  0.2368  0.1351
10966TIP3    H154313   6.799   0.119   0.927  0.8073  0.7344 -0.4874
10966TIP3    H254314   6.709   0.233   0.884 -0.6177 -0.0206  0.3876
10967TIP3   OH254315   3.655   4.490  15.351  0.7265  0.5944  0.6732
10967TIP3    H154316   3.631   4.489  15.444 -1.5825 -3.8089  0.3071
10967TIP3    H254317   3.576   4.523  15.307  2.0936  3.4654  0.1544
10968TIP3   OH254318   5.165   1.153   0.881 -0.0692 -0.2907  0.5337
10968TIP3    H154319   5.139   1.207   0.806 -1.0882  0.5646  1.4542
10968TIP3    H254320   5.147   1.209   0.957  1.1283 -1.0573  1.4056
10969TIP3   OH254321   6.074   5.818   0.665  0.5928  0.4718 -0.3700
10969TIP3    H154322   6.017   5.743   0.651  2.2462 -0.8797 -0.1169
10969TIP3    H254323   6.100   5.813   0.757  0.8200  1.2783 -0.3788
10970TIP3   OH254324   4.222   4.786  13.933 -0.6139 -0.0727 -0.4394
10970TIP3    H154325   4.160   4.748  13.871 -1.5027  1.9811 -0.9059
10970TIP3    H254326   4.180   4.778  14.018  0.7614 -3.2191  0.0826
10971TIP3   OH254327   2.447   0.192  13.018 -0.1833 -0.0790 -0.0971
10971TIP3    H154328   2.520   0.132  13.002 -1.2393 -1.7861  1.1447
10971TIP3    H254329   2.372   0.150  12.976 -0.7634  0.8969 -0.0625
10972TIP3   OH254330   5.569   4.448  15.902  0.3026  0.0669  0.4631
10972TIP3    H154331   5.602   4.360  15.881  0.9699  0.4557 -0.1646
10972TIP3    H254332   5.485   4.453  15.856 -0.4236 -0.7443  1.6531
10973TIP3   OH254333   2.394   2.866   5.228 -0.1113 -0.5024  0.5365
10973TIP3    H154334   2.330   2.797   5.208  0.6531 -2.0603  3.0211
10973TIP3    H254335   2.467   2.849   5.169 -0.5388 -0.9068  0.1155
10974TIP3   OH254336   4.028   4.792  16.190 -0.1109 -0.6206  0.2309
10974TIP3    H154337   3.951   4.738  16.210  0.9039 -2.9003 -1.5643
10974TIP3    H254338   3.992   4.871  16.150 -1.5590 -1.5238 -0.3470
10975TIP3   OH254339   5.293   4.642   5.532 -0.2916  0.2797 -0.8624
10975TIP3    H154340   5.249   4.591   5.599 -2.0842  0.6738 -1.6980
10975TIP3    H254341   5.321   4.722   5.576  0.0423 -0.1787 -0.2226
10976TIP3   OH254342   2.327   3.538  13.122 -0.0169  0.1183  0.3034
10976TIP3    H154343   2.390   3.586  13.176 -0.8577  0.1740  1.2958
10976TIP3    H254344   2.367   3.453  13.107 -0.6125 -0.7148  2.8838
10977TIP3   OH254345   1.567   3.727   0.165  0.3958  0.4997  0.6951
10977TIP3    H154346   1.606   3.812   0.186  0.2186  0.9432 -0.6545
10977TIP3    H254347   1.621   3.693   0.094 -1.2442  0.8531 -0.7957
10978TIP3   OH254348   5.257   3.643  13.498  0.0798 -0.3408 -0.2658
10978TIP3    H154349   5.271   3.718  13.440 -2.6644 -1.0810 -2.0826
10978TIP3    H254350   5.337   3.592  13.490  2.8021  3.0141  2.3578
10979TIP3   OH254351   3.147   4.001  13.818  0.0158 -0.2782 -0.3436
10979TIP3    H154352   3.214   4.017  13.884  1.5652 -0.4135 -1.8059
10979TIP3    H254353   3.132   3.906  13.821 -1.2523 -0.0645  0.9985
10980TIP3   OH254354   0.760   2.872   1.317 -0.6292 -0.0576  0.2871
10980TIP3    H154355   0.718   2.788   1.338 -0.6177 -0.1337  0.0143
10980TIP3    H254356   0.843   2.848   1.277  0.8290  0.0870  2.9990
10981TIP3   OH254357   0.508   4.611  16.629 -0.6758  0.2293  0.0211
10981TIP3    H154358   0.526   4.517  16.626 -0.1773  0.3244 -2.7223
10981TIP3    H254359   0.533   4.642  16.542 -0.0329  3.0751  1.1381
10982TIP3   OH254360   0.160   2.215  16.395 -0.5075 -0.2389  0.6379
10982TIP3    H154361   0.218   2.291  16.408 -0.7105  0.5149 -2.1584
10982TIP3    H254362   0.220   2.141  16.389 -0.0732  0.1014  0.6900
10983TIP3   OH254363   0.866   0.692   5.655 -0.2224  0.1630 -0.2962
10983TIP3    H154364   0.811   0.640   5.714  0.4787 -1.0821 -0.7059
10983TIP3    H254365   0.878   0.636   5.578  1.0778  0.6707 -0.4829
10984TIP3   OH254366   2.004   3.817   4.017 -0.1398  0.5965 -0.0785
10984TIP3    H154367   1.959   3.757   4.076  0.5950  0.3431  0.2363
10984TIP3    H254368   1.961   3.901   4.030 -0.0855  0.5095  0.7123
10985TIP3   OH254369   3.756   1.473  16.161 -0.5845  0.0313 -0.1807
10985TIP3    H154370   3.847   1.496  16.142 -1.1152  2.3737 -0.1783
10985TIP3    H254371   3.746   1.385  16.125  1.3979  0.1230 -1.1041
10986TIP3   OH254372   4.709   0.958   0.377  0.5162  0.3137  0.1023
10986TIP3    H154373   4.777   0.965   0.310  0.7419 -0.8293  0.1851
10986TIP3    H254374   4.747   1.000   0.454  0.8841  0.2346 -0.0344
10987TIP3   OH254375   6.058   4.119  11.968 -0.1694  0.2213 -0.1275
10987TIP3    H154376   6.092   4.204  11.941  0.4536  0.1256  0.3131
10987TIP3    H254377   6.051   4.068  11.888  2.9277 -0.5233 -0.0544
10988TIP3   OH254378   0.497   2.588   0.842 -0.0006 -0.1177  0.9103
10988TIP3    H154379   0.518   2.673   0.802 -0.9273  0.4997  1.6741
10988TIP3    H254380   0.460   2.611   0.928 -0.6709 -1.2776  0.9541
10989TIP3   OH254381   1.798   2.178   2.575 -0.2367 -0.2704 -0.8449
10989TIP3    H154382   1.705   2.169   2.556 -0.3782  0.3902 -0.5024
10989TIP3    H254383   1.802   2.201   2.668  0.0621  2.8150 -1.5075
10990TIP3   OH254384   3.581   1.231  13.917 -0.0815  0.6071  0.3803
10990TIP3    H154385   3.601   1.232  14.011 -0.7281 -0.3700  0.5417
10990TIP3    H254386   3.645   1.171  13.880  1.7755  2.8108 -0.2312
10991TIP3   OH254387   6.361   4.994   3.801 -0.5160 -0.2183 -0.6034
10991TIP3    H154388   6.331   5.046   3.876  0.1740 -2.6209  1.4890
10991TIP3    H254389   6.326   5.040   3.725 -0.1556  3.1291  1.0358
10992TIP3   OH254390   1.107   1.717   2.707 -0.3843 -0.4864  0.0765
10992TIP3    H154391   1.189   1.709   2.757  0.2136  0.2375 -0.7490
10992TIP3    H254392   1.121   1.663   2.629 -1.3302 -1.6446  0.6739
10993TIP3   OH254393   4.179   4.375  14.884 -0.4313  0.2913 -0.5047
10993TIP3    H154394   4.166   4.341  14.972 -0.0886 -1.7717 -1.1915
10993TIP3    H254395   4.274   4.389  14.878 -0.4384  0.3041 -0.5884
10994TIP3   OH254396   2.237   4.454  15.364  0.6308  0.3988 -0.2317
10994TIP3    H154397   2.190   4.474  15.283 -0.8511 -0.0427  0.4830
10994TIP3    H254398   2.262   4.539  15.399  1.3870  0.5894 -1.1895
10995TIP3   OH254399   1.978   0.594   1.590 -0.3959  0.0213  0.1358
10995TIP3    H154400   2.032   0.632   1.521 -0.3558  1.0620  0.7175
10995TIP3    H254401   2.032   0.601   1.669 -1.4321  1.2759  0.7708
10996TIP3   OH254402   2.260   1.554  11.417  0.7064 -1.2840  0.0555
10996TIP3    H154403   2.221   1.539  11.503 -1.7264 -0.7346 -0.8546
10996TIP3    H254404   2.250   1.470  11.372  0.0664 -0.9991 -0.3503
10997TIP3   OH254405   2.039   4.955  15.565 -0.6194 -0.4169 -0.0922
10997TIP3    H154406   2.062   5.005  15.643 -1.7586 -0.9849  0.6380
10997TIP3    H254407   1.993   5.017  15.509 -1.2079 -0.3981  0.4007
10998TIP3   OH254408   0.059   0.925   5.982  0.0171 -0.0678 -0.1717
10998TIP3    H154409  -0.015   0.948   6.038 -0.0043  0.4758 -0.4178
10998TIP3    H254410   0.027   0.938   5.893  0.5191  0.5094 -0.2710
10999TIP3   OH254411   2.891   0.043   4.556  0.3230  0.2417  0.1663
10999TIP3    H154412   2.870   0.110   4.491 -1.3553 -0.4794 -0.0577
10999TIP3    H254413   2.897   0.092   4.638 -0.1071  0.7839 -0.1139
11000TIP3   OH254414   0.526   2.663  13.340 -0.1636  0.6151  0.2291
11000TIP3    H154415   0.478   2.647  13.422 -0.3838 -0.0443 -0.0213
11000TIP3    H254416   0.617   2.643  13.361 -0.1722  0.7587  0.4018
11001TIP3   OH254417   3.382   6.342  11.490 -0.1777 -0.1109  0.7513
11001TIP3    H154418   3.386   6.290  11.410  1.8275 -0.0219  0.7569
11001TIP3    H254419   3.289   6.342  11.514 -0.6901 -0.8353 -1.0983
11002TIP3   OH254420   3.934   4.539   0.794  0.5195  0.0103  0.4429
11002TIP3    H154421   3.960   4.620   0.838  0.5556  1.1260 -1.5105
11002TIP3    H254422   3.865   4.566   0.734 -0.8486 -1.8007  1.1348
11003TIP3   OH254423   2.359   4.160   4.342  0.1603  0.1442 -0.4680
11003TIP3    H154424   2.343   4.092   4.276  1.4513 -1.2310  0.5620
11003TIP3    H254425   2.301   4.137   4.414 -0.1009  0.7287 -0.4819
11004TIP3   OH254426   2.731   5.213  11.480  0.0441 -0.0214  0.5771
11004TIP3    H154427   2.717   5.276  11.550 -2.5064 -0.6683  0.7531
11004TIP3    H254428   2.730   5.266  11.400  0.9973  0.4767  0.8749
11005TIP3   OH254429   4.630   5.815   3.816 -0.2195 -0.5980 -0.4040
11005TIP3    H154430   4.631   5.895   3.763 -2.3771 -1.5230 -1.9556
11005TIP3    H254431   4.582   5.839   3.896  0.7630  0.1038 -0.0002
11006TIP3   OH254432   0.471   6.345   5.848 -0.3560 -0.2896  0.3277
11006TIP3    H154433   0.489   6.428   5.804  2.2304 -1.5339 -1.2040
11006TIP3    H254434   0.395   6.310   5.803 -0.5074  0.5252 -0.0767
11007TIP3   OH254435   2.295   4.741  11.391  0.0982  0.2711  0.0024
11007TIP3    H154436   2.247   4.658  11.395 -0.4014  0.4218 -1.9300
11007TIP3    H254437   2.246   4.798  11.450  0.2014 -0.6646  1.0348
11008TIP3   OH254438   6.391   5.186  16.623 -0.2947  0.0877 -0.1481
11008TIP3    H154439   6.309   5.190  16.672  0.2108 -0.5042  0.7768
11008TIP3    H254440   6.364   5.173  16.532 -1.2361  0.6899  0.0306
11009TIP3   OH254441   0.651   3.806   1.644 -1.0889  0.0162 -0.2052
11009TIP3    H154442   0.693   3.751   1.578 -1.7111 -1.8786  0.9188
11009TIP3    H254443   0.722   3.862   1.676 -0.1754 -0.8689 -0.6317
11010TIP3   OH254444   4.900   6.303   0.374  0.1147  0.7529 -0.2090
11010TIP3    H154445   4.823   6.250   0.353  1.7798 -1.6311 -0.7138
11010TIP3    H254446   4.974   6.254   0.338  2.0492  2.1780  1.5503
11011TIP3   OH254447   4.070   5.295  11.218  0.6171 -0.5668 -0.0425
11011TIP3    H154448   4.002   5.281  11.151  0.9271  0.4021 -0.5764
11011TIP3    H254449   4.101   5.207  11.238 -1.2104 -1.1054  0.6785
11012TIP3   OH254450   5.446   1.242  12.602  0.3323  0.3204  0.1242
11012TIP3    H154451   5.364   1.238  12.553  0.0289  0.8952  0.5670
11012TIP3    H254452   5.486   1.325  12.575  0.9159 -0.0940 -0.3095
11013TIP3   OH254453   5.220   3.026   5.755  0.3199  0.5817 -0.0026
11013TIP3    H154454   5.302   3.000   5.713 -0.8295 -1.3331 -1.1742
11013TIP3    H254455   5.199   2.955   5.815 -1.3813  0.0991 -1.0789
11014TIP3   OH254456   3.591   2.932   1.333 -0.2372  0.2582  0.6074
11014TIP3    H154457   3.627   2.881   1.406  1.9033  0.3835 -0.2998
11014TIP3    H254458   3.664   2.984   1.301 -0.7817 -0.5959 -2.3540
11015TIP3   OH254459   0.886   3.312   5.054 -0.5557  0.0062  0.1954
11015TIP3    H154460   0.899   3.310   5.149 -1.7131 -0.7759  0.3577
11015TIP3    H254461   0.862   3.403   5.036  0.2992  0.3149  0.5513
11016TIP3   OH254462   4.836   3.716  11.636 -0.1961  0.0142  0.0820
11016TIP3    H154463   4.809   3.806  11.651 -0.2786 -0.2269  1.4870
11016TIP3    H254464   4.919   3.707  11.683 -0.1569 -0.6287 -0.0968
11017TIP3   OH254465   3.235   5.815  14.454 -0.5209  0.3010 -0.0964
11017TIP3    H154466   3.251   5.905  14.482  0.9324 -0.0626  0.3612
11017TIP3    H254467   3.248   5.762  14.533  1.5135 -0.5413 -0.9005
11018TIP3   OH254468   5.430   0.572   1.809 -0.0568  0.1564 -0.1505
11018TIP3    H154469   5.517   0.539   1.790 -1.0947 -1.4628 -2.4074
11018TIP3    H254470   5.416   0.550   1.901  0.9264 -1.9275 -0.4550
11019TIP3   OH254471   0.688   6.557  13.341  0.0577  0.2571  0.4483
11019TIP3    H154472   0.684   6.462  13.353 -0.8199  0.4204  1.6428
11019TIP3    H254473   0.640   6.574  13.260  1.9153 -0.4744 -0.8577
11020TIP3   OH254474   4.457   3.958  16.725  0.4823 -0.0806  0.2817
11020TIP3    H154475   4.506   3.884  16.760  0.5737  0.0276  0.3792
11020TIP3    H254476   4.500   4.035  16.762  0.9758  0.0602 -0.5564
11021TIP3   OH254477   2.999   0.649  16.459  0.7516 -0.1036 -0.5796
11021TIP3    H154478   2.971   0.622  16.546  3.3126 -1.4386 -0.0514
11021TIP3    H254479   2.941   0.603  16.399  0.1825 -0.7172  0.4150
11022TIP3   OH254480   1.498   2.794   2.138  0.2799  1.1519 -0.2410
11022TIP3    H154481   1.419   2.743   2.118  0.3158  0.5199  1.1248
11022TIP3    H254482   1.474   2.846   2.215  1.0771  1.2307 -0.0404
11023TIP3   OH254483   6.285   1.438  12.150  0.1025 -0.1155  0.2640
11023TIP3    H154484   6.211   1.451  12.091  1.0959  1.2461 -0.7182
11023TIP3    H254485   6.244   1.407  12.232 -1.4727 -0.0600 -0.4590
11024TIP3   OH254486   4.826   2.294  13.481  0.2033 -0.5384 -0.0635
11024TIP3    H154487   4.809   2.322  13.391  1.5643 -0.9950 -0.4717
11024TIP3    H254488   4.762   2.225  13.497 -1.5581  1.0547  0.1165
11025TIP3   OH254489   1.494   2.198  11.321 -0.0485 -0.2180  0.4340
11025TIP3    H154490   1.567   2.210  11.260  0.4006 -0.4406  0.9216
11025TIP3    H254491   1.495   2.276  11.376  0.7638 -0.8755  1.4043
11026TIP3   OH254492   4.221   6.638  10.315  0.0934 -0.3320  0.2624
11026TIP3    H154493   4.198   6.617  10.406  1.1346 -0.9941  0.3936
11026TIP3    H254494   4.204   6.557  10.267  0.4908 -0.2986  0.0604
11027TIP3   OH254495   2.226   1.686   1.771 -0.2466 -0.2475  0.1571
11027TIP3    H154496   2.222   1.594   1.745 -3.4260  0.0461 -0.7872
11027TIP3    H254497   2.262   1.732   1.695 -0.5623 -0.4760 -0.1281
11028TIP3   OH254498   0.890   1.214  16.283 -0.6991  0.2620 -0.0292
11028TIP3    H154499   0.897   1.132  16.233  1.7168 -1.5440  2.9211
11028TIP3    H254500   0.822   1.196  16.349  0.2607  0.3474  1.0104
11029TIP3   OH254501   0.461   4.797   0.595  0.0716  0.0756 -0.1982
11029TIP3    H154502   0.471   4.827   0.505 -0.2405 -1.1547 -0.6720
11029TIP3    H254503   0.535   4.737   0.609 -0.0007  0.0939  0.2847
11030TIP3   OH254504   5.832   5.691  16.390  0.0576  0.6853 -0.3232
11030TIP3    H154505   5.739   5.689  16.410  0.2094 -1.7597  0.5639
11030TIP3    H254506   5.860   5.781  16.409 -2.2310  1.7088 -1.4623
11031TIP3   OH254507   4.158   1.860  14.638 -0.0891  0.4812 -0.0928
11031TIP3    H154508   4.126   1.927  14.698 -0.4013  1.1637 -0.9976
11031TIP3    H254509   4.178   1.785  14.694 -0.5870  1.0178  0.8268
11032TIP3   OH254510   1.397   6.308  15.661  0.2494  0.5348 -0.1612
11032TIP3    H154511   1.469   6.249  15.636  0.6144  0.7783  0.2963
11032TIP3    H254512   1.346   6.258  15.724  0.1263  0.4274 -0.3478
11033TIP3   OH254513   5.862   2.018   3.788 -0.4894 -0.0686  0.4575
11033TIP3    H154514   5.906   2.091   3.743  0.9753  0.8995  3.2375
11033TIP3    H254515   5.919   1.943   3.773 -0.1520  0.1806  0.4860
11034TIP3   OH254516   4.854   3.384   2.615  0.3221  0.2497 -0.1565
11034TIP3    H154517   4.796   3.430   2.676 -1.2703  0.0332 -1.4411
11034TIP3    H254518   4.821   3.294   2.614 -0.0634  0.3706 -1.7152
11035TIP3   OH254519   3.175   2.098   0.714 -0.1221 -0.7302  0.3630
11035TIP3    H154520   3.118   2.022   0.710  0.3209 -1.4330  3.8875
11035TIP3    H254521   3.261   2.066   0.686 -0.1838 -1.2431  0.7553
11036TIP3   OH254522   6.381   5.645  16.075  0.2658  0.1618 -0.6268
11036TIP3    H154523   6.359   5.554  16.095 -0.8659  0.5848  0.1706
11036TIP3    H254524   6.454   5.666  16.132  0.5163 -0.2329 -0.7987
11037TIP3   OH254525   0.653   6.567   2.920  0.2927 -0.3048  0.9376
11037TIP3    H154526   0.610   6.484   2.941 -0.4130 -0.6544 -1.5093
11037TIP3    H254527   0.594   6.634   2.955  1.0682 -0.7759  3.2906
11038TIP3   OH254528   0.460   2.002   0.402 -0.4951 -0.0211  0.3283
11038TIP3    H154529   0.505   1.965   0.326 -1.9301 -1.9291  0.3276
11038TIP3    H254530   0.396   2.062   0.365  0.3836  0.8426  0.1877
11039TIP3   OH254531   0.787   5.158   3.733 -0.6089  1.2094 -0.7348
11039TIP3    H154532   0.708   5.210   3.750 -2.0529 -1.1708  0.3469
11039TIP3    H254533   0.803   5.111   3.815  1.9143  1.5171 -0.9721
11040TIP3   OH254534   4.325   6.656  11.834  0.2103  0.2586  0.1565
11040TIP3    H154535   4.353   6.575  11.878  2.0729  1.0572  0.5084
11040TIP3    H254536   4.381   6.663  11.757 -1.9644 -0.2861 -1.5749
11041TIP3   OH254537   1.272   0.645   1.281 -0.1376 -0.2244  0.1799
11041TIP3    H154538   1.220   0.653   1.361 -1.2742 -0.8508 -0.4762
11041TIP3    H254539   1.225   0.697   1.216  0.2442 -0.5010 -0.3243
11042TIP3   OH254540   5.816   6.383  12.790 -0.4513 -0.1955  0.4964
11042TIP3    H154541   5.906   6.407  12.814  0.4269 -0.0747 -2.5186
11042TIP3    H254542   5.826   6.312  12.727 -2.3731  0.7542 -0.9904
11043TIP3   OH254543   5.945   0.675  11.171 -0.5640 -0.8263  0.2029
11043TIP3    H154544   5.888   0.603  11.197 -2.7126 -0.4133 -2.8361
11043TIP3    H254545   5.994   0.640  11.096 -1.1423  0.6108 -0.8803
11044TIP3   OH254546   4.302   4.135   2.518 -0.6356 -0.0826  0.1620
11044TIP3    H154547   4.326   4.092   2.600 -1.4272 -2.6065 -0.8430
11044TIP3    H254548   4.227   4.190   2.541 -0.4933 -0.3191  1.2441
11045TIP3   OH254549   6.479   3.230  14.625 -0.4035  0.0925  0.2509
11045TIP3    H154550   6.460   3.324  14.624 -0.3064  0.1157 -0.6268
11045TIP3    H254551   6.574   3.225  14.631 -0.2894  0.0930 -1.2289
11046TIP3   OH254552   4.702   5.591  13.950 -0.1136  0.3043  0.5292
11046TIP3    H154553   4.631   5.534  13.980 -0.0238 -0.6030 -0.9091
11046TIP3    H254554   4.777   5.533  13.942  0.5554  1.0680  1.0770
11047TIP3   OH254555   6.550   3.217   3.361  0.1638 -0.0313  0.3709
11047TIP3    H154556   6.587   3.131   3.379  1.2881  0.4382  0.3688
11047TIP3    H254557   6.541   3.220   3.265  1.6534  0.4462  0.2260
11048TIP3   OH254558   2.428   1.629  14.647  0.0270  0.0179  0.7600
11048TIP3    H154559   2.430   1.724  14.655 -0.3296 -0.0012  1.1379
11048TIP3    H254560   2.339   1.610  14.616 -0.3151 -0.2696  1.8854
11049TIP3   OH254561   1.476   4.009  11.612  0.2757  1.2274  0.0978
11049TIP3    H154562   1.394   4.033  11.569  0.0320 -0.2249 -0.2782
11049TIP3    H254563   1.544   4.043  11.553 -0.0586 -0.1622 -1.1261
11050TIP3   OH254564   1.730   2.273  12.244 -0.2931 -0.4747 -0.1726
11050TIP3    H154565   1.680   2.234  12.173 -0.2485 -0.4532 -0.2169
11050TIP3    H254566   1.816   2.292  12.205 -0.4831  0.1513 -0.2978
11051TIP3   OH254567   0.721   3.551   0.512  0.4833  0.8966 -0.3790
11051TIP3    H154568   0.795   3.534   0.454  0.3776  0.1233 -0.2903
11051TIP3    H254569   0.650   3.498   0.477  0.8030 -0.6914  1.2482
11052TIP3   OH254570   6.288   0.332   0.577  0.5047  0.0422  0.1309
11052TIP3    H154571   6.340   0.408   0.604 -0.2109  0.1896  1.1772
11052TIP3    H254572   6.234   0.364   0.504 -0.9974  1.0773  1.6007
11053TIP3   OH254573   2.273   1.588  12.340  0.0398 -0.1252  0.0571
11053TIP3    H154574   2.304   1.624  12.423 -0.7299  1.9825 -0.5093
11053TIP3    H254575   2.218   1.657  12.303  0.2733 -1.0403 -2.1528
11054TIP3   OH254576   2.827   1.059  15.265  0.2879 -0.1807  0.0611
11054TIP3    H154577   2.832   1.154  15.271  0.0946 -0.0396 -1.5126
11054TIP3    H254578   2.892   1.027  15.328 -1.2839  0.8958  2.3754
11055TIP3   OH254579   1.243   1.772  14.792 -0.4722 -0.1260  0.1790
11055TIP3    H154580   1.187   1.702  14.826  1.3494 -1.4106  0.7103
11055TIP3    H254581   1.183   1.832  14.748 -2.4262 -0.5922  2.0434
11056TIP3   OH254582   3.769   4.485   3.894 -0.2718 -0.3640  0.2715
11056TIP3    H154583   3.861   4.465   3.878 -0.3186 -0.6830  0.3903
11056TIP3    H254584   3.769   4.546   3.967 -0.2182 -1.3484  1.1056
11057TIP3   OH254585   1.852   5.718  13.469  0.3122 -0.1007 -0.4901
11057TIP3    H154586   1.883   5.629  13.488  0.6288  0.3554  1.2776
11057TIP3    H254587   1.932   5.772  13.472 -0.1629  0.5615  0.5891
11058TIP3   OH254588   0.265   3.763   2.682 -0.8094 -0.2692 -0.2168
11058TIP3    H154589   0.219   3.751   2.765  3.2202 -1.2314  2.1127
11058TIP3    H254590   0.279   3.858   2.676  0.4683 -0.3331  1.2442
11059TIP3   OH254591   3.718   0.555   2.027  0.4252  0.3102  0.1480
11059TIP3    H154592   3.798   0.599   1.998  1.7793 -2.2739 -0.3439
11059TIP3    H254593   3.656   0.569   1.956  1.4750 -0.1819 -0.9072
11060TIP3   OH254594   4.132   6.072   0.856  0.0439  0.3447 -0.7524
11060TIP3    H154595   4.187   6.054   0.780 -0.8573 -1.6165 -0.9816
11060TIP3    H254596   4.161   6.159   0.886  0.4330  1.1695 -3.2793
11061TIP3   OH254597   4.672   3.410   0.474 -0.3086 -0.2462  0.2991
11061TIP3    H154598   4.739   3.439   0.412  0.1078  0.7850  1.1947
11061TIP3    H254599   4.697   3.451   0.557 -1.9897  0.0897  0.6842
11062TIP3   OH254600   3.893   2.302   3.611  0.6190 -0.4622  0.5917
11062TIP3    H154601   3.897   2.377   3.551 -0.3451 -0.6779  0.2473
11062TIP3    H254602   3.911   2.340   3.697 -1.9941  0.6015  0.7701
11063TIP3   OH254603   6.582   0.715  16.488  0.8166 -0.2262 -0.1543
11063TIP3    H154604   6.566   0.729  16.582  2.1759  0.5160  0.0006
11063TIP3    H254605   6.677   0.700  16.483  0.4562 -2.5443 -1.1690
11064TIP3   OH254606   2.697   4.928   6.502  0.0365  0.4364  0.7849
11064TIP3    H154607   2.606   4.923   6.532 -0.0499  1.5553  0.7443
11064TIP3    H254608   2.749   4.893   6.574 -0.2419  2.1750  1.8814
11065TIP3   OH254609   1.146   1.370   2.106 -0.8545 -0.4904  0.2828
11065TIP3    H154610   1.141   1.466   2.102 -2.6144 -0.5179  0.8418
11065TIP3    H254611   1.069   1.341   2.056 -0.0893 -1.6397 -0.2679
11066TIP3   OH254612   0.226   0.313   0.847  0.0191  0.2868  0.2367
11066TIP3    H154613   0.315   0.305   0.881  0.3841 -1.5234 -0.9497
11066TIP3    H254614   0.226   0.395   0.798  1.5823 -0.4237 -1.0737
11067TIP3   OH254615   2.266   1.001   3.500 -0.2668 -0.5712 -0.1960
11067TIP3    H154616   2.349   1.011   3.453  0.5951  1.6493  1.6109
11067TIP3    H254617   2.287   0.943   3.573 -0.7147 -1.2214 -0.5741
11068TIP3   OH254618   6.189   4.682   4.624 -0.1680  0.4307 -0.2814
11068TIP3    H154619   6.202   4.777   4.622 -2.6076  0.8429  0.5243
11068TIP3    H254620   6.183   4.657   4.532 -0.3413  1.1825 -0.4836
11069TIP3   OH254621   6.058   2.693  12.416 -0.0950 -0.0670  0.2191
11069TIP3    H154622   6.094   2.710  12.329  0.6054 -0.8145  0.3505
11069TIP3    H254623   6.006   2.613  12.405 -0.3703  0.0848  0.3968
11070TIP3   OH254624   4.208   5.233  14.071 -0.4198 -0.2938  0.1716
11070TIP3    H154625   4.288   5.283  14.059 -1.6588  2.0462  1.0493
11070TIP3    H254626   4.236   5.152  14.113  1.5110  0.2779  0.0647
11071TIP3   OH254627   6.170   6.213   5.247 -0.0309  0.0113 -0.4549
11071TIP3    H154628   6.165   6.226   5.342 -0.0072 -0.7080 -0.3526
11071TIP3    H254629   6.264   6.210   5.228  0.0045  1.8010 -0.7444
11072TIP3   OH254630   4.111   5.530   6.032  0.5613 -0.4733  0.4372
11072TIP3    H154631   4.137   5.552   6.122 -1.4401 -2.1110  1.5001
11072TIP3    H254632   4.036   5.472   6.042 -0.8011  0.6055 -2.3483
11073TIP3   OH254633   5.056   2.082   6.532  0.4679  0.5138 -0.3355
11073TIP3    H154634   5.019   2.161   6.571  0.9452  0.6197 -0.0993
11073TIP3    H254635   5.078   2.026   6.607 -2.1708 -0.9373 -0.4968
11074TIP3   OH254636   6.722   0.301  11.778  0.0749  0.3244 -0.9074
11074TIP3    H154637   6.721   0.396  11.790  2.5976  0.3105  0.0927
11074TIP3    H254638   6.693   0.288  11.688  1.8422  2.2743 -1.8546
11075TIP3   OH254639   6.044   0.387   3.623 -0.1777 -0.3778 -0.6470
11075TIP3    H154640   5.991   0.453   3.669 -0.5513 -0.9905 -0.1732
11075TIP3    H254641   6.112   0.437   3.579  0.0381  0.2624  0.3819
11076TIP3   OH254642   0.652   0.376   1.861  0.5921 -0.1048  0.4264
11076TIP3    H154643   0.615   0.447   1.807  0.8505  1.5892  2.3621
11076TIP3    H254644   0.631   0.400   1.951  0.0862 -2.8968  1.1553
11077TIP3   OH254645   3.479   2.627   0.556  0.1382  0.1220  0.7635
11077TIP3    H154646   3.564   2.589   0.579  0.6012  2.3385  3.2157
11077TIP3    H254647   3.418   2.553   0.559  1.8251 -1.3910 -0.4054
11078TIP3   OH254648   1.186   5.420   1.666 -0.3915  0.1324  0.0243
11078TIP3    H154649   1.224   5.508   1.660 -0.5288  0.1452 -0.7889
11078TIP3    H254650   1.262   5.362   1.672 -0.0747  0.0392 -3.0602
11079TIP3   OH254651   4.456   0.758  11.747  0.5279  0.1110 -0.2422
11079TIP3    H154652   4.495   0.837  11.709  0.6547  0.4047  0.4654
11079TIP3    H254653   4.531   0.704  11.772  0.5453  0.8737  1.5334
11080TIP3   OH254654   1.965   3.121  13.446  0.3651  0.3201 -0.1841
11080TIP3    H154655   1.883   3.072  13.455  1.0561 -0.4842  4.6516
11080TIP3    H254656   2.033   3.053  13.450  1.2871  1.2034 -0.5392
11081TIP3   OH254657   6.043   1.563   4.767  0.0534  0.1680  0.2091
11081TIP3    H154658   6.137   1.544   4.768  0.4167  1.6478 -1.2831
11081TIP3    H254659   6.017   1.561   4.859  1.7419  0.6310  0.7323
11082TIP3   OH254660   0.399   3.004  16.721 -0.2797  0.0440 -0.0800
11082TIP3    H154661   0.337   2.976  16.788 -0.8691 -0.5238 -0.8373
11082TIP3    H254662   0.389   2.940  16.651  0.5264  0.4604 -0.5981
11083TIP3   OH254663   4.901   6.549  12.426  0.2994  0.2486  0.3627
11083TIP3    H154664   4.911   6.640  12.400  1.0910  0.0868  0.0637
11083TIP3    H254665   4.944   6.499  12.357  1.6798 -0.2440  1.5315
11084TIP3   OH254666   5.949   2.941  10.727 -0.0974  0.3630  0.2621
11084TIP3    H154667   5.969   2.854  10.763 -0.5212  0.6743  1.3043
11084TIP3    H254668   5.898   2.923  10.648  1.6958 -0.3630 -0.7868
11085TIP3   OH254669   2.740   2.829   4.601  0.2957 -0.1015 -0.0460
11085TIP3    H154670   2.712   2.917   4.626  0.6007 -0.3660  1.3444
11085TIP3    H254671   2.834   2.837   4.585  0.2999 -0.1476 -0.0456
11086TIP3   OH254672   1.434   1.981  11.751  0.6080 -0.3182  0.3186
11086TIP3    H154673   1.476   1.998  11.667  2.9724  1.9072  1.8023
11086TIP3    H254674   1.389   2.062  11.773 -1.8884 -1.5956  0.2982
11087TIP3   OH254675   3.950   0.769  14.286 -0.0993 -0.0891 -0.2825
11087TIP3    H154676   3.961   0.857  14.250 -1.8594  0.4923  0.4821
11087TIP3    H254677   3.982   0.776  14.376 -0.4085 -0.1918 -0.1664
11088TIP3   OH254678   5.360   5.519  14.438 -0.0905 -0.4014 -0.4041
11088TIP3    H154679   5.354   5.424  14.429  0.7189 -0.5417  0.4413
11088TIP3    H254680   5.287   5.543  14.495 -0.5888 -0.4466 -1.0141
11089TIP3   OH254681   0.749   1.772   5.971  0.0752  0.1058 -0.3573
11089TIP3    H154682   0.670   1.784   6.024 -0.3955 -2.3126 -0.4025
11089TIP3    H254683   0.820   1.766   6.034  0.4314  3.0245 -0.3405
11090TIP3   OH254684   1.321   0.905  13.825  0.4290 -0.4300  0.0943
11090TIP3    H154685   1.315   0.900  13.920 -0.8437  0.0414  0.0619
11090TIP3    H254686   1.231   0.896  13.794  0.4835  1.7582 -0.9315
11091TIP3   OH254687   1.464   5.189  12.328  0.3249 -0.2942 -0.5675
11091TIP3    H154688   1.538   5.217  12.382  0.9137 -1.9191 -0.4669
11091TIP3    H254689   1.501   5.184  12.239  0.0463 -0.0692 -0.6950
11092TIP3   OH254690   4.981   2.808  11.738 -0.6440 -0.0469  0.3273
11092TIP3    H154691   5.008   2.864  11.811 -2.2376  1.0098  0.1730
11092TIP3    H254692   4.949   2.728  11.779 -0.9576  0.2934  0.7603
11093TIP3   OH254693   0.241   2.849  15.894 -0.0336  0.2867 -0.6825
11093TIP3    H154694   0.267   2.865  15.985 -0.5043 -0.8997 -0.3083
11093TIP3    H254695   0.145   2.849  15.896 -0.0644  1.3719 -1.4128
11094TIP3   OH254696   5.430   1.800   5.368 -0.5325  0.2073 -0.0924
11094TIP3    H154697   5.398   1.854   5.440 -0.2126  0.1725  0.0780
11094TIP3    H254698   5.350   1.762   5.330 -0.7539  0.7529 -0.1850
11095TIP3   OH254699   0.087   1.508  14.670  0.7254  0.6970  0.6743
11095TIP3    H154700   0.037   1.561  14.732 -0.6406  0.0383  0.1813
11095TIP3    H254701   0.075   1.553  14.586 -0.0174 -0.0914  0.3472
11096TIP3   OH254702   6.283   5.792   2.093 -0.8444 -0.0372 -0.6341
11096TIP3    H154703   6.198   5.810   2.133 -0.1029 -2.2716  2.1962
11096TIP3    H254704   6.279   5.700   2.067  1.0055 -0.4997  0.5225
11097TIP3   OH254705   5.218   2.003   1.530  0.1042  0.4990 -0.6980
11097TIP3    H154706   5.123   1.999   1.529  0.1084  0.3407 -0.5419
11097TIP3    H254707   5.246   1.934   1.469  0.1223  0.4041 -0.5824
11098TIP3   OH254708   2.450   0.346  14.180 -0.2513 -0.6673  0.2359
11098TIP3    H154709   2.414   0.268  14.137  0.7529  0.0448 -2.0323
11098TIP3    H254710   2.424   0.419  14.125  1.4814  0.2572  0.5686
11099TIP3   OH254711   1.006   1.685  12.857  0.2961  0.4556 -0.0828
11099TIP3    H154712   0.982   1.735  12.780  1.0078  0.3374 -0.3912
11099TIP3    H254713   1.089   1.643  12.834 -0.3752 -1.0392  0.0834
11100TIP3   OH254714   3.557   1.280  15.328 -0.3861  0.1190 -0.2983
11100TIP3    H154715   3.525   1.295  15.240  0.0222  0.8332 -0.3313
11100TIP3    H254716   3.618   1.206  15.319  0.8185  1.1406 -0.9016
11101TIP3   OH254717   2.355   3.057  13.523 -0.4787  0.0511 -0.2712
11101TIP3    H154718   2.424   3.033  13.462  0.0365 -2.4191  1.1437
11101TIP3    H254719   2.275   3.023  13.483 -0.0878 -1.9548  0.4979
11102TIP3   OH254720   5.757   2.296   4.764 -0.2001 -0.6988  0.3665
11102TIP3    H154721   5.816   2.247   4.707  0.3363  0.4431 -0.0699
11102TIP3    H254722   5.677   2.243   4.765 -0.7830 -0.0803 -2.6469
11103TIP3   OH254723   1.118   0.536  12.660 -0.0873  0.1100 -0.5154
11103TIP3    H154724   1.081   0.591  12.591  2.3287  0.3303 -1.7346
11103TIP3    H254725   1.212   0.552  12.656  0.2148 -0.3290  2.4873
11104TIP3   OH254726   4.235   3.893  13.865  0.2999  0.1480 -0.0635
11104TIP3    H154727   4.193   3.864  13.946 -0.8366 -0.8937 -0.9897
11104TIP3    H254728   4.185   3.970  13.838  2.0143  1.8575  1.2860
11105TIP3   OH254729   2.598   6.717  10.968 -0.5357  0.2819 -0.5329
11105TIP3    H154730   2.567   6.808  10.978 -4.4045 -0.9967  1.0911
11105TIP3    H254731   2.560   6.688  10.885 -0.4207 -0.2087 -0.4136
11106TIP3   OH254732   4.003   0.785   1.287 -0.3553  0.3788 -0.3738
11106TIP3    H154733   3.924   0.808   1.238 -1.0833 -1.5540 -0.1703
11106TIP3    H254734   3.993   0.829   1.371 -1.2120  0.1762 -0.3636
11107TIP3   OH254735   5.077   5.531  15.442  0.4461  0.0188  0.6874
11107TIP3    H154736   5.101   5.606  15.388  1.2386  0.8119  2.0797
11107TIP3    H254737   5.158   5.479  15.448  0.3963 -0.0097  1.1747
11108TIP3   OH254738   2.036   0.070  14.682 -0.4027  0.2045 -0.1572
11108TIP3    H154739   2.108   0.023  14.724  0.0201  1.0615  0.1136
11108TIP3    H254740   2.061   0.162  14.688 -1.4595  0.5075 -0.1945
11109TIP3   OH254741   0.438   6.200  11.027  0.1707 -0.0629 -0.5258
11109TIP3    H154742   0.440   6.201  10.931 -2.3311  1.4858 -0.6370
11109TIP3    H254743   0.519   6.245  11.053  0.6733 -0.1154 -1.9097
11110TIP3   OH254744   3.624   1.521   2.574 -0.0172  0.2837  0.5069
11110TIP3    H154745   3.661   1.444   2.616 -0.2951  0.3103  0.8046
11110TIP3    H254746   3.530   1.513   2.589 -0.2278 -0.1797 -0.8879
11111TIP3   OH254747   2.236   3.567  14.544  0.2407  0.0502 -0.6114
11111TIP3    H154748   2.199   3.649  14.510  0.6386  0.3223 -0.3903
11111TIP3    H254749   2.260   3.517  14.466 -0.0209  0.1346 -0.7465
11112TIP3   OH254750   1.365   6.069   2.054 -0.6760 -0.4992  0.9348
11112TIP3    H154751   1.347   6.036   2.142 -1.2056 -1.2492  0.5564
11112TIP3    H254752   1.449   6.115   2.062  0.6254 -2.8067  1.2917
11113TIP3   OH254753   4.380   1.827  13.928 -0.2382  0.4741 -0.2010
11113TIP3    H154754   4.302   1.848  13.980  0.0717 -2.6668  1.7649
11113TIP3    H254755   4.453   1.841  13.987  0.2798 -1.3764 -0.3496
11114TIP3   OH254756   3.807   4.848   5.084 -0.0287  0.0659 -0.1225
11114TIP3    H154757   3.823   4.836   5.177  0.9385  2.4453  0.0883
11114TIP3    H254758   3.893   4.837   5.043 -0.4635 -1.0709 -0.7756
11115TIP3   OH254759   3.565   4.043  14.982 -0.3032 -0.1864  0.6384
11115TIP3    H154760   3.521   4.048  14.898 -0.7725 -1.5466  0.7803
11115TIP3    H254761   3.593   4.132  15.000 -1.6233  0.4277 -0.1966
11116TIP3   OH254762   2.810   3.514   2.756 -0.7100  0.0409 -0.1942
11116TIP3    H154763   2.757   3.591   2.775 -2.0666 -0.7389 -0.7166
11116TIP3    H254764   2.900   3.547   2.755 -0.6949  0.7728  4.2663
11117TIP3   OH254765   6.510   1.439  11.037  0.3900  0.0648  0.7522
11117TIP3    H154766   6.422   1.402  11.026  0.9284 -1.2582  0.6979
11117TIP3    H254767   6.558   1.407  10.960  0.6913  1.5183  0.3164
11118TIP3   OH254768   0.134   6.435  11.914 -0.2687  0.6424  0.1767
11118TIP3    H154769   0.159   6.483  11.993 -0.0415  1.4502 -0.3788
11118TIP3    H254770   0.093   6.355  11.947 -0.2521  1.0069  1.1118
11119TIP3   OH254771   5.560   6.672   1.606  0.5276 -0.4395  0.2581
11119TIP3    H154772   5.515   6.704   1.528  1.6915 -1.3869 -0.8267
11119TIP3    H254773   5.504   6.601   1.638 -0.2471  0.3276  0.6421
11120TIP3   OH254774   0.533   6.195   2.394 -0.1005 -0.0875  0.4703
11120TIP3    H154775   0.598   6.195   2.463 -1.6190  0.0031  1.9564
11120TIP3    H254776   0.452   6.224   2.436 -1.9198 -3.2706 -0.4718
11121TIP3   OH254777   3.644   3.843   2.085  0.3489 -0.0343  0.4799
11121TIP3    H154778   3.666   3.757   2.050 -0.1833 -0.3405  0.8786
11121TIP3    H254779   3.548   3.843   2.088  0.3720  0.1694  1.4695
11122TIP3   OH254780   3.040   3.809   2.432  0.2075 -0.3208 -0.4425
11122TIP3    H154781   2.949   3.783   2.448 -0.7825  2.0017 -1.8760
11122TIP3    H254782   3.052   3.794   2.338  2.3186 -3.2666  0.1499
11123TIP3   OH254783   4.640   0.989   4.542 -0.0004 -0.5723  0.6366
11123TIP3    H154784   4.578   0.923   4.512 -1.0468  0.7321 -0.1647
11123TIP3    H254785   4.633   1.060   4.478  1.9954 -0.1869  0.7821
11124TIP3   OH254786   3.821   0.718  14.532 -0.1966  0.3571  0.2198
11124TIP3    H154787   3.751   0.782  14.543 -0.9860 -0.4777  0.1669
11124TIP3    H254788   3.843   0.690  14.621 -0.2890  0.2426  0.2067
11125TIP3   OH254789   2.531   2.681  10.847 -0.2513 -0.1781  0.3670
11125TIP3    H154790   2.611   2.650  10.890 -0.1730  0.1643  0.4732
11125TIP3    H254791   2.562   2.733  10.773 -0.3568  0.7824  0.9863
11126TIP3   OH254792   6.250   1.092  13.415 -0.2025 -0.0653 -0.7774
11126TIP3    H154793   6.205   1.066  13.334  1.3778 -1.0473 -1.3771
11126TIP3    H254794   6.189   1.152  13.458 -2.3211 -1.7239 -1.3008
11127TIP3   OH254795   5.923   2.457   4.229  0.4718  0.2673  0.1264
11127TIP3    H154796   5.924   2.404   4.308 -1.1034  0.1951  0.1194
11127TIP3    H254797   5.873   2.405   4.166  1.3964  0.4818 -0.8253
11128TIP3   OH254798   1.210   4.162   3.627  0.2727 -0.1886 -0.5834
11128TIP3    H154799   1.282   4.216   3.659  0.2632  0.0124 -0.9049
11128TIP3    H254800   1.236   4.137   3.538 -0.0735 -0.0782 -0.7170
11129TIP3   OH254801   1.582   0.206  13.662 -0.1965 -0.4169  0.2651
11129TIP3    H154802   1.650   0.249  13.714  1.8917 -2.7594 -0.3453
11129TIP3    H254803   1.558   0.271  13.596  0.8643  0.7386  0.9659
11130TIP3   OH254804   0.754   3.287   2.938 -0.4283 -0.3051 -0.1977
11130TIP3    H154805   0.819   3.300   3.008  0.9697 -1.0061 -1.3018
11130TIP3    H254806   0.677   3.335   2.968 -0.6988 -2.3425  2.8592
11131TIP3   OH254807   6.438   3.655  15.027  0.2160  0.0838  0.1165
11131TIP3    H154808   6.376   3.598  15.071  0.0120  0.8993  0.9159
11131TIP3    H254809   6.392   3.687  14.949  0.3820 -0.9309 -0.4061
11132TIP3   OH254810   6.534   6.143  12.421 -0.3116  0.1931  0.1645
11132TIP3    H154811   6.547   6.214  12.359  0.7023  0.4976  0.7137
11132TIP3    H254812   6.498   6.071  12.368  1.0081  0.2754 -0.8868
11133TIP3   OH254813   4.584   1.493  15.028 -0.5092  0.4781  0.1761
11133TIP3    H154814   4.567   1.566  15.088  0.5935  0.0141  1.0776
11133TIP3    H254815   4.676   1.472  15.041 -0.5038 -0.2944 -0.9695
11134TIP3   OH254816   2.452   6.459  12.829 -0.4347 -0.0199 -0.0718
11134TIP3    H154817   2.408   6.379  12.799 -1.7772  0.3781  0.7709
11134TIP3    H254818   2.391   6.499  12.891  1.0761  0.6359  1.0523
11135TIP3   OH254819   5.768   3.019   0.997  0.0967 -0.2151  0.2713
11135TIP3    H154820   5.810   2.934   1.000 -1.4968 -1.0456  0.2975
11135TIP3    H254821   5.703   3.011   0.927  0.2546  1.1504 -0.0686
11136TIP3   OH254822   6.372   4.120  15.771  0.3403  0.8372  0.1843
11136TIP3    H154823   6.397   4.062  15.842  0.1713  1.1953  0.5405
11136TIP3    H254824   6.408   4.205  15.795 -0.0818  1.0588  0.0551
11137TIP3   OH254825   0.008   4.113  15.659  0.2920  1.2179  0.1603
11137TIP3    H154826   0.021   4.072  15.573 -0.2674  2.1242 -0.3711
11137TIP3    H254827   0.078   4.178  15.665  0.1607  1.3499  0.2679
11138TIP3   OH254828   2.707   0.123   2.445 -0.5647 -0.0795  0.5428
11138TIP3    H154829   2.664   0.196   2.489 -2.0903 -0.6814  0.1086
11138TIP3    H254830   2.695   0.141   2.351 -1.2984 -1.0681  0.4326
11139TIP3   OH254831   3.392   3.758  11.604  0.2322  0.4048 -0.4931
11139TIP3    H154832   3.315   3.791  11.558 -0.4150 -0.2944  0.0741
11139TIP3    H254833   3.400   3.667  11.575  1.0413  0.5595 -0.7919
11140TIP3   OH254834   6.501   5.472  15.095  0.3522 -0.0735 -0.1328
11140TIP3    H154835   6.551   5.553  15.087  0.1219  0.1088  0.2432
11140TIP3    H254836   6.555   5.415  15.150  0.0944  0.1750  0.3909
11141TIP3   OH254837   5.008   6.305   0.674  0.0338  0.0218 -0.1723
11141TIP3    H154838   4.975   6.329   0.588 -0.7554  1.0550  0.3945
11141TIP3    H254839   4.979   6.214   0.687 -1.6843  0.5424 -0.1515
11142TIP3   OH254840   2.200   0.512  16.300  0.3316  0.0774  0.5772
11142TIP3    H154841   2.280   0.510  16.247 -0.1846  0.1381 -0.2287
11142TIP3    H254842   2.151   0.587  16.265  0.3282  0.5966  1.6745
11143TIP3   OH254843   2.189   3.553  12.313  0.4171 -0.0857  0.1309
11143TIP3    H154844   2.259   3.558  12.248  0.6523  0.6798  0.4350
11143TIP3    H254845   2.209   3.622  12.376 -1.0296  0.6630 -0.1920
11144TIP3   OH254846   3.189   5.046   0.589 -0.4375  0.3765 -0.3298
11144TIP3    H154847   3.194   5.140   0.568  0.2810  0.8980  1.8511
11144TIP3    H254848   3.280   5.022   0.608 -0.7175 -0.5862 -0.1945
11145TIP3   OH254849   5.843   0.368  15.827  0.1809 -0.0092  0.5877
11145TIP3    H154850   5.922   0.411  15.861  0.3901  0.4005 -0.3891
11145TIP3    H254851   5.774   0.391  15.889  0.6740  0.2495  1.0462
11146TIP3   OH254852   2.808   6.025   1.699  0.4977 -0.2645 -0.0355
11146TIP3    H154853   2.757   6.100   1.668  1.5786 -0.2222 -1.8176
11146TIP3    H254854   2.777   5.951   1.648  1.3655 -0.4725 -0.2866
11147TIP3   OH254855   6.488   1.141   0.618  0.2102  0.0731  0.4670
11147TIP3    H154856   6.443   1.225   0.614  1.1479  0.5362 -1.4978
11147TIP3    H254857   6.555   1.146   0.550  0.8253 -1.9643  0.8538
11148TIP3   OH254858   4.959   3.651   5.758  0.0005  0.7167  0.0434
11148TIP3    H154859   4.901   3.640   5.833  0.6622  0.7175  0.5697
11148TIP3    H254860   4.901   3.668   5.684 -0.7714 -1.1194  0.1897
11149TIP3   OH254861   2.010   0.525   3.980  0.3064  0.5493  0.2222
11149TIP3    H154862   1.976   0.551   4.065 -0.0822  1.5041 -0.2042
11149TIP3    H254863   2.041   0.607   3.940  0.6431  0.0946 -0.4776
11150TIP3   OH254864   1.448   2.161   2.423  0.0064 -0.0620  0.3318
11150TIP3    H154865   1.357   2.179   2.398 -0.4045 -0.1711  1.6593
11150TIP3    H254866   1.458   2.202   2.509  1.0930 -0.3890  0.3784
11151TIP3   OH254867   4.020   4.735   0.961 -0.3904  0.0092 -0.0973
11151TIP3    H154868   4.083   4.801   0.986 -1.6275  1.0266  0.4510
11151TIP3    H254869   3.943   4.752   1.016 -0.6992 -1.9723  0.1550
11152TIP3   OH254870   1.923   0.450  10.783 -0.3832  0.3370  0.3313
11152TIP3    H154871   1.946   0.358  10.778  0.4599  0.5885 -1.6340
11152TIP3    H254872   1.830   0.451  10.802 -0.8056 -1.0091 -1.3829
11153TIP3   OH254873   5.333   4.105  14.158  0.2787 -0.3889  0.4218
11153TIP3    H154874   5.360   4.050  14.232 -0.8760 -0.8278  0.5395
11153TIP3    H254875   5.348   4.195  14.188  0.9302 -0.5960  0.7338
11154TIP3   OH254876   1.087   2.131  13.771 -0.0553  0.3122 -1.3076
11154TIP3    H154877   1.054   2.159  13.856 -0.1434 -0.8087 -0.9508
11154TIP3    H254878   1.009   2.107  13.721  0.1255 -1.9432 -0.6088
11155TIP3   OH254879   2.523   3.721   5.454 -0.0590 -0.0867  0.8333
11155TIP3    H154880   2.593   3.677   5.406 -1.2223 -1.0067 -0.1057
11155TIP3    H254881   2.499   3.796   5.400 -1.2662 -1.0354  0.0035
11156TIP3   OH254882   6.293   2.059   1.903 -0.2597 -0.1449 -0.0513
11156TIP3    H154883   6.272   2.145   1.867  0.8162  0.7419  1.3323
11156TIP3    H254884   6.344   2.078   1.981 -0.3487 -2.0490  0.5128
11157TIP3   OH254885   3.155   2.576  14.429  0.2196 -0.0526  0.3379
11157TIP3    H154886   3.068   2.600  14.461 -0.6642 -1.4379 -0.9210
11157TIP3    H254887   3.152   2.593  14.335  1.5216  0.4200  0.3543
11158TIP3   OH254888   5.753   3.545  14.000  0.1722  0.6573  0.1016
11158TIP3    H154889   5.669   3.545  14.047 -0.6604  1.0199 -1.3474
11158TIP3    H254890   5.814   3.507  14.063 -1.5389 -1.8447  0.4128
11159TIP3   OH254891   2.601   0.487  14.989  0.2487 -0.5665  0.0927
11159TIP3    H154892   2.539   0.490  15.062 -0.1959 -0.5894 -0.2800
11159TIP3    H254893   2.670   0.427  15.019  1.1800  1.0567  1.3418
11160TIP3   OH254894   2.496   2.821  12.657 -0.0389  0.5568 -0.0487
11160TIP3    H154895   2.437   2.868  12.597 -1.2238  0.0834  0.6957
11160TIP3    H254896   2.544   2.890  12.702 -1.0921  1.0302  0.3766
11161TIP3   OH254897   4.575   3.460  11.051 -0.2779 -0.1880 -0.5798
11161TIP3    H154898   4.521   3.495  10.980  0.4692  0.8266 -0.6757
11161TIP3    H254899   4.664   3.488  11.029 -0.1385  0.9347  1.1917
11162TIP3   OH254900   6.778   6.602   0.053  0.0909  0.4247 -0.4141
11162TIP3    H154901   6.725   6.604  -0.027 -1.6063 -3.2309  0.3913
11162TIP3    H254902   6.839   6.529   0.040  0.3573  0.3012  1.2432
11163TIP3   OH254903   1.383   0.924  12.670 -0.1403 -0.4113  0.4429
11163TIP3    H154904   1.426   0.848  12.708 -1.8485 -1.0467  1.1546
11163TIP3    H254905   1.420   0.999  12.717  3.2070 -0.4694 -1.7355
11164TIP3   OH254906   4.787   2.839  12.531  0.1819  0.5165 -0.0007
11164TIP3    H154907   4.819   2.922  12.566  1.2404  0.0520  0.1612
11164TIP3    H254908   4.778   2.782  12.607 -1.0323  0.6260 -0.0465
11165TIP3   OH254909   6.368   2.764  11.182 -0.2562  0.0192 -0.9019
11165TIP3    H154910   6.436   2.806  11.235 -0.8561 -0.1354 -0.0016
11165TIP3    H254911   6.314   2.837  11.151 -0.4483  0.0346 -0.5335
11166TIP3   OH254912   4.461   1.540   3.905  0.4982 -0.1102 -0.3053
11166TIP3    H154913   4.465   1.602   3.833 -0.5846 -0.0266 -0.3050
11166TIP3    H254914   4.482   1.592   3.983  0.6038  0.0308 -0.4291
11167TIP3   OH254915   5.892   1.415   3.126 -0.3598 -0.3100  0.5078
11167TIP3    H154916   5.871   1.325   3.149  1.6522 -0.9538  0.0099
11167TIP3    H254917   5.985   1.414   3.104 -0.1059  2.0226  1.1338
11168TIP3   OH254918   3.992   1.470   0.609 -0.1587 -0.3078 -0.2846
11168TIP3    H154919   4.040   1.522   0.674 -1.0585  0.3310 -0.1052
11168TIP3    H254920   3.991   1.524   0.531 -1.3320  0.0845 -0.0153
11169TIP3   OH254921   5.814   4.282  14.756 -1.2148  0.1979 -0.3201
11169TIP3    H154922   5.742   4.220  14.767 -1.3053  0.5010  0.9443
11169TIP3    H254923   5.771   4.363  14.727 -1.2727  0.1110 -0.4798
11170TIP3   OH254924   4.112   0.315  11.954  0.4370  0.9400 -0.2275
11170TIP3    H154925   4.033   0.298  11.902  0.6205 -1.8848  0.2697
11170TIP3    H254926   4.081   0.317  12.044  1.0130 -1.3770  0.0715
11171TIP3   OH254927   5.292   1.628  12.606 -0.6119 -0.5229  0.4428
11171TIP3    H154928   5.366   1.599  12.659  0.2339 -1.4938 -1.1837
11171TIP3    H254929   5.332   1.683  12.538 -1.3461 -1.1811 -0.5426
11172TIP3   OH254930   5.258   2.750  15.285 -0.2003  0.2380  0.5159
11172TIP3    H154931   5.316   2.777  15.356  1.9237  1.0005 -1.3810
11172TIP3    H254932   5.309   2.766  15.205 -1.6507 -2.5020 -1.1101
11173TIP3   OH254933   5.347   4.183  17.020 -0.1938  0.1542 -0.3593
11173TIP3    H154934   5.285   4.124  16.979 -3.3572  2.2372  1.0570
11173TIP3    H254935   5.411   4.203  16.951 -1.8208 -1.0736 -2.3154
11174TIP3   OH254936   3.034   4.971   2.897  0.4666  0.4763  0.1123
11174TIP3    H154937   3.017   4.985   2.990  0.1832  0.7231  0.0249
11174TIP3    H254938   2.947   4.975   2.855  0.5290 -0.1411 -0.1006
11175TIP3   OH254939   5.566   1.744  13.375 -0.0071  0.1926 -0.5036
11175TIP3    H154940   5.495   1.799  13.345  1.5345  2.1466 -0.7781
11175TIP3    H254941   5.626   1.804  13.420  1.9119 -1.1828 -1.1013
11176TIP3   OH254942   1.513   5.155   4.492  0.3359 -0.2741 -0.3603
11176TIP3    H154943   1.554   5.186   4.412  0.6426  0.9996  0.2579
11176TIP3    H254944   1.498   5.061   4.477  1.6411 -0.3512 -1.3661
11177TIP3   OH254945   4.373   2.516  15.809 -0.7477  0.0679 -0.7715
11177TIP3    H154946   4.311   2.468  15.753 -0.5699 -1.1893  0.0608
11177TIP3    H254947   4.458   2.476  15.789 -0.5380  0.2847 -0.3241
11178TIP3   OH254948   2.164   4.624  12.458 -0.2686  0.1607 -0.5409
11178TIP3    H154949   2.229   4.689  12.430 -0.6263  0.0882 -1.5677
11178TIP3    H254950   2.129   4.589  12.376  0.2124 -1.6402 -0.0051
11179TIP3   OH254951   4.980   1.651   0.740  0.5258  0.3404  0.4580
11179TIP3    H154952   4.890   1.683   0.737  0.7690  1.2726  1.8260
11179TIP3    H254953   5.031   1.722   0.700  0.7850  0.4273  0.9419
11180TIP3   OH254954   6.554   3.221  13.657  0.6571 -0.4877  0.0642
11180TIP3    H154955   6.527   3.133  13.681 -1.4721  0.2802  0.7614
11180TIP3    H254956   6.639   3.233  13.700  1.4670 -2.5077 -0.8851
11181TIP3   OH254957   2.799   1.802  13.823  0.1301  0.0044  0.4092
11181TIP3    H154958   2.865   1.811  13.754  1.0451  1.2984  1.3990
11181TIP3    H254959   2.724   1.853  13.791  0.1141 -0.3481 -0.1224
11182TIP3   OH254960   2.426   0.375  13.532  0.2074 -0.2512 -0.3794
11182TIP3    H154961   2.369   0.447  13.561  0.5115 -0.6717  1.3448
11182TIP3    H254962   2.500   0.419  13.490 -0.6256  0.3481 -1.2740
11183TIP3   OH254963   0.957   3.315   5.314  0.2688  0.5185  0.2238
11183TIP3    H154964   0.897   3.261   5.366  1.3138 -0.2762  0.6151
11183TIP3    H254965   0.987   3.382   5.374  0.4521  0.3955  0.2680
11184TIP3   OH254966   5.244   4.859  10.031  0.4100  0.0308  0.1375
11184TIP3    H154967   5.156   4.857  10.070  0.6639  1.7962  0.8969
11184TIP3    H254968   5.298   4.903  10.097  2.1697 -2.0134  0.1847
11185TIP3   OH254969   1.435   4.326   1.464 -0.3387  0.4163  0.0560
11185TIP3    H154970   1.394   4.241   1.447 -0.2594 -0.0386  1.9399
11185TIP3    H254971   1.521   4.320   1.421  0.1164 -0.9128  1.0729
11186TIP3   OH254972   6.590   0.807   1.851  0.0732  0.0761 -0.4901
11186TIP3    H154973   6.634   0.807   1.765 -0.2555 -0.7875 -0.6710
11186TIP3    H254974   6.641   0.745   1.903  0.2555  0.5823 -0.0667
11187TIP3   OH254975   5.431   1.301   3.990 -0.1349  0.1499 -0.3475
11187TIP3    H154976   5.341   1.283   4.016 -0.0358 -0.6090 -0.4950
11187TIP3    H254977   5.431   1.394   3.965 -0.3707  0.7416  1.7026
11188TIP3   OH254978   1.392   4.293  16.938  0.2280  0.3053 -0.1281
11188TIP3    H154979   1.328   4.230  16.972 -0.2558 -0.1586 -1.7973
11188TIP3    H254980   1.469   4.240  16.917  0.5921  0.6145  0.4097
11189TIP3   OH254981   4.515   0.697   5.383 -0.6284 -0.0687 -0.0497
11189TIP3    H154982   4.543   0.623   5.436  0.4486 -0.2028 -0.7781
11189TIP3    H254983   4.421   0.704   5.399 -0.9135 -2.1035 -0.6093
11190TIP3   OH254984   1.557   5.869  16.435 -0.0437  0.0323 -0.4319
11190TIP3    H154985   1.604   5.800  16.482  0.1368 -0.1512 -0.8736
11190TIP3    H254986   1.623   5.934  16.415 -0.4016  0.8275  0.8565
11191TIP3   OH254987   5.330   2.675   2.850 -0.4158 -0.4190 -0.1688
11191TIP3    H154988   5.246   2.634   2.828 -0.4231  0.0252 -0.9994
11191TIP3    H254989   5.330   2.682   2.945 -1.1481 -0.7885 -0.1415
11192TIP3   OH254990   4.427   1.263   2.785 -0.0112  0.2361 -0.0263
11192TIP3    H154991   4.334   1.247   2.769  0.0070  0.2433 -0.1415
11192TIP3    H254992   4.463   1.176   2.801 -0.0535  0.2420  0.1021
11193TIP3   OH254993   1.610   6.331   3.838  0.4346  0.2965 -0.0735
11193TIP3    H154994   1.564   6.332   3.754 -0.8255 -0.8922  0.5725
11193TIP3    H254995   1.699   6.304   3.816 -0.6837 -3.4494 -0.7464
11194TIP3   OH254996   2.897   1.526   5.616 -0.0407 -0.1010 -0.1355
11194TIP3    H154997   2.920   1.472   5.692 -0.7682 -1.4313 -0.8312
11194TIP3    H254998   2.827   1.477   5.572  1.2911 -0.0823 -2.4445
11195TIP3   OH254999   0.305   3.272  12.275  0.6648  0.0064  0.0060
11195TIP3    H155000   0.263   3.308  12.353  0.3402 -1.7249  0.6644
11195TIP3    H255001   0.236   3.275  12.208 -0.1029 -1.5056  0.6958
11196TIP3   OH255002   5.503   1.229  15.439  0.0062  0.1496 -0.1138
11196TIP3    H155003   5.513   1.318  15.474  0.1930 -0.5450  1.6885
11196TIP3    H255004   5.438   1.239  15.368 -0.2245  1.6604  0.2621
11197TIP3   OH255005   5.102   3.722   0.884 -0.3577  0.1959  0.4165
11197TIP3    H155006   5.088   3.659   0.954  0.1983  0.8537  1.1355
11197TIP3    H255007   5.081   3.807   0.923  1.0218  0.6961  0.1513
11198TIP3   OH255008   1.189   0.719  14.698 -0.0715 -0.0145 -0.1581
11198TIP3    H155009   1.175   0.804  14.740 -0.3198 -0.3439  0.4340
11198TIP3    H255010   1.110   0.669  14.717 -1.7408  0.8842 -3.7347
11199TIP3   OH255011   2.191   0.351   6.303 -0.2613 -0.0727 -0.2131
11199TIP3    H155012   2.159   0.410   6.234  0.8962  2.7882  1.4859
11199TIP3    H255013   2.157   0.390   6.384  0.8020 -1.6438  1.0391
11200TIP3   OH255014   0.364   4.605   1.508  0.0373  0.5412  0.0092
11200TIP3    H155015   0.454   4.639   1.509  0.2947 -0.1174 -0.4104
11200TIP3    H255016   0.364   4.538   1.577 -0.1736  0.6482  0.1115
11201TIP3   OH255017   5.271   2.388   3.957 -0.4917 -0.0466 -0.1522
11201TIP3    H155018   5.218   2.353   3.885 -0.6302 -1.0500  0.4110
11201TIP3    H255019   5.270   2.318   4.023  1.7081 -0.2159 -0.2088
11202TIP3   OH255020   2.833   5.457  15.258 -0.1132 -0.4072  0.3823
11202TIP3    H155021   2.903   5.517  15.285 -0.4684  0.3335 -0.3130
11202TIP3    H255022   2.879   5.378  15.231  0.4825  0.1347 -0.2428
11203TIP3   OH255023   1.738   5.437   5.693 -0.1973 -0.0991  0.1024
11203TIP3    H155024   1.773   5.413   5.607 -1.3991 -1.0134 -0.1604
11203TIP3    H255025   1.700   5.356   5.727 -0.1372  0.3532  1.3157
11204TIP3   OH255026   4.228   2.588   3.095 -0.6595 -0.3866  0.2494
11204TIP3    H155027   4.132   2.593   3.100 -0.7689 -2.4592  1.0211
11204TIP3    H255028   4.246   2.527   3.024  0.1528  0.7294 -0.5476
11205TIP3   OH255029   4.726   4.712  11.691 -0.3221  0.3734 -0.3387
11205TIP3    H155030   4.645   4.762  11.686 -1.2770 -1.2177 -3.8844
11205TIP3    H255031   4.718   4.646  11.623  2.5385 -2.1128  1.4745
11206TIP3   OH255032   4.539   1.987   2.273  0.2582  0.0694  0.2089
11206TIP3    H155033   4.556   1.975   2.367  0.1211  1.6790  0.4678
11206TIP3    H255034   4.453   2.029   2.270  0.7605  1.0782 -0.5674
11207TIP3   OH255035   3.505   5.185  13.720 -0.5916 -0.0433  0.0442
11207TIP3    H155036   3.566   5.250  13.755 -1.7694  2.1305 -1.6353
11207TIP3    H255037   3.433   5.237  13.685 -2.0265 -2.3509 -0.6447
11208TIP3   OH255038   1.478   2.240  14.619 -0.0258 -0.1368 -0.3460
11208TIP3    H155039   1.555   2.219  14.565 -0.9228 -0.6741 -1.4448
11208TIP3    H255040   1.449   2.156  14.654  0.2347  0.1433  0.5706
11209TIP3   OH255041   1.877   1.816   2.363 -0.4857  0.4969 -0.3525
11209TIP3    H155042   1.898   1.825   2.269 -2.0785 -3.6293 -1.2968
11209TIP3    H255043   1.802   1.874   2.376 -0.5167  0.8238 -1.7599
11210TIP3   OH255044   5.156   4.770   4.069 -0.3886  0.0502  0.3333
11210TIP3    H155045   5.063   4.749   4.068 -0.3604 -0.1334  1.0464
11210TIP3    H255046   5.167   4.826   4.146  0.2300 -0.6005  0.7330
11211TIP3   OH255047   0.512   5.726   3.236  0.3845 -0.0907 -0.0349
11211TIP3    H155048   0.446   5.747   3.171 -0.0708  0.3254  0.5451
11211TIP3    H255049   0.468   5.738   3.320  0.7200 -1.3809  0.3529
11212TIP3   OH255050   4.647   5.999   0.084  0.1220  0.2127 -0.3731
11212TIP3    H155051   4.703   5.947   0.141 -0.6457  0.5661  0.7552
11212TIP3    H255052   4.633   5.944   0.007  2.2632  0.2668 -0.8444
11213TIP3   OH255053   5.239   4.641   2.718  0.0389 -0.6059 -0.0227
11213TIP3    H155054   5.205   4.657   2.630 -0.4666  1.0391  0.4412
11213TIP3    H255055   5.191   4.564   2.748 -1.9999  0.5827 -0.0714
11214TIP3   OH255056   4.450   2.533  13.428  0.1366  0.0214  0.0251
11214TIP3    H155057   4.473   2.441  13.439  1.6178  0.4966  1.0435
11214TIP3    H255058   4.419   2.561  13.514  1.1723  0.8627  0.1403
11215TIP3   OH255059   5.695   0.214  15.647 -0.4237  0.2523  0.5848
11215TIP3    H155060   5.749   0.258  15.713  0.8543 -0.2135 -0.1238
11215TIP3    H255061   5.708   0.264  15.567  0.3225 -0.8583 -0.0056
11216TIP3   OH255062   5.364   2.069   2.909 -0.0076 -0.1295  0.3557
11216TIP3    H155063   5.317   2.001   2.956 -1.0993  0.6627  0.4662
11216TIP3    H255064   5.431   2.099   2.970  0.1814 -0.7818  0.4752
11217TIP3   OH255065   5.138   0.928  12.810  0.6785 -0.2276 -0.0315
11217TIP3    H155066   5.224   0.968  12.796  0.9007 -1.1343 -1.4475
11217TIP3    H255067   5.077   0.986  12.764  0.5137  0.3620  0.8913
11218TIP3   OH255068   3.999   3.536   2.456 -0.4633 -0.1118 -0.2186
11218TIP3    H155069   4.046   3.486   2.389 -0.0939  0.1388 -0.1498
11218TIP3    H255070   4.003   3.480   2.534  1.4697  0.7502  0.3556
11219TIP3   OH255071   5.179   1.336   3.478 -0.2077  0.0160  0.3312
11219TIP3    H155072   5.177   1.252   3.524 -0.8609  0.0803  0.4330
11219TIP3    H255073   5.110   1.329   3.411 -0.4049  0.5386  0.4715
11220TIP3   OH255074   0.163   5.345   4.316 -0.3989  0.2527  0.4899
11220TIP3    H155075   0.256   5.348   4.295 -0.3113 -0.2317  0.8038
11220TIP3    H255076   0.160   5.320   4.408 -0.7568  2.8180  1.2535
11221TIP3   OH255077   5.196   1.964  16.285 -0.5274  0.5973 -0.0224
11221TIP3    H155078   5.122   1.995  16.234  1.0152  3.1422 -0.9641
11221TIP3    H255079   5.195   2.018  16.364 -0.7723 -0.7125  0.8889
11222TIP3   OH255080   5.189   5.454  16.611  0.1828 -0.3048  0.3778
11222TIP3    H155081   5.220   5.521  16.672 -3.1047  1.1870  0.6124
11222TIP3    H255082   5.248   5.461  16.536  0.6282  2.0922  0.8705
11223TIP3   OH255083   6.400   1.904   3.873 -0.4671  0.0736 -0.5645
11223TIP3    H155084   6.332   1.913   3.940 -1.7296 -0.0679 -1.7907
11223TIP3    H255085   6.433   1.993   3.863 -0.0061  0.0424  0.4768
11224TIP3   OH255086   2.405   0.410   3.145  0.2909 -0.7738 -0.6693
11224TIP3    H155087   2.418   0.501   3.172  0.8736 -0.9296 -0.4178
11224TIP3    H255088   2.456   0.401   3.065  0.1715 -0.8601 -0.7364
11225TIP3   OH255089   6.126   2.886   3.303 -0.1508 -0.8821  1.0933
11225TIP3    H155090   6.195   2.940   3.342  0.2452  0.4605 -1.2643
11225TIP3    H255091   6.052   2.946   3.293 -0.5673 -1.4464  0.7222
11226TIP3   OH255092   3.240   3.141   3.671  0.4505 -0.6316 -0.1890
11226TIP3    H155093   3.307   3.149   3.603 -1.1304  1.4822 -1.6245
11226TIP3    H255094   3.158   3.127   3.623 -0.7277  0.9579  1.2418
11227TIP3   OH255095   6.529   6.758   5.671  0.6145 -0.3691 -0.4414
11227TIP3    H155096   6.584   6.763   5.593  0.0607  0.2506 -0.8039
11227TIP3    H255097   6.552   6.835   5.722 -1.1212  0.8901 -1.4360
11228TIP3   OH255098   2.654   1.210  14.001  0.2223  0.6599  0.8919
11228TIP3    H155099   2.716   1.141  13.976 -0.4400 -0.3555  1.9422
11228TIP3    H255100   2.607   1.231  13.920  1.1874  0.6887  0.3230
11229TIP3   OH255101   1.652   6.192  12.976  0.1722 -0.2062 -0.3199
11229TIP3    H155102   1.598   6.122  13.011 -0.2521  0.6739  0.8369
11229TIP3    H255103   1.656   6.257  13.046  2.7017 -0.2072 -0.3449
11230TIP3   OH255104   4.719   6.323  12.345  0.1702 -0.2109 -0.3362
11230TIP3    H155105   4.690   6.306  12.256 -0.6330 -0.3386 -0.0525
11230TIP3    H255106   4.650   6.377  12.383  0.2126 -0.6604  0.3956
11231TIP3   OH255107   2.303   6.436  16.726  0.2136  0.0183  0.4918
11231TIP3    H155108   2.277   6.479  16.807 -0.0865 -0.6095  0.7314
11231TIP3    H255109   2.323   6.346  16.752 -0.0686 -0.2340 -0.1660
11232TIP3   OH255110   5.688   0.198  14.028  0.5934  0.0244 -1.2438
11232TIP3    H155111   5.606   0.150  14.045 -0.2651  1.4949 -1.0419
11232TIP3    H255112   5.746   0.134  13.988  0.0123 -1.5821  0.3346
11233TIP3   OH255113   2.887   0.852   5.224  0.0818 -0.4526  0.3752
11233TIP3    H155114   2.878   0.866   5.318 -1.9796  0.8571  0.0335
11233TIP3    H255115   2.798   0.835   5.193  0.1544  2.3609 -1.7679
11234TIP3   OH255116   0.468   5.948  11.178  0.2891 -0.5372  0.3258
11234TIP3    H155117   0.452   6.007  11.104 -0.1723 -0.7299  0.2732
11234TIP3    H255118   0.543   5.988  11.224  0.3371 -0.2146 -0.0280
11235TIP3   OH255119   2.615   3.746  14.953  0.0450  0.2040  0.1803
11235TIP3    H155120   2.637   3.687  15.025 -0.8515  1.1496  1.2728
11235TIP3    H255121   2.522   3.731  14.936  0.2740 -0.1039 -0.8894
11236TIP3   OH255122   4.406   3.084  16.360 -0.0806  0.7207  0.0331
11236TIP3    H155123   4.389   2.990  16.367  0.3387  0.7547  2.2582
11236TIP3    H255124   4.413   3.114  16.450 -0.6710  3.0045 -0.6079
11237TIP3   OH255125   1.253   1.195   3.209  0.3485  0.4698  0.1870
11237TIP3    H155126   1.245   1.260   3.139 -0.0469 -0.0111 -0.2226
11237TIP3    H255127   1.340   1.211   3.246  0.5435  0.7653 -0.3781
11238TIP3   OH255128   2.058   4.508  15.706  0.0752 -0.2053 -0.1709
11238TIP3    H155129   2.009   4.565  15.647  0.7539  0.6990  0.1020
11238TIP3    H255130   2.085   4.566  15.778 -1.8920 -1.5441  1.7732
11239TIP3   OH255131   0.921   1.141   0.941  0.2490  0.3426  0.3226
11239TIP3    H155132   1.006   1.183   0.958 -0.4294  2.1448 -0.4948
11239TIP3    H255133   0.909   1.148   0.846 -1.1932  0.9058  0.5194
11240TIP3   OH255134   4.360   0.558   1.983  0.4024  0.7243 -0.7756
11240TIP3    H155135   4.453   0.579   1.978  1.1887 -2.4288 -1.5099
11240TIP3    H255136   4.340   0.558   2.077  1.4904  0.2250 -0.5297
11241TIP3   OH255137   0.020   3.781  13.498 -0.0605 -0.2546 -0.1642
11241TIP3    H155138   0.114   3.799  13.492 -0.4359  1.8864 -0.9017
11241TIP3    H255139  -0.011   3.789  13.407 -1.1692  0.7158  0.2705
11242TIP3   OH255140   1.415   3.351  11.324  0.4813 -0.2302 -0.6209
11242TIP3    H155141   1.508   3.371  11.335  0.6817 -0.6639 -1.4586
11242TIP3    H255142   1.398   3.278  11.385  0.0966  1.3979  1.3307
11243TIP3   OH255143   4.890   4.822  11.879  0.0536 -0.0695 -0.0099
11243TIP3    H155144   4.831   4.857  11.946 -2.3629 -2.4957 -0.6935
11243TIP3    H255145   4.832   4.792  11.809  2.2718 -0.7719 -1.6706
11244TIP3   OH255146   4.800   0.405   0.977  0.4076  0.0157 -0.4005
11244TIP3    H155147   4.713   0.388   0.942 -0.2102  1.1265  0.5355
11244TIP3    H255148   4.816   0.334   1.039 -0.7056  0.8944  0.9386
11245TIP3   OH255149   6.366   0.695   1.983  0.1342 -0.0395  0.0826
11245TIP3    H155150   6.388   0.666   2.071 -0.4739  1.9710  0.9498
11245TIP3    H255151   6.441   0.747   1.955 -0.4319  0.8414  0.1664
11246TIP3   OH255152   0.569   0.108   4.384 -0.1444 -0.0334  0.0147
11246TIP3    H155153   0.487   0.082   4.341 -0.5539 -1.3692  1.5252
11246TIP3    H255154   0.632   0.042   4.357  0.7969  1.5689 -1.9985
11247TIP3   OH255155   0.914   1.427  15.253  0.2641  0.0434  0.3283
11247TIP3    H155156   0.952   1.384  15.177  1.7625 -1.6108  1.9311
11247TIP3    H255157   0.980   1.489  15.282 -0.9185  1.8010 -0.5440
11248TIP3   OH255158   0.588   5.508   1.211  0.5983  0.0292  0.4029
11248TIP3    H155159   0.514   5.450   1.192  2.2718 -2.3493  0.7689
11248TIP3    H255160   0.573   5.537   1.301  0.4610 -1.0109  0.7266
11249TIP3   OH255161   0.115   5.544  14.057  0.1362 -0.2990  0.0095
11249TIP3    H155162   0.193   5.488  14.057 -0.3967 -1.1329 -1.7961
11249TIP3    H255163   0.150   5.633  14.050  0.9404 -0.5839  0.2667
11250TIP3   OH255164   5.139   2.780  15.803  0.1356  0.5463 -0.4047
11250TIP3    H155165   5.210   2.748  15.858  0.1516  0.3117 -0.5594
11250TIP3    H255166   5.150   2.875  15.802  0.3440  0.5243 -0.2897
11251TIP3   OH255167   0.177   3.915  13.894  0.2274  1.3055 -0.3811
11251TIP3    H155168   0.135   3.858  13.959  1.8263  1.4007  0.8030
11251TIP3    H255169   0.112   3.923  13.824 -0.4541 -1.1260 -0.1241
11252TIP3   OH255170   2.046   6.368   3.932  0.3773 -0.0648 -0.0902
11252TIP3    H155171   2.071   6.454   3.963  3.1630 -0.8194 -0.0107
11252TIP3    H255172   2.061   6.371   3.837  1.0554 -0.6030 -0.0099
11253TIP3   OH255173   3.291   0.245  12.765 -0.0605  0.1224  0.1288
11253TIP3    H155174   3.196   0.260  12.771 -0.3849 -1.6156 -0.0580
11253TIP3    H255175   3.302   0.200  12.682  0.7919 -0.5868  0.6142
11254TIP3   OH255176   1.340   6.087  14.214 -0.2399  0.7656  0.6343
11254TIP3    H155177   1.379   6.000  14.206 -0.6366  0.7753 -2.6410
11254TIP3    H255178   1.254   6.071  14.253  0.9106  0.1776  3.1713
11255TIP3   OH255179   1.326   2.613  10.263  0.4250 -0.1240 -0.1324
11255TIP3    H155180   1.309   2.651  10.177  1.7743  1.6083  0.3048
11255TIP3    H255181   1.406   2.561  10.251  2.4610  2.5562  0.5891
11256TIP3   OH255182   4.868   6.664  15.125  0.6208 -0.3256 -0.2795
11256TIP3    H155183   4.804   6.700  15.186  0.0533 -0.0518 -1.0154
11256TIP3    H255184   4.911   6.594  15.174 -0.6121 -0.8737  0.0608
11257TIP3   OH255185   5.260   4.475   4.417 -0.4556  0.3065 -0.7771
11257TIP3    H155186   5.167   4.496   4.415 -0.1466  1.7238 -0.7252
11257TIP3    H255187   5.304   4.559   4.430  0.7586 -0.5572  1.0954
11258TIP3   OH255188   3.351   6.161   4.538  0.2653 -0.1696 -0.8086
11258TIP3    H155189   3.342   6.241   4.485 -0.7583 -0.2764 -0.8279
11258TIP3    H255190   3.287   6.100   4.499 -1.8419  0.3375  1.5908
11259TIP3   OH255191   1.031   4.965   4.605  0.1655 -0.5628  0.1585
11259TIP3    H155192   1.118   4.927   4.593  0.4714  0.9305 -3.3826
11259TIP3    H255193   0.971   4.898   4.574 -0.1069 -1.6833  2.8105
11260TIP3   OH255194   5.961   3.847   2.531 -0.0204 -0.3335 -0.4836
11260TIP3    H155195   6.054   3.825   2.530  0.4683  1.4875 -2.2604
11260TIP3    H255196   5.943   3.869   2.622  1.4947  0.0004 -0.2298
11261TIP3   OH255197   6.767   2.054  13.118 -0.3346 -0.5533 -0.4756
11261TIP3    H155198   6.828   1.983  13.138 -0.3545 -0.2471  0.7908
11261TIP3    H255199   6.783   2.075  13.026  0.0794 -1.7967 -0.7000
11262TIP3   OH255200   6.638   0.904  10.390  0.4739  0.2220  0.4481
11262TIP3    H155201   6.574   0.872  10.454 -0.0780  3.4711  1.7514
11262TIP3    H255202   6.662   0.827  10.339 -1.5409 -1.9025  2.4436
11263TIP3   OH255203   6.193   4.470  14.985  0.0812  0.0141  0.7299
11263TIP3    H155204   6.202   4.377  14.962 -0.1179  0.3819 -0.9988
11263TIP3    H255205   6.164   4.469  15.076  0.3448 -1.6091  0.8388
11264TIP3   OH255206   6.396   1.284  15.238 -0.8667 -0.1538 -0.1764
11264TIP3    H155207   6.465   1.342  15.205 -0.7802 -0.4065 -0.4488
11264TIP3    H255208   6.414   1.199  15.196 -1.5580 -0.1261 -0.5356
11265TIP3   OH255209   2.303   6.130   4.805 -0.0132  0.4400  0.7226
11265TIP3    H155210   2.304   6.059   4.869 -0.5231 -0.4051 -0.1768
11265TIP3    H255211   2.232   6.187   4.834 -1.1880 -0.6811  0.1732
11266TIP3   OH255212   2.880   4.608   5.786 -0.0685 -0.1221 -0.4430
11266TIP3    H155213   2.840   4.543   5.730 -0.6244 -0.3447  0.2023
11266TIP3    H255214   2.892   4.563   5.870 -1.9573  1.0492  0.5264
11267TIP3   OH255215   1.903   6.084   3.384  0.4499 -0.2088 -0.3078
11267TIP3    H155216   1.884   6.121   3.298  1.3120  0.2986 -0.3021
11267TIP3    H255217   1.939   6.158   3.433 -0.8347 -0.2738  0.7762
11268TIP3   OH255218   0.224   0.911  12.944  0.2448  0.3441  0.0400
11268TIP3    H155219   0.187   0.994  12.974 -0.1663 -0.0958  0.7617
11268TIP3    H255220   0.317   0.917  12.968  0.2215  0.5983  0.0767
11269TIP3   OH255221   2.018   5.061   4.976 -0.0634 -0.0897  0.0517
11269TIP3    H155222   1.967   4.984   4.949  0.8330 -0.6197 -0.1734
11269TIP3    H255223   1.966   5.100   5.046 -1.0871 -0.2573 -0.5820
11270TIP3   OH255224   5.617   0.974  14.121 -0.0759  0.1107  0.8714
11270TIP3    H155225   5.532   0.931  14.123 -0.0889 -0.1742 -1.8275
11270TIP3    H255226   5.679   0.904  14.100 -0.0105  1.0426 -2.9048
11271TIP3   OH255227   1.096   4.652   0.888  0.0135  0.2626  0.1074
11271TIP3    H155228   1.127   4.561   0.891  0.4534  0.3815 -0.5018
11271TIP3    H255229   1.152   4.698   0.950  1.1536  0.4923 -1.0474
11272TIP3   OH255230   4.255   4.957   4.071 -0.0011 -0.4822  0.0391
11272TIP3    H155231   4.345   4.991   4.068 -0.7389  1.6090  0.2061
11272TIP3    H255232   4.253   4.904   4.150  1.0613 -0.4467  0.1097
11273TIP3   OH255233   0.965   0.598  15.075  0.8483 -0.3762 -0.4336
11273TIP3    H155234   0.934   0.632  14.991  2.0199  0.9061 -0.3807
11273TIP3    H255235   1.039   0.542  15.052  0.2450 -1.2361 -0.3457
11274TIP3   OH255236   0.675   5.991   6.438  0.4549 -0.3222  0.2024
11274TIP3    H155237   0.638   6.076   6.463 -1.2629 -0.8885 -0.3062
11274TIP3    H255238   0.757   6.014   6.392 -0.0544  1.0723 -0.0708
11275TIP3   OH255239   6.110   3.462   0.818 -0.3670 -0.1523  0.0004
11275TIP3    H155240   6.019   3.479   0.840 -0.2100 -0.1351  0.6523
11275TIP3    H255241   6.107   3.388   0.758 -0.8118 -0.1239 -0.0117
11276TIP3   OH255242   1.412   4.368   0.534 -0.1631  0.4455  0.4607
11276TIP3    H155243   1.398   4.296   0.472 -0.5270 -1.2617  2.4387
11276TIP3    H255244   1.378   4.335   0.617  1.3019  2.2476  1.8514
11277TIP3   OH255245   0.580   6.728  16.762  0.2415  0.1832 -0.0979
11277TIP3    H155246   0.545   6.640  16.747 -1.0154  0.8763 -1.4981
11277TIP3    H255247   0.674   6.720  16.742  0.2552 -0.9502  0.3561
11278TIP3   OH255248   6.058   0.465   0.438 -0.2440 -0.1757  0.2092
11278TIP3    H155249   6.048   0.484   0.531 -0.5818  0.0783  0.1251
11278TIP3    H255250   6.001   0.389   0.423 -1.2926  0.6399 -0.0639
11279TIP3   OH255251   1.545   3.730   0.751  0.3555  0.2603 -0.2660
11279TIP3    H155252   1.466   3.762   0.707  0.3917 -0.1462 -0.6270
11279TIP3    H255253   1.533   3.757   0.842 -0.7155 -0.7249 -0.0871
11280TIP3   OH255254   4.253   0.675   5.403 -0.4430  0.6156 -0.4349
11280TIP3    H155255   4.213   0.667   5.490  0.3765  1.7105  0.0772
11280TIP3    H255256   4.191   0.727   5.353  0.6269  3.1041  0.6327
11281TIP3   OH255257   2.399   6.664   3.144 -0.0585  0.4633  0.2836
11281TIP3    H155258   2.326   6.637   3.088 -0.1921  2.1282 -0.4112
11281TIP3    H255259   2.476   6.626   3.104 -0.4570 -0.8000  0.6728
11282TIP3   OH255260   1.998   1.523   2.168 -0.3524  0.3120  0.1911
11282TIP3    H155261   1.969   1.552   2.082  1.5936 -0.0945 -0.6598
11282TIP3    H255262   2.005   1.603   2.219 -1.8854  0.5233  0.1335
11283TIP3   OH255263   5.945   2.262   5.995  0.1069 -0.0235  0.0643
11283TIP3    H155264   5.941   2.358   5.994  1.1939  0.0606 -1.9804
11283TIP3    H255265   5.872   2.235   5.940  0.9914 -0.2373 -1.0557
11284TIP3   OH255266   1.085   1.667  15.213  0.4080  0.3429  0.0352
11284TIP3    H155267   1.031   1.718  15.273 -0.6653 -0.6474 -0.0583
11284TIP3    H255268   1.156   1.727  15.188 -0.1980  1.4053  0.7688
11285TIP3   OH255269   4.152   3.078   3.843  0.3696 -0.3568  0.1594
11285TIP3    H155270   4.118   3.165   3.821 -0.5952 -1.2734 -2.2884
11285TIP3    H255271   4.244   3.081   3.816 -0.1011 -0.5827 -1.6167
11286TIP3   OH255272   4.425   3.926  12.988 -0.1566 -0.3319  0.3190
11286TIP3    H155273   4.419   4.004  13.043  1.4134 -1.2552  1.8996
11286TIP3    H255274   4.484   3.952  12.917  1.1349 -0.3310  1.3600
11287TIP3   OH255275   5.165   3.731   5.149  0.2331  0.5131 -0.1125
11287TIP3    H155276   5.234   3.777   5.102 -0.3141  0.6045 -0.8487
11287TIP3    H255277   5.165   3.643   5.112  0.5451  0.2391  0.5202
11288TIP3   OH255278   5.094   5.888  14.137 -0.1223 -0.6034  0.9697
11288TIP3    H155279   5.152   5.843  14.197  1.4684 -0.4715 -0.3936
11288TIP3    H255280   5.109   5.981  14.153 -0.2328 -0.5655  0.8641
11289TIP3   OH255281   0.470   0.522   2.556 -0.5090 -0.0346  0.1850
11289TIP3    H155282   0.509   0.602   2.521 -1.0380 -0.0599 -0.4809
11289TIP3    H255283   0.444   0.472   2.479 -0.0667 -0.9111  0.5976
11290TIP3   OH255284   4.089   0.224  12.449  0.5487  0.4629 -0.2451
11290TIP3    H155285   4.029   0.157  12.481 -0.5753  0.8133 -1.5449
11290TIP3    H255286   4.051   0.307  12.479  0.9351  0.6307 -0.2091
11291TIP3   OH255287   6.553   1.354   5.477 -0.2637 -0.1846 -0.2333
11291TIP3    H155288   6.600   1.271   5.475 -0.9079 -0.6977  2.3662
11291TIP3    H255289   6.599   1.410   5.415  1.2163 -1.9347 -0.7848
11292TIP3   OH255290   3.975   1.702  14.273 -0.5216 -0.4151  0.2956
11292TIP3    H155291   3.910   1.644  14.312 -0.9023 -0.4497 -0.3845
11292TIP3    H255292   3.947   1.790  14.299 -0.2116 -0.5016  0.9300
11293TIP3   OH255293   1.509   6.805   5.365 -0.0046  0.2270  0.0963
11293TIP3    H155294   1.493   6.738   5.431 -0.5939 -1.1792 -1.4042
11293TIP3    H255295   1.574   6.766   5.307 -0.6175  0.8090 -1.0143
11294TIP3   OH255296   5.528   4.494  15.056 -0.2230 -0.3346  0.1569
11294TIP3    H155297   5.556   4.407  15.083 -1.1762 -0.4334  0.9082
11294TIP3    H255298   5.432   4.488  15.051 -0.4010  0.9588  1.3372
11295TIP3   OH255299   6.685   1.069  10.603  0.2508 -0.4302  0.1847
11295TIP3    H155300   6.750   1.019  10.652  1.7240  0.9139 -0.3289
11295TIP3    H255301   6.673   1.019  10.522  3.1647  0.8728 -1.2084
11296TIP3   OH255302   3.538   2.338   2.938 -0.0675 -0.4163 -0.4616
11296TIP3    H155303   3.515   2.248   2.915  0.0928 -0.8663  1.0389
11296TIP3    H255304   3.491   2.355   3.019 -0.9722  1.2633 -1.2732
11297TIP3   OH255305   1.011   0.937   1.911  0.5355 -0.2446  0.4819
11297TIP3    H155306   1.036   0.908   1.823 -0.4699 -0.4497  0.2465
11297TIP3    H255307   1.094   0.949   1.957  1.2725  2.5191 -1.2994
11298TIP3   OH255308   0.049   3.244  10.881 -0.2866 -0.2251  0.4300
11298TIP3    H155309   0.001   3.169  10.845  1.0297 -1.0280  0.2944
11298TIP3    H255310   0.015   3.320  10.833 -1.4067 -0.7622  0.3396
11299TIP3   OH255311   2.294   2.366   1.776 -0.1497 -0.4811  0.0023
11299TIP3    H155312   2.284   2.307   1.851  0.6109  0.4061  0.8320
11299TIP3    H255313   2.224   2.431   1.788  0.9777  0.6308  0.9196
11300TIP3   OH255314   2.828   0.658   4.895  0.5831 -0.2557  0.1664
11300TIP3    H155315   2.781   0.708   4.961 -0.9418 -3.2272  1.5263
11300TIP3    H255316   2.920   0.679   4.909  0.0744  1.6217  1.0227
11301TIP3   OH255317   3.587   6.584  15.678  0.1142  0.1253 -0.0003
11301TIP3    H155318   3.656   6.641  15.646 -0.2436  0.9604  0.6979
11301TIP3    H255319   3.541   6.555  15.598  1.6762 -1.0102 -0.5341
11302TIP3   OH255320   0.360   6.161  10.427  0.2889 -0.4724  0.0467
11302TIP3    H155321   0.349   6.235  10.486 -0.8586  0.0716 -0.8056
11302TIP3    H255322   0.449   6.130  10.443 -0.0891 -0.5330  2.2308
11303TIP3   OH255323   6.159   3.718   3.993 -0.1251 -0.2360  0.5141
11303TIP3    H155324   6.083   3.711   4.051 -0.0331 -0.5620  0.6023
11303TIP3    H255325   6.170   3.811   3.977  0.3899 -0.0639  1.7472
11304TIP3   OH255326   0.671   3.160  14.835 -0.0922  0.3945 -0.2641
11304TIP3    H155327   0.601   3.207  14.881 -0.9155  0.3153 -1.3823
11304TIP3    H255328   0.747   3.170  14.891 -0.0248  3.6677 -0.7196
11305TIP3   OH255329   3.863   0.578   1.552  0.0300 -0.2969  0.1396
11305TIP3    H155330   3.846   0.648   1.614 -0.5520  1.9434 -2.3543
11305TIP3    H255331   3.843   0.497   1.600  0.5810  1.1978  3.0839
11306TIP3   OH255332   1.918   2.199   1.329 -0.1946  0.2452  0.1131
11306TIP3    H155333   1.844   2.150   1.292 -0.6350 -0.0612  1.3371
11306TIP3    H255334   1.886   2.227   1.415  1.6100 -1.1936  1.3277
11307TIP3   OH255335   3.218   5.808   3.533  0.1802 -0.2585  0.4536
11307TIP3    H155336   3.158   5.734   3.537  0.6172 -0.6116  0.7105
11307TIP3    H255337   3.291   5.776   3.479  1.8469 -1.1626  3.0407
11308TIP3   OH255338   2.864   6.161  13.824  0.8896  0.2170  0.7352
11308TIP3    H155339   2.787   6.155  13.881 -1.0714  0.2962 -1.7151
11308TIP3    H255340   2.846   6.237  13.768  1.6644 -1.0493 -1.3619
11309TIP3   OH255341   0.389   4.092   3.733 -0.1091  0.7352  0.0361
11309TIP3    H155342   0.403   4.012   3.683  0.5461  0.5663  0.4814
11309TIP3    H255343   0.476   4.119   3.760 -0.5131  0.1590  2.0987
11310TIP3   OH255344   0.417   0.101  12.186  0.1863  0.6927  0.0360
11310TIP3    H155345   0.373   0.029  12.141  0.1580  1.1747 -0.7204
11310TIP3    H255346   0.396   0.088  12.279 -0.0641 -0.0973 -0.1281
11311TIP3   OH255347   6.576   2.551   0.131 -0.0433 -0.0079  0.3375
11311TIP3    H155348   6.670   2.557   0.149  0.0145 -0.9468  0.4303
11311TIP3    H255349   6.539   2.633   0.163  0.7774  0.4587  0.1010
11312TIP3   OH255350   2.031   4.609  12.162  0.4136  0.3965 -0.5594
11312TIP3    H155351   2.119   4.624  12.127  0.6654 -1.0718 -0.6417
11312TIP3    H255352   2.002   4.529  12.118 -1.0981  1.0345 -0.7649
11313TIP3   OH255353   0.842   4.027  12.118 -0.7484 -0.4627  0.1933
11313TIP3    H155354   0.892   4.105  12.142 -0.9671 -0.5414  0.9133
11313TIP3    H255355   0.751   4.052  12.130 -0.7869 -1.2687  1.8409
11314TIP3   OH255356   0.010   1.940  14.993  0.1995  0.4211  0.4164
11314TIP3    H155357  -0.085   1.951  14.984  0.3140  1.0265 -0.1219
11314TIP3    H255358   0.036   2.007  15.056  0.4657  1.2220 -0.5275
11315TIP3   OH255359   2.034   0.925   5.078  0.1320  0.8878  0.2791
11315TIP3    H155360   1.965   0.879   5.031 -1.5914  2.8534  0.7346
11315TIP3    H255361   2.058   0.866   5.149  1.2746 -1.2006 -1.6749
11316TIP3   OH255362   1.695   5.745   2.938 -0.1551 -0.0515 -0.2030
11316TIP3    H155363   1.691   5.832   2.898 -2.0397 -0.0644 -0.1245
11316TIP3    H255364   1.723   5.762   3.029 -2.1776  0.7056  0.3267
11317TIP3   OH255365   0.434   4.005  13.869 -0.3260 -0.1589  0.1398
11317TIP3    H155366   0.348   3.964  13.863  0.7059 -2.4766 -0.0548
11317TIP3    H255367   0.493   3.933  13.894  1.5977  1.2608 -0.0907
11318TIP3   OH255368   1.270   4.729   5.078  0.1828  0.5383  0.6442
11318TIP3    H155369   1.341   4.737   5.142 -0.4113 -1.3659  1.6473
11318TIP3    H255370   1.194   4.706   5.131 -0.8572  1.1646 -0.5500
11319TIP3   OH255371   5.800   5.708   1.368 -0.7066  0.0483  0.8936
11319TIP3    H155372   5.760   5.778   1.419 -1.0167  0.1377  0.5360
11319TIP3    H255373   5.865   5.670   1.426 -0.1136  1.0213  0.8991
11320TIP3   OH255374   1.638   2.672   2.459  0.3612  0.0832 -0.3973
11320TIP3    H155375   1.623   2.603   2.524 -1.7997  0.6208 -0.2357
11320TIP3    H255376   1.635   2.627   2.375 -1.0672 -0.0845 -0.2955
11321TIP3   OH255377   1.768   3.179   3.545 -0.6595 -0.0468  0.1085
11321TIP3    H155378   1.730   3.262   3.575  2.1502  1.3035  0.2848
11321TIP3    H255379   1.754   3.180   3.450  0.0187  1.0478  0.0018
11322TIP3   OH255380   1.934   0.516  15.388  0.1915  0.5776 -0.2783
11322TIP3    H155381   1.991   0.582  15.350  1.3774 -0.3531 -0.1957
11322TIP3    H255382   1.864   0.565  15.429  0.9663  1.7699 -0.3352
11323TIP3   OH255383   4.665   0.597  16.068  0.2665  0.0162  0.1839
11323TIP3    H155384   4.617   0.515  16.076 -1.0319  0.5172 -1.7256
11323TIP3    H255385   4.737   0.589  16.131  1.5393 -3.5407 -1.4183
11324TIP3   OH255386   3.927   3.201  15.262  0.1527 -0.1540  0.0429
11324TIP3    H155387   3.874   3.246  15.196 -0.9804 -1.9273 -0.3067
11324TIP3    H255388   3.870   3.193  15.338  0.8356  0.2396  0.6185
11325TIP3   OH255389   1.245   2.528  10.514 -0.3172  0.7347  0.0415
11325TIP3    H155390   1.280   2.565  10.594 -1.0168  0.0125  0.6952
11325TIP3    H255391   1.269   2.591  10.446  0.2553  1.3664  0.8097
11326TIP3   OH255392   2.105   2.641   5.580  0.5845  0.3633  0.1827
11326TIP3    H155393   2.068   2.586   5.511 -2.2166  0.4282  1.4945
11326TIP3    H255394   2.191   2.602   5.599  0.0475 -1.5720 -1.1240
11327TIP3   OH255395   5.971   5.245  11.115  0.5818 -0.1337 -0.3845
11327TIP3    H155396   5.900   5.285  11.166  1.7558  1.2989  0.1848
11327TIP3    H255397   6.051   5.284  11.150  1.5464 -0.3907 -2.1963
11328TIP3   OH255398   6.393   6.688   3.027  0.1031  0.3547 -0.2441
11328TIP3    H155399   6.473   6.643   2.997  0.3432  0.0240  0.8497
11328TIP3    H255400   6.423   6.776   3.051  0.0914  0.3134 -0.0771
11329TIP3   OH255401   4.772   5.683   4.094  0.4389 -0.5942  0.1142
11329TIP3    H155402   4.791   5.590   4.091  0.4006 -0.7162  2.2545
11329TIP3    H255403   4.681   5.689   4.122  0.5752  0.0810  0.4562
11330TIP3   OH255404   1.252   1.027   5.107 -0.0298  0.0735  0.2657
11330TIP3    H155405   1.253   0.933   5.126 -0.8946  0.2884  1.4537
11330TIP3    H255406   1.306   1.036   5.028  0.2858 -1.3804  0.2928
11331TIP3   OH255407   1.674   0.704   2.968  0.0866 -0.3969  0.1899
11331TIP3    H155408   1.625   0.725   3.048  0.5928  1.0265  0.1641
11331TIP3    H255409   1.627   0.752   2.899  1.1015  0.4516  0.0645
11332TIP3   OH255410   4.354   0.101  13.056 -0.3354  0.2332  0.6144
11332TIP3    H155411   4.289   0.083  12.988  1.0002  0.1485 -0.6798
11332TIP3    H255412   4.321   0.055  13.133 -1.8406  0.2525  0.0165
11333TIP3   OH255413   0.762   3.246  14.033  0.4893 -0.1098  0.2435
11333TIP3    H155414   0.764   3.152  14.018  0.5603 -0.0890  0.1249
11333TIP3    H255415   0.734   3.283  13.949  0.4148 -0.0282  0.3034
11334TIP3   OH255416   3.326   3.528  12.842  0.3700  0.0070  0.2319
11334TIP3    H155417   3.391   3.457  12.841  1.5421  0.9847  1.9431
11334TIP3    H255418   3.377   3.607  12.822 -0.5415  0.6330  0.3060
11335TIP3   OH255419   1.618   1.805   1.985  0.2027 -0.4140  0.0930
11335TIP3    H155420   1.526   1.815   1.962  0.0776  0.3668  0.8781
11335TIP3    H255421   1.618   1.742   2.058  0.2971 -0.4822  0.0337
11336TIP3   OH255422   6.795   6.191  11.365 -0.2504  0.0446 -0.6108
11336TIP3    H155423   6.710   6.218  11.400  0.4979 -0.1456  1.5156
11336TIP3    H255424   6.849   6.270  11.369  0.6662 -0.6141  1.4877
11337TIP3   OH255425   0.582   4.423   2.825 -0.6613 -0.2593  0.2900
11337TIP3    H155426   0.630   4.341   2.842  0.4879 -0.6155 -3.7448
11337TIP3    H255427   0.650   4.489   2.817 -1.3572  0.4704  0.3221
11338TIP3   OH255428   0.231   5.046   2.205  0.0400 -0.1261  0.1681
11338TIP3    H155429   0.137   5.026   2.205  0.5502 -2.9964  0.7249
11338TIP3    H255430   0.246   5.091   2.289 -0.9644  1.4096 -0.4307
11339TIP3   OH255431   1.436   0.491   2.121  0.1120  0.1229  0.2125
11339TIP3    H155432   1.512   0.498   2.180  0.4830 -0.2882 -0.2092
11339TIP3    H255433   1.430   0.578   2.081 -0.4646  0.5720  1.2336
11340TIP3   OH255434   0.901   5.758   6.520  0.1174 -0.5667 -0.4474
11340TIP3    H155435   0.990   5.746   6.552 -0.4627 -0.4388  1.3510
11340TIP3    H255436   0.864   5.825   6.578 -0.4554  1.0863 -2.6273
11341TIP3   OH255437   1.959   4.597   2.789  0.4224  0.3057 -0.0848
11341TIP3    H155438   1.943   4.691   2.795 -0.7539  0.0871  0.5112
11341TIP3    H255439   2.017   4.578   2.863 -0.9836  0.2612  1.0526
11342TIP3   OH255440   1.880   3.479  16.855  0.5391  0.4449  0.1296
11342TIP3    H155441   1.943   3.407  16.858 -0.6248 -0.6322 -0.0558
11342TIP3    H255442   1.812   3.448  16.795 -1.2427  0.6321  1.9289
11343TIP3   OH255443   6.035   0.541   4.947 -0.0963 -0.0425  0.1328
11343TIP3    H155444   6.121   0.502   4.930  0.1788 -0.3220  2.0228
11343TIP3    H255445   5.980   0.510   4.875  0.7606 -1.8915  0.2267
11344TIP3   OH255446   4.211   5.863  16.735  0.2106 -0.4641 -0.2496
11344TIP3    H155447   4.275   5.915  16.686  1.5617 -0.1153  1.7230
11344TIP3    H255448   4.214   5.777  16.694  0.0373  0.2366 -1.7988
11345TIP3   OH255449   6.583   6.385  12.317  0.3406 -0.4925  0.0693
11345TIP3    H155450   6.583   6.471  12.275  0.3942 -0.6741 -0.3050
11345TIP3    H255451   6.614   6.402  12.406  1.2186 -0.2527 -0.2757
11346TIP3   OH255452   1.171   1.369   4.949  0.3169  0.2825  0.2106
11346TIP3    H155453   1.135   1.451   4.914 -0.8606 -0.5415 -0.5837
11346TIP3    H255454   1.145   1.369   5.041 -0.2029  0.5276  0.0683
11347TIP3   OH255455   4.804   5.443  12.417  0.0614  0.4353  0.1350
11347TIP3    H155456   4.772   5.524  12.458  0.2437  0.3178  0.5211
11347TIP3    H255457   4.882   5.470  12.369 -1.6968  1.1121 -2.5009
11348TIP3   OH255458   3.504   0.653  10.747 -0.3403  0.3016 -0.5714
11348TIP3    H155459   3.459   0.680  10.666 -0.2102  1.1003 -0.3884
11348TIP3    H255460   3.596   0.651  10.723 -0.4263 -0.9792 -0.8474
11349TIP3   OH255461   5.188   4.251   6.384  0.0065  0.2771  0.9503
11349TIP3    H155462   5.120   4.318   6.376 -2.3429 -2.1517 -1.4433
11349TIP3    H255463   5.157   4.179   6.329  2.6728 -2.5669  2.8623
11350TIP3   OH255464   4.434   4.175  15.751 -0.3793 -0.7082 -0.2959
11350TIP3    H155465   4.467   4.113  15.686 -0.5687 -0.3738 -0.7174
11350TIP3    H255466   4.433   4.259  15.705 -0.8976 -0.5409  0.0157
11351TIP3   OH255467   2.034   6.545   2.422  0.0845 -0.0113  0.7605
11351TIP3    H155468   2.001   6.464   2.459  0.3215 -0.3603  0.2160
11351TIP3    H255469   2.015   6.611   2.488 -3.0507  0.1017 -0.1006
11352TIP3   OH255470   1.797   5.447   2.877 -0.1365 -0.0336  0.9625
11352TIP3    H155471   1.765   5.536   2.891 -1.5003 -0.4202  0.3877
11352TIP3    H255472   1.805   5.439   2.782 -1.7654 -1.0913  0.8745
11353TIP3   OH255473   0.861   5.272   0.108 -0.0696 -0.3479 -0.2368
11353TIP3    H155474   0.923   5.213   0.066  1.1950  0.1239  0.9267
11353TIP3    H255475   0.854   5.346   0.047 -0.5419 -1.0116 -1.0041
11354TIP3   OH255476   1.219   1.594   5.132 -0.2310 -0.9224 -0.0863
11354TIP3    H155477   1.178   1.606   5.046  0.4977 -1.0734 -0.4682
11354TIP3    H255478   1.169   1.650   5.191 -0.2251 -0.1752 -0.7737
11355TIP3   OH255479   1.933   6.619   1.877 -0.0003 -0.2665  0.2238
11355TIP3    H155480   1.872   6.559   1.920 -0.6120  0.4772  0.4179
11355TIP3    H255481   1.884   6.654   1.803  0.2490  0.1885  0.2651
11356TIP3   OH255482   5.950   0.830   1.717 -0.0384  0.6222 -0.0137
11356TIP3    H155483   6.045   0.815   1.716 -0.1987 -0.4686 -1.5774
11356TIP3    H255484   5.912   0.742   1.716 -1.0603  1.0560 -0.7409
11357TIP3   OH255485   5.760   3.132  16.879  0.1473  0.7188 -0.4672
11357TIP3    H155486   5.846   3.171  16.862  1.4135 -2.5401 -2.4896
11357TIP3    H255487   5.703   3.170  16.811  0.1167  2.2548  0.3609
11358TIP3   OH255488   0.114   4.574   2.369  0.2760  0.5823  0.1466
11358TIP3    H155489   0.176   4.501   2.361 -1.4593 -0.9014 -0.3455
11358TIP3    H255490   0.124   4.605   2.459  1.2503 -0.0639  0.2765
11359TIP3   OH255491   2.229   2.202  15.961 -0.2491 -0.5542 -0.5002
11359TIP3    H155492   2.279   2.124  15.983 -0.3876 -0.6625 -0.5699
11359TIP3    H255493   2.266   2.271  16.016  0.1893 -0.5623 -0.7841
11360TIP3   OH255494   5.490   2.333   2.635  0.0638 -0.3871  0.1030
11360TIP3    H155495   5.491   2.388   2.714  2.9201 -1.8517  1.2574
11360TIP3    H255496   5.427   2.264   2.655  1.9979 -1.7556  2.0252
11361TIP3   OH255497   0.072   2.951  11.940  0.1266 -0.0876  0.7540
11361TIP3    H155498   0.157   2.968  11.981  0.1524  2.3710 -0.1261
11361TIP3    H255499   0.012   2.940  12.014  0.9047 -0.0570  1.4040
11362TIP3   OH255500   0.628   2.155  14.773  0.0527 -0.3846  0.2048
11362TIP3    H155501   0.663   2.074  14.736 -0.3887  0.1237 -1.4290
11362TIP3    H255502   0.680   2.225  14.732 -1.7215  0.3023 -0.9940
11363TIP3   OH255503   3.976   6.525  15.618  0.3114  0.0760  0.5375
11363TIP3    H155504   4.013   6.540  15.705 -0.5556  1.1287  0.7411
11363TIP3    H255505   3.972   6.611  15.577 -0.6822 -0.1887  0.0294
11364TIP3   OH255506   3.363   3.090   1.764  0.2218 -0.7464 -0.4409
11364TIP3    H155507   3.332   3.069   1.675 -1.6161  1.6740 -0.4805
11364TIP3    H255508   3.293   3.059   1.821  1.1776 -1.8509  0.1694
11365TIP3   OH255509   0.284   4.033   2.120  0.4525 -0.2140  0.2595
11365TIP3    H155510   0.238   4.092   2.060 -0.7001  0.6597  1.9020
11365TIP3    H255511   0.249   3.947   2.099 -2.3737  0.4440  1.6464
11366TIP3   OH255512   6.464   1.683   2.117 -0.1315  0.3034  0.3095
11366TIP3    H155513   6.547   1.714   2.080  0.0669  1.5602  1.6966
11366TIP3    H255514   6.413   1.763   2.131 -0.7775 -0.2625  1.2983
11367TIP3   OH255515   5.604   1.497  11.586 -0.4078  0.2370  0.4953
11367TIP3    H155516   5.511   1.515  11.574 -0.6049 -1.0193  0.0452
11367TIP3    H255517   5.648   1.574  11.549 -1.2078 -0.3717 -1.8782
11368TIP3   OH255518   2.944   4.888   5.777  0.3833 -0.1978  0.1182
11368TIP3    H155519   2.908   4.800   5.784 -0.2109 -0.1547 -1.7902
11368TIP3    H255520   2.958   4.901   5.683  0.6182  1.6762  0.3740
11369TIP3   OH255521   3.532   2.015   2.557 -0.2218 -0.1495 -0.3032
11369TIP3    H155522   3.505   2.107   2.554 -0.8184 -0.3440 -1.2261
11369TIP3    H255523   3.628   2.019   2.556 -0.2328  0.4733  0.2659
11370TIP3   OH255524   4.642   4.355   3.294  0.4206  0.1657  0.3157
11370TIP3    H155525   4.559   4.346   3.341  0.4482 -2.0755  0.0841
11370TIP3    H255526   4.664   4.447   3.300 -1.7174  0.6828  1.0173
11371TIP3   OH255527   6.532   0.973  11.383  0.1521  0.4402 -0.4406
11371TIP3    H155528   6.538   1.028  11.304 -0.4560 -0.9564 -1.4879
11371TIP3    H255529   6.464   0.909  11.363  0.0509 -0.0056  1.2033
11372TIP3   OH255530   0.613   0.652  13.095 -0.3014 -0.3619  0.3639
11372TIP3    H155531   0.559   0.595  13.150  0.4032 -1.4466 -0.0410
11372TIP3    H255532   0.650   0.717  13.156 -1.2185 -0.2310  0.8063
11373TIP3   OH255533   4.965   1.666  11.667  0.2579 -0.1332 -0.8180
11373TIP3    H155534   5.042   1.648  11.721 -0.7015  0.9788  1.0195
11373TIP3    H255535   4.987   1.745  11.618  0.5767 -0.2738 -0.9007
11374TIP3   OH255536   2.362   4.203   0.924 -0.2416  0.4332  0.2725
11374TIP3    H155537   2.344   4.287   0.966  0.1860  0.3636  0.6009
11374TIP3    H255538   2.426   4.161   0.981  1.7575  1.1015 -1.3582
11375TIP3   OH255539   4.512   3.739  15.879 -0.3090 -0.5689 -0.2950
11375TIP3    H155540   4.481   3.771  15.963 -1.9235 -0.5417 -0.8635
11375TIP3    H255541   4.588   3.684  15.901  1.4183  2.0838  0.8506
11376TIP3   OH255542   4.087   1.542   6.478  0.6227 -0.3632  0.6119
11376TIP3    H155543   4.097   1.465   6.534 -0.2573  0.4346  1.9398
11376TIP3    H255544   3.995   1.541   6.452  0.4518  0.5126  1.1123
11377TIP3   OH255545   4.960   2.028   1.634  0.2899  0.4112 -0.2382
11377TIP3    H155546   4.994   2.105   1.680  0.0708  0.7514 -0.6336
11377TIP3    H255547   4.872   2.054   1.605 -0.4339 -0.5629  1.0204
11378TIP3   OH255548   5.400   5.952  15.403 -0.0571  0.2550  0.2803
11378TIP3    H155549   5.371   5.957  15.312 -1.2635 -3.0322  0.3509
11378TIP3    H255550   5.494   5.935  15.397  0.6092  3.4505 -0.1455
11379TIP3   OH255551   5.157   1.098   2.418  0.8573 -0.1205  0.1999
11379TIP3    H155552   5.240   1.093   2.466 -0.5291 -0.5446  2.7315
11379TIP3    H255553   5.100   1.149   2.476  0.0474  2.4281 -2.6343
11380TIP3   OH255554   1.831   1.024   2.128 -0.3668  0.1518  0.2193
11380TIP3    H155555   1.797   1.078   2.200 -1.9112  0.7226 -0.8675
11380TIP3    H255556   1.789   0.939   2.140 -0.6843  0.2698 -0.0281
11381TIP3   OH255557   5.576   3.373  15.955 -0.7059 -0.1243 -0.1419
11381TIP3    H155558   5.584   3.410  16.043 -1.3782 -1.0736  0.3319
11381TIP3    H255559   5.666   3.370  15.922 -0.6305  1.9992 -0.2515
11382TIP3   OH255560   2.078   6.700  14.477 -0.6763  0.4103  0.8281
11382TIP3    H155561   2.034   6.750  14.546  0.1746  0.1527  1.5783
11382TIP3    H255562   2.013   6.694  14.407 -1.8571 -0.0106  1.9107
11383TIP3   OH255563   0.631   6.445   1.925  0.1680 -0.4695 -0.3263
11383TIP3    H155564   0.573   6.369   1.916  0.1986 -0.3167 -2.1975
11383TIP3    H255565   0.584   6.504   1.983 -1.3032 -0.6109 -1.3099
11384TIP3   OH255566   2.635   5.618   1.057  0.0309 -0.1921 -0.4647
11384TIP3    H155567   2.669   5.654   1.138 -1.2643  1.3591 -0.5569
11384TIP3    H255568   2.556   5.570   1.082  0.7918 -1.5546 -0.5696
11385TIP3   OH255569   0.499   4.858   6.126  0.2256 -0.3109  0.1313
11385TIP3    H155570   0.542   4.914   6.191  0.1503 -2.3894  2.0876
11385TIP3    H255571   0.406   4.869   6.143  0.1653 -0.1101 -0.3147
11386TIP3   OH255572   2.477   1.809  13.920 -0.3649 -0.0038  0.3119
11386TIP3    H155573   2.491   1.904  13.924 -0.1990 -0.0514  1.1411
11386TIP3    H255574   2.431   1.795  13.838  2.0167  0.4801 -1.2025
11387TIP3   OH255575   5.123   4.318   0.205  0.1037 -0.1782  0.7186
11387TIP3    H155576   5.188   4.373   0.161  1.1074 -0.2012  2.1124
11387TIP3    H255577   5.094   4.371   0.279  1.9149 -1.8680  2.7651
11388TIP3   OH255578   1.431   6.742   5.039  0.0082 -0.2569 -0.2446
11388TIP3    H155579   1.340   6.767   5.024 -0.1392 -0.7141 -0.1069
11388TIP3    H255580   1.455   6.692   4.961  0.4077  0.5680 -0.6741
11389TIP3   OH255581   2.148   1.131  16.021  0.3577  1.0367 -0.0939
11389TIP3    H155582   2.061   1.097  16.039  1.3669 -1.4259  0.4945
11389TIP3    H255583   2.168   1.102  15.932  1.2298  0.0059  0.4124
11390TIP3   OH255584   2.005   1.383  10.670  0.0118 -0.0923  0.6368
11390TIP3    H155585   1.910   1.373  10.665  0.0802 -1.0939  1.0501
11390TIP3    H255586   2.035   1.305  10.718  1.0868 -0.0762  0.0323
11391TIP3   OH255587   1.558   6.022   5.957 -0.2822 -0.5717  0.0638
11391TIP3    H155588   1.597   5.994   5.875  0.2271  0.2519  0.0135
11391TIP3    H255589   1.514   5.944   5.991  0.4489 -1.2164 -0.4407
11392TIP3   OH255590   3.789   3.304  13.711  0.7678  0.0481  0.2597
11392TIP3    H155591   3.726   3.273  13.646 -1.4180 -2.1356  3.1299
11392TIP3    H255592   3.853   3.233  13.718 -0.1096 -0.6388  1.7498
11393TIP3   OH255593   3.543   0.815  16.658  0.1417  0.0416  0.3119
11393TIP3    H155594   3.549   0.756  16.583 -0.6997 -0.1389  0.3694
11393TIP3    H255595   3.450   0.812  16.682  0.3457  0.3566  1.1511
11394TIP3   OH255596   4.111   6.804   2.329  0.4287  0.5081  0.3475
11394TIP3    H155597   4.066   6.782   2.247  2.5570  0.7087 -0.9565
11394TIP3    H255598   4.126   6.898   2.324 -1.3220  0.9419  2.0425
11395TIP3   OH255599   3.803   3.825   2.999 -0.4694 -0.4933 -0.3616
11395TIP3    H155600   3.728   3.769   3.018  0.0235 -0.9016  0.3807
11395TIP3    H255601   3.765   3.901   2.953 -1.4921 -0.1320  1.0389
11396TIP3   OH255602   6.633   1.970   2.283 -0.3874 -0.1036 -0.4694
11396TIP3    H155603   6.698   1.923   2.231 -1.1654 -1.0689 -0.6146
11396TIP3    H255604   6.678   2.049   2.312  0.6611 -0.4651 -1.0357
11397TIP3   OH255605   4.259   0.758   1.134 -0.0355  0.2260  0.0002
11397TIP3    H155606   4.306   0.688   1.179 -0.7841 -0.5364 -0.3789
11397TIP3    H255607   4.199   0.793   1.200  1.1231  1.2882  0.5236
11398TIP3   OH255608   2.061   5.921   0.903  0.5755 -0.1956  0.1865
11398TIP3    H155609   2.144   5.935   0.859  0.8935 -2.1096  0.0835
11398TIP3    H255610   1.998   5.976   0.856  1.6908  0.9901  0.0408
11399TIP3   OH255611   2.565   5.615  15.821  0.5895 -0.1796 -0.4645
11399TIP3    H155612   2.519   5.690  15.859 -0.1379 -1.0905  0.5623
11399TIP3    H255613   2.608   5.574  15.896  0.4890 -1.0991 -0.8987
11400TIP3   OH255614   4.053   0.335  13.204 -0.3671 -0.0275  0.0030
11400TIP3    H155615   3.978   0.390  13.229  0.6391  2.4415 -1.8911
11400TIP3    H255616   4.026   0.293  13.122 -0.0766  0.0080 -0.1123
11401TIP3   OH255617   4.291   2.389   1.319 -0.1515 -0.2349 -0.1853
11401TIP3    H155618   4.385   2.400   1.304 -0.3542 -1.2406 -2.5827
11401TIP3    H255619   4.252   2.397   1.232 -2.4012  0.9527  0.8626
11402TIP3   OH255620   0.918   3.341  16.315 -0.3426  0.2446 -0.3583
11402TIP3    H155621   0.874   3.320  16.233 -0.7479  1.2518 -0.4107
11402TIP3    H255622   0.960   3.259  16.341 -1.5432 -0.5202 -0.7422
11403TIP3   OH255623   1.889   5.247   2.669 -0.2455  0.2541 -0.1124
11403TIP3    H155624   1.859   5.272   2.582 -1.4568  1.9391  0.7256
11403TIP3    H255625   1.983   5.232   2.659 -0.4991 -0.3857 -1.8434
11404TIP3   OH255626   4.030   5.502   2.645  0.1812 -0.7117 -0.1951
11404TIP3    H155627   4.057   5.441   2.575 -0.7282 -1.4294  0.0534
11404TIP3    H255628   3.957   5.551   2.607 -0.5411 -1.3409  0.3491
11405TIP3   OH255629   1.162   0.773  12.004 -0.1275  0.0152  0.1610
11405TIP3    H155630   1.113   0.739  11.929 -2.5908  0.3564  1.4926
11405TIP3    H255631   1.232   0.709  12.018  0.5923  0.0885 -2.5219
11406TIP3   OH255632   3.540   5.718   3.178  0.0400  0.5085 -0.4414
11406TIP3    H155633   3.557   5.806   3.210 -0.2848  0.8159 -1.0949
11406TIP3    H255634   3.514   5.730   3.087 -2.4349 -0.0174  0.1220
11407TIP3   OH255635   2.979   2.333  16.739 -0.6911  0.8070 -0.0861
11407TIP3    H155636   2.912   2.362  16.677  0.6008  1.6953 -1.1145
11407TIP3    H255637   3.008   2.413  16.783 -0.8891  0.3149  0.9757
11408TIP3   OH255638   0.054   3.728  10.324  0.1378 -0.0916 -0.5361
11408TIP3    H155639   0.055   3.807  10.270  0.6393 -0.1749 -0.6629
11408TIP3    H255640  -0.018   3.740  10.385 -0.0620  0.2701 -0.8431
11409TIP3   OH255641   3.105   3.649  14.682  0.5554  0.7933 -0.4583
11409TIP3    H155642   3.196   3.664  14.658  0.7092  0.0618 -0.3421
11409TIP3    H255643   3.086   3.560  14.652 -0.6578  1.5336 -2.1128
11410TIP3   OH255644   2.609   5.420   5.317  0.5091  0.1368  0.5788
11410TIP3    H155645   2.520   5.441   5.343  0.9875  2.1210  0.7913
11410TIP3    H255646   2.619   5.327   5.336 -1.1332  0.1525  1.6494
11411TIP3   OH255647   6.810   3.826  11.225 -0.5353 -0.3544 -0.4339
11411TIP3    H155648   6.837   3.837  11.134 -1.4158  2.2848 -0.4526
11411TIP3    H255649   6.737   3.886  11.236 -0.7081 -0.8905  1.9369
11412TIP3   OH255650   0.236   3.898   5.345 -0.4432  0.1944 -0.3148
11412TIP3    H155651   0.194   3.972   5.389 -0.3161 -0.2101  0.5040
11412TIP3    H255652   0.272   3.936   5.264 -1.5510  0.7404 -0.5794
11413TIP3   OH255653   6.424   5.037  15.902  0.2771 -0.3083  0.0411
11413TIP3    H155654   6.506   5.011  15.860  0.1412 -1.0040  0.1898
11413TIP3    H255655   6.388   5.105  15.844  0.9972  0.0695  0.0255
11414TIP3   OH255656   6.327   2.242  11.631 -0.1453  0.2267 -0.3131
11414TIP3    H155657   6.398   2.177  11.634  1.8187  1.9954 -3.1892
11414TIP3    H255658   6.368   2.323  11.664 -1.6538  0.7198  0.4273
11415TIP3   OH255659   5.899   1.194   3.815  0.4470 -0.0909 -0.8972
11415TIP3    H155660   5.876   1.152   3.732 -1.5334 -0.0300 -0.4287
11415TIP3    H255661   5.838   1.268   3.822 -0.1091 -0.6785  1.0550
11416TIP3   OH255662   4.247   1.782   2.936 -0.5105 -0.2343 -0.3804
11416TIP3    H155663   4.200   1.857   2.898  2.1859  1.6004 -0.3498
11416TIP3    H255664   4.309   1.756   2.868 -1.1823 -2.3321 -0.2678
11417TIP3   OH255665   5.167   4.796  12.216 -0.7563 -0.2658 -0.6078
11417TIP3    H155666   5.252   4.832  12.242 -1.2259 -1.3657  2.9399
11417TIP3    H255667   5.103   4.849  12.262 -1.7927 -1.6035 -0.4376
11418TIP3   OH255668   3.233   0.510  14.890 -0.2337  0.0044  0.2167
11418TIP3    H155669   3.257   0.448  14.959 -3.0227  0.7473  2.0107
11418TIP3    H255670   3.241   0.596  14.931 -1.4869  0.4879 -0.5100
11419TIP3   OH255671   2.309   0.001  15.274  0.4493 -0.3695  0.5658
11419TIP3    H155672   2.397  -0.026  15.247  0.6125  0.1211  0.5926
11419TIP3    H255673   2.314   0.005  15.370  0.4971 -0.0149  0.5490
11420TIP3   OH255674   3.301   3.917   4.952 -0.3487  0.2463 -0.2237
11420TIP3    H155675   3.369   3.849   4.952  0.0634  0.6402  0.8137
11420TIP3    H255676   3.287   3.936   4.859  0.3855 -0.4064 -0.4827
11421TIP3   OH255677   5.023   6.742  11.076  0.1175  0.1952  0.2400
11421TIP3    H155678   4.983   6.678  11.017 -0.5214 -0.4718  1.3666
11421TIP3    H255679   5.115   6.715  11.081 -0.1050 -0.5433  0.5551
11422TIP3   OH255680   6.157   1.111   0.379  0.2949  0.1909 -0.1376
11422TIP3    H155681   6.214   1.083   0.450 -0.6827 -0.4021  0.4332
11422TIP3    H255682   6.069   1.083   0.405 -0.1776  0.5062 -1.2943
11423TIP3   OH255683   1.091   3.819  11.537  0.0672 -0.0425  0.8107
11423TIP3    H155684   1.080   3.858  11.624 -2.2883  2.5932 -0.5099
11423TIP3    H255685   1.114   3.892  11.480 -3.2377 -0.6259 -1.5959
11424TIP3   OH255686   2.305   1.444  16.560 -0.0529 -0.2237  0.0426
11424TIP3    H155687   2.368   1.505  16.521 -1.0283 -0.0285 -1.3197
11424TIP3    H255688   2.330   1.358  16.525 -0.8880 -0.0586 -0.9928
11425TIP3   OH255689   0.477   3.705   4.455  0.0897 -0.0296  0.0071
11425TIP3    H155690   0.471   3.702   4.550  0.0910  1.4461  0.0830
11425TIP3    H255691   0.557   3.657   4.434  0.6817  0.5430  0.8522
11426TIP3   OH255692   3.638   2.200  11.157 -0.4451  0.3316 -0.8402
11426TIP3    H155693   3.678   2.128  11.108  3.5246  1.3751  0.4746
11426TIP3    H255694   3.573   2.158  11.213  1.5396 -2.2717 -0.2786
11427TIP3   OH255695   4.982   1.048  13.703 -0.7474 -0.4426 -0.5119
11427TIP3    H155696   4.992   1.021  13.612  1.7305  2.5474 -1.3199
11427TIP3    H255697   4.905   1.105  13.703  0.3963  1.1961 -1.3072
11428TIP3   OH255698   6.150   0.463   4.294  0.0210 -0.1924 -0.0615
11428TIP3    H155699   6.130   0.507   4.376  1.3088  0.8155 -0.2612
11428TIP3    H255700   6.152   0.532   4.228  1.7631 -0.5410 -0.4359
11429TIP3   OH255701   5.832   3.842  13.942 -0.4166 -0.2374  0.0902
11429TIP3    H155702   5.907   3.864  13.997 -0.8011  0.4687  0.3454
11429TIP3    H255703   5.830   3.747  13.941  0.9498 -0.2758 -0.5725
11430TIP3   OH255704   1.084   5.612  12.030  0.4712  0.0216 -0.3819
11430TIP3    H155705   1.085   5.609  11.934  1.0202  1.5133 -0.4576
11430TIP3    H255706   1.076   5.705  12.051  0.5860 -0.2577  1.0279
11431TIP3   OH255707   4.282   6.107   1.276 -0.3790 -0.0964  0.1463
11431TIP3    H155708   4.192   6.091   1.307 -0.2253 -0.3360  0.4815
11431TIP3    H255709   4.337   6.058   1.338 -0.0246 -0.0370 -0.1215
11432TIP3   OH255710   0.944   5.518  14.782  0.1936  0.2687  0.0859
11432TIP3    H155711   0.989   5.600  14.761 -0.3147  0.9325  1.4490
11432TIP3    H255712   0.864   5.521  14.730  0.2914  0.5226 -0.0515
11433TIP3   OH255713   2.371   3.308  12.592 -0.0631 -0.2728  0.2751
11433TIP3    H155714   2.376   3.399  12.564  0.6410 -0.5983 -0.7471
11433TIP3    H255715   2.316   3.309  12.670 -1.9966  0.7167 -1.0312
11434TIP3   OH255716   4.218   1.676  14.826 -0.1206  0.1906  0.3867
11434TIP3    H155717   4.267   1.757  14.843  0.6322 -0.4865  1.7096
11434TIP3    H255718   4.263   1.611  14.880 -1.1612 -0.9444 -0.0868
11435TIP3   OH255719   5.586   2.351  14.805 -0.0457 -0.1138 -0.2527
11435TIP3    H155720   5.651   2.325  14.740 -0.6722 -1.4863 -0.3635
11435TIP3    H255721   5.506   2.306  14.779 -0.6277  0.2709  0.7869
11436TIP3   OH255722   4.778   1.048   5.519  0.2433 -0.4181 -0.4389
11436TIP3    H155723   4.813   1.054   5.607 -2.4408 -0.0892  0.6902
11436TIP3    H255724   4.800   1.132   5.478  0.1743  0.0370  0.4526
11437TIP3   OH255725   3.554   3.253  16.296 -0.1149 -0.1838  0.1965
11437TIP3    H155726   3.497   3.199  16.241  1.0500 -2.1616  0.8337
11437TIP3    H255727   3.495   3.296  16.358 -1.0289 -1.1854  0.0424
11438TIP3   OH255728   2.489   0.857   1.359 -0.0800 -0.1108 -0.0059
11438TIP3    H155729   2.443   0.817   1.433 -1.9661  0.6225 -0.7319
11438TIP3    H255730   2.464   0.805   1.283  0.7814 -0.0519 -0.3430
11439TIP3   OH255731   0.950   3.767  13.546  0.0413 -0.0953 -0.2766
11439TIP3    H155732   1.045   3.779  13.548  0.2323 -0.6654 -2.9421
11439TIP3    H255733   0.937   3.672  13.541 -0.5652  0.0213 -1.4203
11440TIP3   OH255734   4.625   5.486  10.857 -0.5748  0.2063 -0.1792
11440TIP3    H155735   4.692   5.518  10.796 -0.7029  1.2022  0.1895
11440TIP3    H255736   4.542   5.504  10.814 -0.6329 -0.1804 -0.2306
11441TIP3   OH255737   5.847   2.559   5.299 -0.2251 -0.1116  0.3422
11441TIP3    H155738   5.893   2.547   5.216  0.2582  0.8772  0.4487
11441TIP3    H255739   5.784   2.487   5.303  0.2511 -0.5887 -0.5346
11442TIP3   OH255740   2.989   1.521   4.775 -0.3022  0.0440  0.7097
11442TIP3    H155741   3.028   1.536   4.861  0.9823 -1.4472  0.4225
11442TIP3    H255742   3.025   1.437   4.746  0.0944  0.9693 -1.7084
11443TIP3   OH255743   2.180   4.428   6.151  0.0874 -0.5297 -0.0924
11443TIP3    H155744   2.236   4.503   6.169 -1.8826  1.3938 -1.4538
11443TIP3    H255745   2.228   4.378   6.085  0.4687  0.8126 -0.8782
11444TIP3   OH255746   2.271   4.301   2.149 -0.1314 -1.0399 -0.6791
11444TIP3    H155747   2.352   4.336   2.185 -0.2882 -1.6994  0.3447
11444TIP3    H255748   2.225   4.377   2.113 -0.8186 -0.0300  2.1152
11445TIP3   OH255749   6.448   5.926   3.086 -0.3256  0.4449 -0.1271
11445TIP3    H155750   6.403   5.971   3.014  0.2023  1.8270  0.3898
11445TIP3    H255751   6.461   5.993   3.152  0.2578 -0.5399  0.7819
11446TIP3   OH255752   4.693   6.474  14.299 -0.3189  0.1901  0.1362
11446TIP3    H155753   4.693   6.461  14.204 -1.1647 -0.1376  0.1698
11446TIP3    H255754   4.735   6.396  14.334  0.8944  0.7597 -0.0086
11447TIP3   OH255755   5.598   4.477  10.847 -0.5748  0.4460  0.5812
11447TIP3    H155756   5.645   4.403  10.885 -1.7776 -0.1727  0.9416
11447TIP3    H255757   5.511   4.441  10.826 -1.6242  2.0281  1.9376
11448TIP3   OH255758   3.987   2.846  14.093  0.2494  0.3382  0.4524
11448TIP3    H155759   3.992   2.854  14.188 -0.5363  0.6105  0.4762
11448TIP3    H255760   4.039   2.920  14.060 -1.3486  1.6246  0.6823
11449TIP3   OH255761   0.672   3.299  16.431 -0.4243  0.6691  0.3564
11449TIP3    H155762   0.756   3.337  16.406  0.3820 -0.5595  1.0479
11449TIP3    H255763   0.640   3.257  16.352 -1.3635  2.7693 -0.4310
11450TIP3   OH255764   4.244   5.295  14.708 -0.1683  0.4525 -0.6297
11450TIP3    H155765   4.199   5.246  14.777 -0.3510  3.9274  1.9620
11450TIP3    H255766   4.173   5.327  14.652 -0.5605  1.6208  0.4707
11451TIP3   OH255767   3.165   3.413  15.671 -0.6748 -0.0239  0.7998
11451TIP3    H155768   3.199   3.470  15.603 -1.0119 -2.1681 -1.3001
11451TIP3    H255769   3.230   3.417  15.741  0.6952  0.7375 -0.4718
11452TIP3   OH255770   5.132   1.811   4.435 -0.3902  0.0862 -0.6882
11452TIP3    H155771   5.107   1.737   4.490 -0.9105  0.0150 -1.0161
11452TIP3    H255772   5.094   1.791   4.349  0.9313 -0.1038 -1.2508
11453TIP3   OH255773   4.053   5.351   3.037  0.2731  0.7945  0.0204
11453TIP3    H155774   4.114   5.401   2.982  0.5282  1.4792  0.9029
11453TIP3    H255775   3.973   5.345   2.985 -0.5201  3.9881  0.6718
11454TIP3   OH255776   1.497   3.381   0.007  0.9292  0.6185 -0.0811
11454TIP3    H155777   1.538   3.356   0.090  0.2538  1.1991  0.4383
11454TIP3    H255778   1.483   3.298  -0.038  0.9366  0.2572  0.5600
11455TIP3   OH255779   5.447   5.274  13.830  0.0953 -0.1032  0.4065
11455TIP3    H155780   5.524   5.221  13.807 -2.0761 -3.9023  0.9292
11455TIP3    H255781   5.457   5.291  13.924  0.2739 -0.6961  0.5010
11456TIP3   OH255782   4.900   0.427  13.159  0.7424  0.1102  0.0378
11456TIP3    H155783   4.844   0.491  13.115 -0.0223 -0.6157 -0.0662
11456TIP3    H255784   4.963   0.400  13.093 -0.3936 -0.9690 -0.6415
11457TIP3   OH255785   0.407   2.728   1.080  0.1360 -0.9087 -0.5032
11457TIP3    H155786   0.344   2.665   1.114 -1.0075  1.3575  2.0245
11457TIP3    H255787   0.480   2.724   1.142  0.1788  0.0149 -0.4831
11458TIP3   OH255788   6.351   0.189   1.497  0.2963 -0.6551 -0.3936
11458TIP3    H155789   6.351   0.190   1.593  0.2759  0.5669 -0.4003
11458TIP3    H255790   6.265   0.223   1.472  0.4038 -0.7120 -0.8532
11459TIP3   OH255791   1.102   6.591  14.752 -0.4147 -0.1744  0.1472
11459TIP3    H155792   1.096   6.684  14.731 -0.4716  0.6643  3.3559
11459TIP3    H255793   1.022   6.554  14.715  0.9353  0.3231 -3.7552
11460TIP3   OH255794   0.870   6.361  14.980 -0.9528  0.3555  0.1223
11460TIP3    H155795   0.842   6.453  14.979  1.0545  1.0224  0.4679
11460TIP3    H255796   0.954   6.362  15.026 -1.0388 -1.7204  0.4122
11461TIP3   OH255797   4.471   3.720  16.164  0.5165  0.2335 -0.3408
11461TIP3    H155798   4.522   3.669  16.226  0.0733 -0.0782 -0.2326
11461TIP3    H255799   4.459   3.805  16.208  0.2020  0.0141 -0.0045
11462TIP3   OH255800   4.147   1.390  11.887 -0.7272 -0.2106  0.7173
11462TIP3    H155801   4.201   1.372  11.810  0.0651  0.2215  1.1647
11462TIP3    H255802   4.203   1.440  11.945 -1.3802 -0.3639  1.5044
11463TIP3   OH255803   4.725   3.211   6.073 -0.1685 -0.2406 -0.5842
11463TIP3    H155804   4.746   3.303   6.092  0.4612 -0.5335  0.2458
11463TIP3    H255805   4.651   3.192   6.130 -1.3224  0.1737 -1.9029
11464TIP3   OH255806   1.980   6.613   1.268  0.2279 -0.4400  0.0818
11464TIP3    H155807   2.022   6.528   1.281  0.4059 -0.3509  0.0912
11464TIP3    H255808   2.040   6.662   1.213  0.5519 -0.0021  0.8111
11465TIP3   OH255809   4.228   1.656   5.712  0.4993 -0.4739 -0.1904
11465TIP3    H155810   4.320   1.673   5.694  0.2368  3.1801  1.0559
11465TIP3    H255811   4.181   1.695   5.639 -0.0873  1.6550  1.2197
11466TIP3   OH255812   1.529   1.623  10.799 -0.4932  0.1011 -0.5274
11466TIP3    H155813   1.614   1.608  10.757  0.1443 -0.1566  0.8302
11466TIP3    H255814   1.496   1.703  10.757 -0.9618 -1.3460 -3.1892
11467TIP3   OH255815   6.563   2.916   0.116 -0.1500  0.0711 -0.2014
11467TIP3    H155816   6.507   2.895   0.041 -2.6267  1.3712  1.1488
11467TIP3    H255817   6.581   3.009   0.107  2.1976 -0.3727 -0.7674
11468TIP3   OH255818   6.729   5.911   4.458  0.0113  0.3022 -0.3239
11468TIP3    H155819   6.765   5.822   4.456 -0.2263  0.2090 -0.4305
11468TIP3    H255820   6.703   5.924   4.549 -0.6323 -0.0080 -0.4592
11469TIP3   OH255821   6.312   3.956  14.903 -0.2846 -0.5007 -0.7331
11469TIP3    H155822   6.275   4.028  14.955  1.5156  0.4663 -0.7054
11469TIP3    H255823   6.260   3.880  14.927 -0.1900  0.1233  1.7344
11470TIP3   OH255824   5.714   6.338  11.625 -0.3855 -0.0419  0.3753
11470TIP3    H155825   5.801   6.304  11.605  0.4905  1.3744  1.5462
11470TIP3    H255826   5.664   6.261  11.654 -0.1737 -1.2157 -2.0839
11471TIP3   OH255827   6.288   2.440  14.836  0.3903 -0.0124  0.6651
11471TIP3    H155828   6.210   2.476  14.879 -1.1589 -1.9166 -0.3738
11471TIP3    H255829   6.328   2.384  14.902  0.2457  0.1246  0.8689
11472TIP3   OH255830   2.917   4.454   0.296  0.4135 -1.0492  0.1136
11472TIP3    H155831   2.982   4.399   0.340  1.9015  0.7277  0.2373
11472TIP3    H255832   2.923   4.429   0.204 -0.6301 -2.7144  0.4574
11473TIP3   OH255833   4.670   6.298   3.657 -0.1329  0.1898 -0.0596
11473TIP3    H155834   4.670   6.282   3.563  1.7333  1.8815 -0.3968
11473TIP3    H255835   4.716   6.222   3.694  1.6554  0.8398 -0.8404
11474TIP3   OH255836   4.920   1.459  16.322  0.0647 -0.3354  0.3579
11474TIP3    H155837   4.846   1.509  16.289 -1.0749 -1.5040  1.0180
11474TIP3    H255838   4.961   1.422  16.244 -2.6026 -3.0957  0.0563
11475TIP3   OH255839   4.703   4.479   0.218 -0.1032  1.1817  0.1898
11475TIP3    H155840   4.754   4.515   0.146  2.3274  2.4792  2.3779
11475TIP3    H255841   4.640   4.548   0.241 -1.4008  0.4705 -1.0785
11476TIP3   OH255842   3.084   1.087  15.410 -0.0581  1.0094  0.0680
11476TIP3    H155843   3.157   1.142  15.439  1.6208 -1.5354  1.0306
11476TIP3    H255844   3.111   0.998  15.432 -3.8172 -0.0409  1.1669
11477TIP3   OH255845   1.853   0.778  11.750 -0.6143 -0.3003 -0.7315
11477TIP3    H155846   1.940   0.748  11.725 -0.7975 -0.5865 -1.0235
11477TIP3    H255847   1.847   0.866  11.712 -0.2216 -0.0377 -0.1906
11478TIP3   OH255848   3.335   3.143   5.037 -0.3043  0.0467 -0.1213
11478TIP3    H155849   3.245   3.169   5.018 -0.4280 -0.8912 -0.9213
11478TIP3    H255850   3.382   3.157   4.955  0.3157  0.6333  0.3227
11479TIP3   OH255851   1.622   4.948   2.528  0.9091  0.4834  0.4245
11479TIP3    H155852   1.625   4.860   2.490 -0.3929  0.9075 -0.7587
11479TIP3    H255853   1.678   4.943   2.605 -1.5249 -2.2431  2.2213
11480TIP3   OH255854   1.066   4.729  14.319  0.1989  0.3805 -0.0932
11480TIP3    H155855   1.119   4.676  14.259 -1.2363 -0.6188 -0.5163
11480TIP3    H255856   1.115   4.728  14.401  1.6486  0.8613 -0.9193
11481TIP3   OH255857   5.009   1.979  12.618  0.2658  0.1100  0.1736
11481TIP3    H155858   4.938   1.974  12.681 -0.4350  1.2904 -0.5064
11481TIP3    H255859   4.985   2.050  12.558  0.3705 -1.6238 -2.0846
11482TIP3   OH255860   3.704   2.869  11.187 -0.5514  0.9034  0.3901
11482TIP3    H155861   3.663   2.803  11.131 -1.5790  1.0742  0.9282
11482TIP3    H255862   3.753   2.925  11.126 -1.1480  0.7232 -0.2653
11483TIP3   OH255863   5.294   5.619  16.840 -0.5268 -0.0113 -0.0872
11483TIP3    H155864   5.384   5.646  16.857 -0.5268  0.7665 -1.2412
11483TIP3    H255865   5.288   5.532  16.879  0.2770  0.5283  1.3050
11484TIP3   OH255866   6.291   5.320  12.973  0.6352 -0.4589 -0.6891
11484TIP3    H155867   6.290   5.234  13.015  0.0066 -0.5192 -0.8162
11484TIP3    H255868   6.200   5.335  12.947  0.3283  1.1051  1.0677
11485TIP3   OH255869   4.457   1.797   4.059  0.5087 -0.1945  0.4361
11485TIP3    H155870   4.433   1.815   3.968  3.0876  0.7059 -0.1585
11485TIP3    H255871   4.383   1.829   4.110 -0.6453  0.0288 -1.3092
11486TIP3   OH255872   1.274   0.552   3.219 -0.2399 -0.1150 -0.2589
11486TIP3    H155873   1.188   0.515   3.199  0.6277 -2.5705  0.2296
11486TIP3    H255874   1.277   0.556   3.315 -0.6124  2.1618 -0.2724
11487TIP3   OH255875   6.161   1.019   1.517  0.5256  0.8189 -0.3346
11487TIP3    H155876   6.108   0.964   1.575  0.5227 -1.4865 -2.3782
11487TIP3    H255877   6.206   1.080   1.577 -1.4986  0.3733  1.7899
11488TIP3   OH255878   0.107   6.665   5.514  0.1673  0.0004  0.0240
11488TIP3    H155879   0.050   6.702   5.581  0.9572 -1.0742  1.3482
11488TIP3    H255880   0.131   6.579   5.548  1.3486 -0.2024 -1.2218
11489TIP3   OH255881   3.786   4.837   5.352  0.3103 -0.4449 -0.2184
11489TIP3    H155882   3.845   4.800   5.417 -0.1804  0.8105  0.9878
11489TIP3    H255883   3.714   4.773   5.346 -0.5240  0.2198  1.8260
11490TIP3   OH255884   5.502   4.901  14.638  0.1004 -0.6815 -0.1999
11490TIP3    H155885   5.428   4.957  14.617  0.3523 -0.7643 -1.3918
11490TIP3    H255886   5.551   4.950  14.704 -0.9165 -0.5597  0.4822
11491TIP3   OH255887   5.694   6.366   0.043 -0.2150  0.1915 -0.8401
11491TIP3    H155888   5.693   6.376   0.138  0.5543  1.3234 -0.9438
11491TIP3    H255889   5.748   6.437   0.011 -0.3454 -0.2583 -2.1312
11492TIP3   OH255890   2.400   5.030  12.524 -0.1292  0.0858  0.2639
11492TIP3    H155891   2.394   5.012  12.618 -0.9421 -0.4036  0.1238
11492TIP3    H255892   2.478   5.086  12.515  0.9984 -1.2909  1.0084
11493TIP3   OH255893   0.253   5.249   2.018 -0.5180  0.0599 -0.7488
11493TIP3    H155894   0.335   5.290   2.046 -0.4822  1.2058 -2.4077
11493TIP3    H255895   0.242   5.175   2.078  1.6347 -0.0317 -0.3831
11494TIP3   OH255896   2.087   4.466  16.697  0.0418  0.3958  0.3695
11494TIP3    H155897   2.013   4.406  16.690 -0.2323  0.5308  1.7898
11494TIP3    H255898   2.048   4.551  16.718  0.5802  0.4487  1.2207
11495TIP3   OH255899   0.174   0.395   2.761 -0.4460  0.7494 -0.0194
11495TIP3    H155900   0.261   0.355   2.765 -0.1021  1.5655  2.6361
11495TIP3    H255901   0.146   0.384   2.670  1.9725 -0.4745 -0.6840
11496TIP3   OH255902   0.758   0.593   0.092  0.1955 -0.0051  0.5524
11496TIP3    H155903   0.846   0.569   0.065  1.0583  1.8643  1.4373
11496TIP3    H255904   0.759   0.583   0.188 -0.9992 -1.2188  0.4628
11497TIP3   OH255905   1.463   1.063   2.859  0.0012  0.2008 -0.7346
11497TIP3    H155906   1.382   1.110   2.877  0.4857  0.5304  0.6931
11497TIP3    H255907   1.527   1.102   2.918  0.8913 -0.9536 -0.8994
11498TIP3   OH255908   3.878   1.207  11.607 -0.3463 -0.0193 -0.2883
11498TIP3    H155909   3.861   1.150  11.532  1.6669  0.0965 -0.8870
11498TIP3    H255910   3.795   1.207  11.656 -1.5710 -0.4865 -2.2285
11499TIP3   OH255911   3.143   3.376  14.631  0.1898  0.1834 -0.0865
11499TIP3    H155912   3.148   3.281  14.643  1.0191  0.1339 -0.7533
11499TIP3    H255913   3.209   3.396  14.565  0.2100  1.2654  0.2330
11500TIP3   OH255914   6.281   0.943   0.596 -0.2412  0.1413  0.2983
11500TIP3    H155915   6.320   0.889   0.528 -2.5436  0.6192 -1.5191
11500TIP3    H255916   6.354   0.994   0.632  0.9647  0.3137 -2.2451
11501TIP3   OH255917   5.725   1.954   4.327  0.5004 -0.3691 -0.4250
11501TIP3    H155918   5.647   1.899   4.317 -0.4812  1.0090 -0.6737
11501TIP3    H255919   5.733   1.999   4.243 -1.1678  2.8845  0.9645
11502TIP3   OH255920   6.003   0.186   5.172 -0.5712 -0.2931 -0.1292
11502TIP3    H155921   5.965   0.274   5.169 -1.0164 -0.4619  0.2954
11502TIP3    H255922   5.934   0.132   5.212 -0.5725 -0.9794 -1.0235
11503TIP3   OH255923   0.202   0.067   0.596 -0.2679  0.1413 -0.0257
11503TIP3    H155924   0.200  -0.029   0.589 -1.0459  0.0124  1.4395
11503TIP3    H255925   0.120   0.095   0.555  0.1757  0.2252 -0.8671
11504TIP3   OH255926   1.186   3.514  14.260 -0.4865 -0.1619 -0.5937
11504TIP3    H155927   1.176   3.484  14.351 -0.4908 -0.2095 -0.6093
11504TIP3    H255928   1.105   3.487  14.217 -0.3713 -0.3777 -0.6763
11505TIP3   OH255929   4.973   6.127  13.322 -0.2744  0.7654 -0.1879
11505TIP3    H155930   4.914   6.129  13.398 -0.3935  0.1963 -0.2625
11505TIP3    H255931   4.958   6.041  13.283  2.1138 -0.2787  0.9796
11506TIP3   OH255932   3.800   3.250  16.422  0.4327  0.3812  0.6327
11506TIP3    H155933   3.721   3.223  16.375  0.7614 -0.3147  0.4632
11506TIP3    H255934   3.767   3.290  16.503 -0.0772 -1.0786  1.1789
11507TIP3   OH255935   0.744   1.582  14.643 -0.4273 -0.3991 -0.1616
11507TIP3    H155936   0.673   1.613  14.699 -0.0686  1.0115 -0.4544
11507TIP3    H255937   0.706   1.581  14.555 -0.0970  0.3309 -0.3146
11508TIP3   OH255938   0.457   1.991  13.803 -0.0649 -0.1923  0.0320
11508TIP3    H155939   0.425   2.079  13.821 -0.2804 -0.1848 -0.3989
11508TIP3    H255940   0.389   1.933  13.838  0.2051 -0.1966  0.5669
11509TIP3   OH255941   0.418   2.192   0.782  0.3338 -0.2393 -0.1455
11509TIP3    H155942   0.504   2.221   0.813 -0.8464  1.8672  1.4336
11509TIP3    H255943   0.375   2.272   0.753 -1.3232 -1.1563 -0.3194
11510TIP3   OH255944   5.754   5.502   1.866 -0.5498 -0.5488 -0.0770
11510TIP3    H155945   5.758   5.598   1.860 -1.2520 -0.5498 -0.9012
11510TIP3    H255946   5.756   5.484   1.960 -0.2461  0.2688  0.0850
11511TIP3   OH255947   6.507   0.867  15.879  0.3929  0.8272  0.3881
11511TIP3    H155948   6.430   0.815  15.898  2.1033 -1.4808  1.4641
11511TIP3    H255949   6.540   0.832  15.796  3.6933 -2.8251  2.8979
11512TIP3   OH255950   5.703   1.861  14.318 -0.0882  0.0878 -0.3261
11512TIP3    H155951   5.646   1.924  14.274 -0.1816  0.1037 -0.1852
11512TIP3    H255952   5.644   1.790  14.343 -0.0631  0.1472 -0.0976
11513TIP3   OH255953   5.790   5.661  11.138  0.5829  0.5210  0.3303
11513TIP3    H155954   5.798   5.628  11.049  1.3922  0.4819  0.4169
11513TIP3    H255955   5.696   5.655  11.157  0.3907  0.6143 -0.5477
11514TIP3   OH255956   5.919   3.229   1.085 -0.0416 -0.3509  0.5153
11514TIP3    H155957   5.901   3.154   1.028 -0.0821 -0.3948  0.5867
11514TIP3    H255958   5.912   3.195   1.174  1.5952 -0.6729  0.5607
11515TIP3   OH255959   3.250   1.930  16.825  0.2910  0.5255 -0.5938
11515TIP3    H155960   3.158   1.934  16.799  0.2582  2.0030 -0.3178
11515TIP3    H255961   3.288   2.011  16.791  1.3173  0.2848 -0.0436
11516TIP3   OH255962   4.732   5.500  15.714 -0.4201 -0.0884  0.2190
11516TIP3    H155963   4.683   5.545  15.645 -0.1560 -1.3339 -0.8353
11516TIP3    H255964   4.787   5.437  15.666 -2.3614 -3.0844  1.6549
11517TIP3   OH255965   4.243   1.747   6.187 -0.0414  0.4928 -0.1962
11517TIP3    H155966   4.231   1.755   6.281 -1.3932 -1.0259 -0.1967
11517TIP3    H255967   4.169   1.796   6.149 -0.9839 -1.0014 -0.3824
11518TIP3   OH255968   4.839   6.250  14.383 -0.0855  0.1347 -0.0786
11518TIP3    H155969   4.927   6.283  14.400  0.1457  0.1989 -1.2843
11518TIP3    H255970   4.850   6.186  14.312 -0.7167 -1.5821  1.3001
11519TIP3   OH255971   2.827   3.928   6.195 -0.0204  0.1207  0.1704
11519TIP3    H155972   2.803   3.852   6.249 -1.4827 -1.0910 -1.9959
11519TIP3    H255973   2.750   3.985   6.200  0.5856  0.8896  0.8158
11520TIP3   OH255974   5.049   4.904  16.604  1.2724  0.2363  0.4183
11520TIP3    H155975   5.098   4.965  16.660 -1.2023 -0.3899  3.5179
11520TIP3    H255976   4.981   4.958  16.564  0.8870  0.0593  0.8271
11521TIP3   OH255977   1.796   2.124  14.678  0.6006 -0.0480 -0.4575
11521TIP3    H155978   1.752   2.130  14.593  0.2883  1.4401 -0.2128
11521TIP3    H255979   1.866   2.059  14.664  0.5006  0.1107 -1.8231
11522TIP3   OH255980   3.163   5.210   4.750  0.1073 -0.3610  0.4511
11522TIP3    H155981   3.172   5.144   4.819 -0.3906  0.8923  1.7571
11522TIP3    H255982   3.069   5.227   4.746  0.2795  0.6110  0.4478
11523TIP3   OH255983   3.949   4.102   0.257  0.4073 -0.0465  0.1645
11523TIP3    H155984   3.998   4.088   0.176  0.8823 -0.2414  0.4867
11523TIP3    H255985   3.994   4.049   0.323 -1.5380 -2.0414  0.0119
11524TIP3   OH255986   4.218   4.586  14.439 -0.4120  0.4635 -0.2460
11524TIP3    H155987   4.263   4.589  14.523 -0.0425 -1.5311 -0.3287
11524TIP3    H255988   4.288   4.594  14.374 -0.1799 -1.8532 -0.3642
11525TIP3   OH255989   3.511   6.603   2.495  0.7695 -0.2445 -0.2101
11525TIP3    H155990   3.429   6.557   2.481  0.4127  0.0636  0.7633
11525TIP3    H255991   3.501   6.644   2.581  2.1121 -0.5620  0.1184
11526TIP3   OH255992   3.055   1.350   2.636 -0.2311  0.4381  0.1800
11526TIP3    H155993   3.112   1.395   2.573 -1.1069 -0.7492 -1.5401
11526TIP3    H255994   2.977   1.405   2.640 -1.0899 -0.5676 -1.5331
11527TIP3   OH255995   3.946   0.532  16.393  0.0113  0.1380 -1.0186
11527TIP3    H155996   3.930   0.438  16.382  0.7049 -0.2944  1.0972
11527TIP3    H255997   3.883   0.559  16.460  0.3462  1.0017 -1.0439
11528TIP3   OH255998   0.341   2.324  14.908 -0.0772  0.1310  0.0858
11528TIP3    H155999   0.247   2.331  14.891  0.0574 -0.2670 -0.8662
11528TIP3    H256000   0.366   2.238  14.874  0.4988 -0.0772  0.9998
11529TIP3   OH256001   4.743   3.107  12.232  0.4062 -0.0801  0.3001
11529TIP3    H156002   4.727   3.165  12.157 -0.3822 -1.1881 -0.4229
11529TIP3    H256003   4.665   3.114  12.286  0.2045 -0.6444  0.0859
11530TIP3   OH256004   4.101   4.977  15.818  0.8067  0.2880 -0.4703
11530TIP3    H156005   4.192   4.968  15.847  0.8329  0.8854 -0.3449
11530TIP3    H256006   4.071   5.059  15.859  0.1337 -0.0374 -0.3029
11531TIP3   OH256007   5.950   4.924   0.781  0.3908 -0.1521  0.7022
11531TIP3    H156008   5.874   4.974   0.811  0.0699 -0.4506  0.3947
11531TIP3    H256009   5.925   4.833   0.793  0.7516 -0.2519  0.7147
11532TIP3   OH256010   0.652   3.955  14.165  0.6827  0.0693 -0.0750
11532TIP3    H156011   0.719   3.903  14.210  0.2045  0.5382  1.2566
11532TIP3    H256012   0.611   3.894  14.104 -0.8114 -1.6317  2.4009
11533TIP3   OH256013   5.004   3.831  11.004  0.0816 -0.1688 -0.6455
11533TIP3    H156014   5.013   3.915  10.960 -0.6896  0.3384  0.1270
11533TIP3    H256015   4.921   3.796  10.973  1.1975 -1.4902 -2.2988
11534TIP3   OH256016   6.068   5.364   2.680  0.0999  0.4593  0.3338
11534TIP3    H156017   6.074   5.460   2.684 -1.4693  0.7890 -2.3749
11534TIP3    H256018   6.005   5.341   2.748  0.4849  1.3645  1.0132
11535TIP3   OH256019   1.287   6.809  14.574 -0.2283  0.1321 -0.2920
11535TIP3    H156020   1.378   6.781  14.580  0.0108  0.3496 -2.2454
11535TIP3    H256021   1.272   6.859  14.655 -0.0047 -3.4935  2.2119
11536TIP3   OH256022   0.566   1.272   5.668 -0.4183  0.0940 -0.1701
11536TIP3    H156023   0.608   1.186   5.670  0.1450  0.3605 -0.3931
11536TIP3    H256024   0.489   1.259   5.613 -0.9999 -0.5553  0.7688
11537TIP3   OH256025   6.234   2.590   2.313  0.2767 -0.2135 -0.3325
11537TIP3    H156026   6.231   2.605   2.408  0.8601 -1.0859 -0.1711
11537TIP3    H256027   6.236   2.678   2.276  0.3124  0.1392  0.4712
11538TIP3   OH256028   4.074   0.709  11.101  0.3208  0.3843  0.2651
11538TIP3    H156029   4.078   0.629  11.049  0.3119  1.5164 -1.5528
11538TIP3    H256030   4.109   0.777  11.044  2.2418  1.3838  2.4567
11539TIP3   OH256031   4.265   1.876  10.323 -0.4967  0.4606  0.2358
11539TIP3    H156032   4.315   1.936  10.378  0.6971  0.0971 -0.4176
11539TIP3    H256033   4.272   1.791  10.366 -0.5829  0.4093  0.1512
11540TIP3   OH256034   0.402   0.497   5.325  0.5051 -0.1263 -0.0028
11540TIP3    H156035   0.335   0.524   5.263 -0.9299  0.0944  1.5592
11540TIP3    H256036   0.376   0.538   5.408  0.1250 -3.3853  1.6840
11541TIP3   OH256037   3.521   1.252  15.950 -0.3658 -0.0410  0.4486
11541TIP3    H156038   3.523   1.183  15.885  1.3237  2.0725 -1.9304
11541TIP3    H256039   3.455   1.314  15.917  2.0294  2.1299 -0.6168
11542TIP3   OH256040   4.991   4.902  15.218 -0.0774  0.0852 -0.0278
11542TIP3    H156041   5.045   4.955  15.159  0.3096 -1.1058 -0.7816
11542TIP3    H256042   4.968   4.962  15.289  0.1610  1.3135 -0.9484
11543TIP3   OH256043   2.168   5.742  11.687 -0.2842  0.2668  0.1563
11543TIP3    H156044   2.193   5.834  11.685 -1.7764  0.8044  2.3118
11543TIP3    H256045   2.195   5.712  11.773  1.2619 -1.7075 -0.9453
11544TIP3   OH256046   3.932   5.703  13.261 -0.2222  0.3205 -0.2657
11544TIP3    H156047   3.872   5.702  13.336  1.1230 -0.9806  0.8412
11544TIP3    H256048   3.943   5.611  13.238 -0.9295  0.7049 -2.3829
11545TIP3   OH256049   0.241   4.022  16.956 -0.1182  0.5180  0.3196
11545TIP3    H156050   0.238   4.073  16.875 -0.1263 -0.7691 -0.5236
11545TIP3    H256051   0.286   3.941  16.931 -0.1709  0.0834  1.5932
11546TIP3   OH256052   3.141   5.884  16.537  0.6120  0.4754 -0.6254
11546TIP3    H156053   3.105   5.829  16.607 -1.1293 -0.3257 -2.0897
11546TIP3    H256054   3.076   5.880  16.467  2.3072  1.2198 -2.3256
11547TIP3   OH256055   4.419   5.490  14.392 -0.0793 -0.3005 -0.3698
11547TIP3    H156056   4.438   5.504  14.300 -0.0516 -0.7455 -0.4314
11547TIP3    H256057   4.487   5.430  14.423 -1.0288 -1.4596 -0.4594
11548TIP3   OH256058   1.792   6.609  12.234 -0.5025  0.2355  0.5860
11548TIP3    H156059   1.822   6.693  12.198  1.1691 -0.9436 -0.9627
11548TIP3    H256060   1.831   6.605  12.321  1.8285 -0.1143 -0.4029
11549TIP3   OH256061   6.567   3.566  13.921  0.4341 -0.1723  0.2880
11549TIP3    H156062   6.554   3.485  13.970  2.7311 -1.4070 -1.0036
11549TIP3    H256063   6.478   3.601  13.909 -0.4063 -1.2125  2.8945
11550TIP3   OH256064   5.274   6.192   2.650  0.4573 -0.3365  0.0935
11550TIP3    H156065   5.200   6.188   2.590  0.3417 -3.3254  0.2782
11550TIP3    H256066   5.237   6.169   2.735  1.1762  0.7652  0.7344
11551TIP3   OH256067   1.937   2.803  10.189 -0.1024  0.3149 -0.6788
11551TIP3    H156068   1.982   2.756  10.120  0.6814 -1.2576  0.8241
11551TIP3    H256069   1.964   2.760  10.270 -1.7034  1.4703  0.5609
11552TIP3   OH256070   5.480   1.778  14.825  0.3858 -0.1672 -0.1103
11552TIP3    H156071   5.548   1.711  14.821  1.6880  0.9155  1.8475
11552TIP3    H256072   5.403   1.732  14.858  0.2228 -1.3460 -2.0292
11553TIP3   OH256073   6.267   3.146   4.972  0.2800  0.0075  0.0427
11553TIP3    H156074   6.261   3.166   5.065  1.0511 -0.5280  0.2225
11553TIP3    H256075   6.335   3.204   4.938  0.6554 -0.4368  0.0161
11554TIP3   OH256076   2.837   4.785   0.799 -0.2867 -0.0514 -0.2062
11554TIP3    H156077   2.750   4.817   0.775 -0.5440 -0.4067  0.2347
11554TIP3    H256078   2.832   4.691   0.786  0.1074 -0.0464 -0.3932
11555TIP3   OH256079   0.364   2.030  16.358  0.3594 -0.6833  0.8793
11555TIP3    H156080   0.415   1.959  16.320  1.5327  0.8537 -0.6123
11555TIP3    H256081   0.408   2.051  16.440  1.3400 -0.2765  0.2676
11556TIP3   OH256082   3.080   4.389   2.701 -0.1373 -0.1734  0.3619
11556TIP3    H156083   3.080   4.485   2.707 -1.0095 -0.1320 -0.2348
11556TIP3    H256084   3.002   4.362   2.750 -0.4974 -0.5151 -0.3864
11557TIP3   OH256085   6.061   1.843  15.979  0.6343  0.5719 -0.6072
11557TIP3    H156086   5.980   1.883  15.947  0.1486 -0.0139 -0.1353
11557TIP3    H256087   6.081   1.775  15.915 -0.6476 -0.9846  0.5467
11558TIP3   OH256088   6.175   0.685   0.615 -0.2066 -0.0626 -0.4478
11558TIP3    H156089   6.127   0.762   0.645 -1.2594 -1.0882  0.6030
11558TIP3    H256090   6.143   0.613   0.670  0.8146 -1.2416 -1.3231
11559TIP3   OH256091   4.259   5.989  13.782 -0.4230 -0.3979 -0.4118
11559TIP3    H156092   4.233   5.989  13.689 -0.4951  3.0341 -0.4950
11559TIP3    H256093   4.177   6.003  13.830 -0.6869 -3.9579  0.4399
11560TIP3   OH256094   1.904   6.512  11.224  0.1873 -0.4670 -0.6170
11560TIP3    H156095   1.943   6.563  11.154  0.2016 -2.6837 -2.3249
11560TIP3    H256096   1.970   6.447  11.247 -0.5336 -0.9706  0.1046
11561TIP3   OH256097   4.564   5.221  12.643 -0.1073 -0.1271  0.1252
11561TIP3    H156098   4.481   5.228  12.596  0.4084  0.3142 -0.7305
11561TIP3    H256099   4.595   5.312  12.651  1.9732 -0.4695 -2.6364
11562TIP3   OH256100   5.549   5.273   4.876 -0.1418  0.3842 -0.3326
11562TIP3    H156101   5.602   5.217   4.933 -1.0751 -0.2089 -0.0074
11562TIP3    H256102   5.530   5.350   4.930 -0.4336  0.1451 -0.0887
11563TIP3   OH256103   5.599   3.415  11.272 -0.2046  0.0286  0.1960
11563TIP3    H156104   5.681   3.411  11.322 -0.1432  2.4592  0.4025
11563TIP3    H256105   5.626   3.404  11.181  0.2690  0.0706  0.3274
11564TIP3   OH256106   3.409   1.918  16.119  0.3444  0.1763 -0.1140
11564TIP3    H156107   3.458   1.984  16.169  0.4194  0.9152 -1.1273
11564TIP3    H256108   3.459   1.837  16.131  1.0487  0.6157  0.0023
11565TIP3   OH256109   6.165   3.499  13.863 -0.1310  0.2009 -0.1066
11565TIP3    H156110   6.081   3.505  13.818  0.0299  2.8602 -0.2048
11565TIP3    H256111   6.230   3.492  13.793  0.0131  2.9974 -0.3874
11566TIP3   OH256112   1.933   2.327   3.878 -0.1583  0.4921  0.4481
11566TIP3    H156113   1.880   2.355   3.804 -0.6125 -1.4563 -0.0202
11566TIP3    H256114   2.001   2.271   3.839 -1.4049 -1.9750  1.5949
11567TIP3   OH256115   6.097   4.488  17.018 -0.3946  0.4796  0.3299
11567TIP3    H156116   6.064   4.546  17.087  1.6782  2.8318 -0.5178
11567TIP3    H256117   6.079   4.535  16.937 -0.8524 -1.2410 -0.5961
11568TIP3   OH256118   2.403   3.160  16.982 -0.2926  0.4419 -0.3844
11568TIP3    H156119   2.432   3.240  17.025  0.1152  0.5249 -0.8095
11568TIP3    H256120   2.470   3.142  16.917 -0.7932  0.1973 -0.8411
11569TIP3   OH256121   2.470   5.050  15.436 -0.1574 -0.2492 -0.0840
11569TIP3    H156122   2.490   4.969  15.482  0.5723  0.1503  0.3392
11569TIP3    H256123   2.549   5.103  15.447 -1.5000  1.5232  1.8568
11570TIP3   OH256124   2.911   5.599   1.588 -0.0796  0.3938  0.0686
11570TIP3    H156125   2.933   5.507   1.599  1.1629  0.6325 -0.2558
11570TIP3    H256126   2.821   5.606   1.619 -0.2504 -0.9553 -0.0610
11571TIP3   OH256127   1.537   1.969  11.458 -0.1515 -0.3824  0.0445
11571TIP3    H156128   1.622   2.006  11.482 -0.3914 -0.9488  1.9552
11571TIP3    H256129   1.499   2.033  11.397  1.3307  0.2227 -0.2762
11572TIP3   OH256130   5.976   1.095   0.855 -0.4033 -0.1352 -0.3250
11572TIP3    H156131   5.888   1.128   0.839  0.3614  2.4822  0.2169
11572TIP3    H256132   5.970   1.046   0.937 -1.8554 -2.6562 -1.8200
11573TIP3   OH256133   5.360   1.974   3.897  0.4790 -0.1754 -0.2513
11573TIP3    H156134   5.433   1.915   3.875  2.0177  1.2055  0.8590
11573TIP3    H256135   5.394   2.062   3.876 -0.4394  0.5950  1.3166
11574TIP3   OH256136   0.501   3.576   3.577  0.4808  0.4258 -0.2073
11574TIP3    H156137   0.553   3.583   3.657 -2.7680 -1.5454  2.3185
11574TIP3    H256138   0.559   3.531   3.516  2.3582 -0.0629  1.7819
11575TIP3   OH256139   0.427   2.477   1.907 -0.3758  0.1100  0.3971
11575TIP3    H156140   0.420   2.491   1.813 -0.3221  0.7280  0.4836
11575TIP3    H256141   0.336   2.464   1.935 -0.5508  1.4408  0.4871
11576TIP3   OH256142   2.788   0.326   5.600 -0.0918 -0.3764 -0.4150
11576TIP3    H156143   2.868   0.299   5.555  0.2633  0.1159 -0.0932
11576TIP3    H256144   2.803   0.302   5.692  0.7151  1.9025  0.0982
11577TIP3   OH256145   0.584   0.612   3.740  0.0888  0.3413  0.6390
11577TIP3    H156146   0.535   0.540   3.780  0.5237 -0.9273 -1.0017
11577TIP3    H256147   0.517   0.668   3.701 -0.1760 -0.9954 -0.9537
11578TIP3   OH256148   5.649   0.989  10.650  0.5693  0.4173 -0.2623
11578TIP3    H156149   5.727   0.938  10.628 -0.0174 -0.3900 -0.5049
11578TIP3    H256150   5.682   1.078  10.662  1.3084  0.3871 -1.8124
11579TIP3   OH256151   5.384   0.694   1.251  0.9053 -0.2435 -0.4054
11579TIP3    H156152   5.328   0.677   1.176  1.4245 -0.1662 -0.8199
11579TIP3    H256153   5.420   0.782   1.234  0.3773  0.1328  0.3514
11580TIP3   OH256154   4.605   5.166   5.995 -0.0755  0.0605 -0.0759
11580TIP3    H156155   4.577   5.245   6.041 -1.7965 -1.3787  1.5352
11580TIP3    H256156   4.525   5.133   5.954  1.1841  0.6689 -3.3187
11581TIP3   OH256157   4.287   4.779   4.450  0.0487 -0.7238 -0.0092
11581TIP3    H156158   4.310   4.793   4.542  0.9886  0.0399 -0.3536
11581TIP3    H256159   4.224   4.707   4.453  0.5238 -1.1234  1.1838
11582TIP3   OH256160   2.060   3.224   3.019 -0.2386  0.1135  1.2354
11582TIP3    H156161   2.034   3.247   2.930 -0.5262 -1.4871  0.8809
11582TIP3    H256162   2.050   3.306   3.068 -2.2440  0.5171  0.2785
11583TIP3   OH256163   0.392   2.943   3.830  0.0195  0.4392  0.4931
11583TIP3    H156164   0.297   2.955   3.820  0.2877  2.2434 -0.1331
11583TIP3    H256165   0.423   3.023   3.871  1.4951  0.5747 -0.7915
11584TIP3   OH256166   4.199   3.273  13.676 -0.4003  0.3278  0.2636
11584TIP3    H156167   4.254   3.203  13.711 -0.4465  0.2696  0.2205
11584TIP3    H256168   4.219   3.350  13.730 -0.5683  0.2060  0.5018
11585TIP3   OH256169   5.151   1.791  12.069  0.2728 -0.3781  0.4582
11585TIP3    H156170   5.093   1.817  12.141  0.9594 -0.7802  1.1741
11585TIP3    H256171   5.226   1.850  12.076  0.6626 -0.8753  0.5149
11586TIP3   OH256172   6.453   3.496   1.080 -0.3672 -0.5290 -0.6417
11586TIP3    H156173   6.452   3.403   1.104 -1.4110 -0.3784 -0.0478
11586TIP3    H256174   6.427   3.542   1.160 -2.8206  0.0616 -1.7072
11587TIP3   OH256175   2.166   1.365  15.881 -0.2408 -0.0185 -0.2176
11587TIP3    H156176   2.132   1.435  15.938  1.1297  1.3780 -1.0503
11587TIP3    H256177   2.143   1.284  15.927 -0.3396  1.0159  1.6761
11588TIP3   OH256178   0.176   1.259  15.257  0.2537 -0.1393 -0.1553
11588TIP3    H156179   0.105   1.249  15.320  0.4479  2.5051  0.6275
11588TIP3    H256180   0.139   1.232  15.173 -0.4815 -2.2975  0.8116
11589TIP3   OH256181   3.523   4.334   3.312 -0.0623 -0.1797  0.3184
11589TIP3    H156182   3.530   4.249   3.269  0.3972  0.1052 -0.1799
11589TIP3    H256183   3.613   4.368   3.313 -0.3151  0.5089  0.0801
11590TIP3   OH256184   1.479   2.598  15.272  0.2782  0.0038 -0.1147
11590TIP3    H156185   1.429   2.526  15.232  0.8143 -1.2602  1.3850
11590TIP3    H256186   1.559   2.603  15.220  0.6230 -1.0817  0.2987
11591TIP3   OH256187   1.921   0.834  12.124  0.8244 -0.6120 -0.4505
11591TIP3    H156188   1.998   0.849  12.069  0.9383 -1.4828 -0.5497
11591TIP3    H256189   1.913   0.738  12.128 -0.1939 -0.5344 -0.3603
11592TIP3   OH256190   0.198   5.890   3.653 -0.0502  0.3979 -0.2281
11592TIP3    H156191   0.212   5.983   3.671  1.6066 -0.1369  1.4853
11592TIP3    H256192   0.157   5.856   3.732  0.4123 -0.5500 -0.3844
11593TIP3   OH256193   3.186   0.420  13.391  0.7317 -0.0495  0.3957
11593TIP3    H156194   3.278   0.449  13.390  0.3193  1.2892 -0.7989
11593TIP3    H256195   3.148   0.466  13.466  0.4487  1.3648 -0.5945
11594TIP3   OH256196   2.955   6.639   5.557 -0.2149  0.0206 -0.1971
11594TIP3    H156197   3.047   6.627   5.581  0.0934 -0.3597 -1.5038
11594TIP3    H256198   2.908   6.632   5.640  0.7410 -1.9272  0.2387
11595TIP3   OH256199   1.168   5.218  12.147 -0.1328 -0.0570  0.2342
11595TIP3    H156200   1.121   5.141  12.179 -1.1079 -0.0439 -1.0611
11595TIP3    H256201   1.259   5.191  12.142  0.1054 -0.0407  2.9788
11596TIP3   OH256202   4.378   2.372  14.035  0.0300 -0.2583  0.0366
11596TIP3    H156203   4.289   2.402  14.049 -0.5515 -2.0443  0.4162
11596TIP3    H256204   4.425   2.396  14.116  0.1025  1.2964 -0.4412
11597TIP3   OH256205   4.841   1.315  15.506 -0.5904  0.0981  0.2560
11597TIP3    H156206   4.902   1.273  15.446  0.2284 -0.4983  1.4656
11597TIP3    H256207   4.791   1.376  15.451 -0.0959 -0.6577 -1.0647
11598TIP3   OH256208   3.506   0.100   5.369  0.1439 -0.8308 -0.4893
11598TIP3    H156209   3.569   0.172   5.367 -0.1036 -0.6060 -0.4215
11598TIP3    H256210   3.421   0.144   5.382 -0.1965 -1.0172 -1.9710
11599TIP3   OH256211   3.287   0.950   0.043  0.4294  0.6343 -0.4933
11599TIP3    H156212   3.238   1.023   0.004 -0.5459 -0.0636 -0.6007
11599TIP3    H256213   3.364   0.942  -0.012  0.7891  1.8812 -0.2109
11600TIP3   OH256214   0.058   2.915  10.113  0.5880  0.2821 -0.7710
11600TIP3    H156215   0.019   2.889  10.197  1.3455 -4.1601 -1.5758
11600TIP3    H256216   0.141   2.958  10.138  0.0383  0.5462  0.7309
11601TIP3   OH256217   6.156   4.272   2.985  0.4763  0.6041 -0.2685
11601TIP3    H156218   6.192   4.342   2.930  0.0330  1.6687  0.7321
11601TIP3    H256219   6.227   4.210   2.996  1.6863  2.0850  0.7305
11602TIP3   OH256220   5.418   0.684   4.814  0.4256  0.3056  0.3074
11602TIP3    H156221   5.489   0.632   4.851 -1.7896 -2.4816  0.9621
11602TIP3    H256222   5.340   0.653   4.859 -1.6150  1.1710 -2.3877
11603TIP3   OH256223   3.078   6.573  14.358 -0.6165  0.2590 -0.3474
11603TIP3    H156224   3.028   6.655  14.366 -1.0271 -0.1360  1.9776
11603TIP3    H256225   3.010   6.506  14.346 -0.5210 -0.0380  0.6794
11604TIP3   OH256226   0.914   5.691  12.281  0.3686  0.2259 -0.1576
11604TIP3    H156227   0.913   5.636  12.202 -1.6034  1.2196 -0.8987
11604TIP3    H256228   0.871   5.638  12.348  1.1661 -0.2385  0.0100
11605TIP3   OH256229   5.672   1.426   5.197 -0.3673  0.5622  0.0451
11605TIP3    H156230   5.712   1.430   5.284  3.2428  1.8596 -1.4704
11605TIP3    H256231   5.726   1.363   5.149 -1.0070  1.3659 -1.7874
11606TIP3   OH256232   6.023   3.923  14.539  0.0275 -0.0819 -0.2108
11606TIP3    H156233   6.032   4.012  14.573 -0.7483 -0.9974  2.6382
11606TIP3    H256234   6.106   3.881  14.560  0.2729 -0.1628 -1.2724
11607TIP3   OH256235   1.441   3.045   3.207 -0.2938  0.5299 -0.2967
11607TIP3    H156236   1.519   3.069   3.257  0.6935 -1.6187 -0.6487
11607TIP3    H256237   1.436   3.110   3.137 -0.7226  2.5765  1.5586
11608TIP3   OH256238   5.024   6.605  14.802  0.1077 -0.0959 -0.1578
11608TIP3    H156239   5.095   6.581  14.861 -0.1130  1.9240  1.0126
11608TIP3    H256240   4.945   6.575  14.846  0.0600 -0.1554 -0.2823
11609TIP3   OH256241   4.218   1.891   4.215  0.1192 -0.3397 -0.0246
11609TIP3    H156242   4.201   1.858   4.304  1.8432 -1.8931 -0.2039
11609TIP3    H256243   4.280   1.963   4.227  0.2685 -0.4789  0.0409
11610TIP3   OH256244   1.985   4.280   2.018  0.1069  0.0087  0.4130
11610TIP3    H156245   1.908   4.318   1.975 -0.5073 -0.3489  1.1713
11610TIP3    H256246   1.956   4.193   2.046  0.3927  0.3367  1.7855
11611TIP3   OH256247   6.664   5.817  11.568 -0.0576 -0.3293  0.5096
11611TIP3    H156248   6.578   5.836  11.529  0.4063  3.4675  0.9890
11611TIP3    H256249   6.727   5.838  11.498  0.5444 -1.0776  0.8155
11612TIP3   OH256250   3.966   2.839   6.790 -0.3416  0.1070  0.3358
11612TIP3    H156251   3.961   2.893   6.711  2.0078 -1.5139 -1.0174
11612TIP3    H256252   4.040   2.874   6.839 -0.9949  0.2916  1.2267
11613TIP3   OH256253   5.728   1.911  13.037 -0.6109  1.1104  0.5722
11613TIP3    H156254   5.822   1.909  13.016 -0.8259  0.7573 -0.4161
11613TIP3    H256255   5.723   1.876  13.126  0.2241  1.4471  0.7653
11614TIP3   OH256256   3.965   4.447   1.760 -0.0256 -0.2338 -0.4346
11614TIP3    H156257   3.971   4.542   1.745 -0.1895 -0.5482 -2.9128
11614TIP3    H256258   3.990   4.436   1.852 -1.5261  2.3433  0.4052
11615TIP3   OH256259   1.457   0.628  10.897  0.9245 -0.3852 -0.0359
11615TIP3    H156260   1.373   0.674  10.899 -0.8257 -3.2907 -0.5897
11615TIP3    H256261   1.519   0.694  10.866 -1.6419  1.2399 -2.2772
11616TIP3   OH256262   5.045   1.751  12.461 -0.0075  0.1013 -0.5582
11616TIP3    H156263   5.047   1.692  12.536  0.4901  0.4974 -0.2556
11616TIP3    H256264   5.050   1.838  12.499 -0.0255  0.3154 -1.0418
11617TIP3   OH256265   5.082   0.956   1.688 -0.0843 -0.2298  0.3762
11617TIP3    H156266   5.133   1.037   1.688 -0.0131 -0.2653 -0.3124
11617TIP3    H256267   4.992   0.984   1.672  0.1431 -0.3785 -1.3641
11618TIP3   OH256268   2.031   3.304   0.922  0.8288  0.7726 -0.3621
11618TIP3    H156269   2.023   3.356   1.002 -0.6695  0.7161 -0.4438
11618TIP3    H256270   1.995   3.360   0.853  0.2727  0.0831 -0.6448
11619TIP3   OH256271   2.189   3.147   0.123  0.6158  0.2980  0.6753
11619TIP3    H156272   2.166   3.059   0.153 -2.1146  0.6233 -0.1823
11619TIP3    H256273   2.244   3.133   0.046  1.3715 -0.6241  1.3739
11620TIP3   OH256274   3.105   1.611   4.995 -0.2894 -0.2425  0.3814
11620TIP3    H156275   3.053   1.578   5.069  1.6700  0.1350  2.0077
11620TIP3    H256276   3.072   1.699   4.979  0.6168  0.4767  2.2375
11621TIP3   OH256277   3.660   3.616   3.124 -0.1149 -0.4228  0.2013
11621TIP3    H156278   3.605   3.540   3.146 -1.0901  0.0875 -0.3943
11621TIP3    H256279   3.742   3.577   3.093  0.1264 -1.1887  1.7167
11622TIP3   OH256280   2.544   3.440   1.179 -0.5385 -0.2539 -0.5756
11622TIP3    H156281   2.480   3.371   1.162 -2.3432  1.7078 -2.4266
11622TIP3    H256282   2.493   3.521   1.175  1.8024  1.3196 -0.3971
11623TIP3   OH256283   4.346   5.803   4.501  0.8991  0.6559  0.0257
11623TIP3    H156284   4.318   5.845   4.583  0.2001  0.1337  0.0602
11623TIP3    H256285   4.438   5.829   4.492  1.0819  0.4637  1.1394
11624TIP3   OH256286   2.422   4.274   6.350 -0.2284  0.1519  0.4694
11624TIP3    H156287   2.356   4.237   6.292  1.1489 -0.6278 -0.6588
11624TIP3    H256288   2.378   4.348   6.392 -1.8013 -0.3354 -0.2385
11625TIP3   OH256289   0.003   2.010  12.137  0.3354  0.5875  0.0521
11625TIP3    H156290  -0.066   2.022  12.202  0.7495 -1.8366  1.0131
11625TIP3    H256291  -0.029   2.057  12.060 -1.8473  0.5055  0.8497
11626TIP3   OH256292   1.901   3.382   2.259 -1.0711  0.2838  0.3526
11626TIP3    H156293   1.825   3.386   2.201 -0.2644  0.3698 -0.7160
11626TIP3    H256294   1.910   3.289   2.279 -0.5681  0.0751 -0.7539
11627TIP3   OH256295   4.146   5.969   1.526 -0.0178 -0.1979 -0.2498
11627TIP3    H156296   4.113   6.025   1.595 -1.9758 -1.9903  0.4029
11627TIP3    H256297   4.146   5.881   1.564 -0.0865 -1.0797 -2.1497
11628TIP3   OH256298   1.287   1.642   3.643  0.1069 -0.2781 -0.0390
11628TIP3    H156299   1.344   1.714   3.614 -0.1960 -0.4452 -1.1014
11628TIP3    H256300   1.347   1.571   3.664  0.3082 -0.4654 -1.1857
11629TIP3   OH256301   2.418   6.591   2.705 -0.0384  0.0908  0.2555
11629TIP3    H156302   2.388   6.577   2.615  0.2189 -1.0062  0.3292
11629TIP3    H256303   2.513   6.592   2.699  0.0296 -1.2973  0.6692
11630TIP3   OH256304   4.497   1.917   5.299  0.0930  0.2019  0.4408
11630TIP3    H156305   4.515   1.986   5.236 -1.3508 -0.2225 -0.4676
11630TIP3    H256306   4.453   1.961   5.372  2.6590  0.8703  1.7016
11631TIP3   OH256307   1.154   4.769  12.022  0.2199 -0.0798 -0.2071
11631TIP3    H156308   1.166   4.804  12.110  2.2080  3.7320 -1.7523
11631TIP3    H256309   1.241   4.740  11.996 -0.7702 -3.4358 -0.2516
11632TIP3   OH256310   5.155   4.015  14.939 -0.1520 -0.6710  0.0786
11632TIP3    H156311   5.222   4.051  14.997 -0.1209 -1.4643  0.5332
11632TIP3    H256312   5.147   4.080  14.869 -0.7725  0.7079  1.3649
11633TIP3   OH256313   2.815   0.680   4.496 -0.4408  0.3433 -0.4177
11633TIP3    H156314   2.880   0.743   4.465  0.4177 -0.5156 -0.4267
11633TIP3    H256315   2.856   0.595   4.481 -1.5818 -0.2257 -0.4294
11634TIP3   OH256316   0.455   2.761   4.845 -0.0826  0.4415  0.1082
11634TIP3    H156317   0.398   2.830   4.879 -0.0430  0.1779  0.7282
11634TIP3    H256318   0.466   2.782   4.752  1.4691  2.3127  0.6789
11635TIP3   OH256319   1.201   1.964   3.547 -0.0403  0.2841  0.8449
11635TIP3    H156320   1.230   2.048   3.583  0.4443 -0.0174  1.1641
11635TIP3    H256321   1.121   1.944   3.595 -1.5110  1.7055 -0.8728
11636TIP3   OH256322   2.921   6.146  15.008 -0.1998  0.5301  0.1219
11636TIP3    H156323   2.856   6.155  14.939 -0.0793 -0.4146 -0.1291
11636TIP3    H256324   3.004   6.136  14.961 -0.2491 -1.2581  0.3349
11637TIP3   OH256325   0.842   2.443   5.559 -0.4595  0.5434 -0.3188
11637TIP3    H156326   0.843   2.430   5.465 -0.1136 -1.4986 -0.0854
11637TIP3    H256327   0.930   2.475   5.580  0.5790 -2.0585 -0.3874
11638TIP3   OH256328   4.963   4.825   1.939  0.1593  0.4724 -0.4589
11638TIP3    H156329   5.008   4.828   2.023  0.3396  0.9498 -0.5698
11638TIP3    H256330   5.007   4.892   1.885 -0.4910  0.7529 -0.6562
11639TIP3   OH256331   6.528   3.848  12.635 -0.1691  0.2879  0.0763
11639TIP3    H156332   6.606   3.812  12.591  1.4604  1.5718  1.7446
11639TIP3    H256333   6.527   3.805  12.721  0.2199  2.1280  1.0398
11640TIP3   OH256334   5.683   6.548   5.452  0.5837  0.0481 -0.0099
11640TIP3    H156335   5.694   6.490   5.377  0.1899 -0.6056  0.4231
11640TIP3    H256336   5.738   6.510   5.520  0.3958  0.2382  0.2487
11641TIP3   OH256337   6.567   1.975  14.928 -0.2334  0.2236  0.2033
11641TIP3    H156338   6.522   1.915  14.869 -0.2542 -0.6265  1.0726
11641TIP3    H256339   6.535   2.062  14.903 -0.3628 -0.1325 -0.9191
11642TIP3   OH256340   1.339   3.192   3.756  0.2808  0.3403  0.0917
11642TIP3    H156341   1.281   3.237   3.696 -0.0202  1.4483  1.1644
11642TIP3    H256342   1.360   3.258   3.823  0.3330 -0.9332  1.3686
11643TIP3   OH256343   4.693   3.937   4.507  0.2391 -0.7706 -0.0862
11643TIP3    H156344   4.700   4.030   4.484  0.3451 -0.3753  1.4085
11643TIP3    H256345   4.732   3.891   4.433  0.3077  0.3798 -0.7970
11644TIP3   OH256346   3.890   5.344   2.806 -0.0527  0.5955  0.1331
11644TIP3    H156347   3.945   5.413   2.769  0.9816 -0.2654 -0.0006
11644TIP3    H256348   3.848   5.304   2.730  0.8432 -0.1483  0.0131
11645TIP3   OH256349   0.444   1.164  12.237 -0.5025  0.2238 -0.3025
11645TIP3    H156350   0.518   1.207  12.192  0.4805 -1.0174  0.0533
11645TIP3    H256351   0.366   1.201  12.196  0.3257  1.2640 -0.9940
11646TIP3   OH256352   1.248   0.507   0.985 -0.1165 -0.2807  0.4675
11646TIP3    H156353   1.154   0.503   0.967 -0.3567  0.0069  1.5837
11646TIP3    H256354   1.264   0.598   1.009  0.7396  0.0241 -1.1022
11647TIP3   OH256355   6.670   6.576  11.483 -0.6325 -0.0071  0.2708
11647TIP3    H156356   6.604   6.509  11.465  0.4905 -1.1883  0.3621
11647TIP3    H256357   6.749   6.526  11.504  1.3960  1.1858 -3.5374
11648TIP3   OH256358   6.809   1.860  10.929 -0.4591  0.4362 -0.4560
11648TIP3    H156359   6.779   1.878  10.840 -0.6599  0.8826 -0.3012
11648TIP3    H256360   6.874   1.791  10.919 -1.9468 -0.9995 -0.7679
11649TIP3   OH256361   6.565   0.469  14.451  0.6295 -0.5521 -0.1768
11649TIP3    H156362   6.491   0.409  14.459  1.0828 -1.0818  0.1019
11649TIP3    H256363   6.628   0.423  14.395  0.2536  0.4015 -1.4387
11650TIP3   OH256364   1.022   3.350  11.482 -0.6096 -0.2242  0.1980
11650TIP3    H156365   1.017   3.287  11.410 -2.4154 -1.2221  1.1288
11650TIP3    H256366   0.931   3.371  11.501 -0.0755  2.2858  0.3042
11651TIP3   OH256367   6.300   3.924  12.482  0.5727  0.1921 -0.7289
11651TIP3    H156368   6.339   3.935  12.395 -0.0927 -0.2964 -1.1011
11651TIP3    H256369   6.370   3.884  12.535  0.7532 -0.1820 -1.2427
11652TIP3   OH256370   4.500   0.520   6.071  0.3631  0.1049 -0.1533
11652TIP3    H156371   4.551   0.599   6.052  0.4910  0.6147  2.0466
11652TIP3    H256372   4.462   0.537   6.157  0.8963 -2.5048  0.6645
11653TIP3   OH256373   1.722   2.753  14.149  0.3344 -0.0092 -0.0995
11653TIP3    H156374   1.672   2.749  14.067  0.5767 -0.6577 -0.2261
11653TIP3    H256375   1.813   2.753  14.121  0.4204  1.1115  0.1339
11654TIP3   OH256376   3.918   4.434  15.522  0.1112 -0.2518  0.3549
11654TIP3    H156377   3.927   4.338  15.517 -0.1401 -0.2864  0.5507
11654TIP3    H256378   3.839   4.453  15.472  0.6205 -0.0610 -0.3940
11655TIP3   OH256379   3.320   5.091  13.392  0.4729  0.1557  0.1357
11655TIP3    H156380   3.302   5.157  13.324 -0.7706  0.9651  1.1945
11655TIP3    H256381   3.415   5.086  13.395  0.6883  2.8245  0.8245
11656TIP3   OH256382   0.296   5.502  15.929 -0.3657 -0.6938 -0.1466
11656TIP3    H156383   0.362   5.442  15.895  0.8406  0.9255 -0.7629
11656TIP3    H256384   0.345   5.565  15.982 -1.4674  0.2593 -0.2181
11657TIP3   OH256385   1.508   3.995   2.763  0.2403  0.2043  0.2280
11657TIP3    H156386   1.513   3.918   2.707 -0.1467  0.6261 -0.4068
11657TIP3    H256387   1.523   4.069   2.704 -1.3443  0.7378  0.4198
11658TIP3   OH256388   6.778   2.270  15.965 -0.1539  0.6056 -0.4046
11658TIP3    H156389   6.707   2.246  15.906 -0.6662 -0.3951  0.5887
11658TIP3    H256390   6.764   2.217  16.043  1.2247  0.9868  0.1360
11659TIP3   OH256391   5.029   4.071  15.976 -0.4276 -0.1630  0.1687
11659TIP3    H156392   5.043   4.134  16.046 -0.6506 -1.5629  1.5277
11659TIP3    H256393   4.937   4.082  15.952 -0.2726  0.5288 -0.1280
11660TIP3   OH256394   6.226   3.273   3.692  0.1863  0.0145  0.1031
11660TIP3    H156395   6.262   3.334   3.629 -0.4576 -1.7475 -2.1052
11660TIP3    H256396   6.300   3.219   3.720 -0.1874 -2.3393 -2.9554
11661TIP3   OH256397   5.091   0.908   3.712 -0.5298  0.2628 -0.2312
11661TIP3    H156398   5.067   0.910   3.619 -0.2576  1.1201 -0.2842
11661TIP3    H256399   5.150   0.982   3.724 -0.3562  0.0049  0.5767
11662TIP3   OH256400   4.764   3.075  16.003  0.2388 -0.6316  0.1240
11662TIP3    H156401   4.673   3.049  16.022  0.0249 -0.6798 -0.9345
11662TIP3    H256402   4.761   3.170  16.000 -0.0968 -0.6759 -1.4091
11663TIP3   OH256403   4.668   2.682   2.146  0.1459  0.1610 -0.4604
11663TIP3    H156404   4.655   2.655   2.237 -1.3572 -1.1210 -1.0194
11663TIP3    H256405   4.679   2.777   2.151 -2.5993  0.5116  0.8535
11664TIP3   OH256406   4.825   2.068  13.308 -0.3729  0.1160 -0.3210
11664TIP3    H156407   4.737   2.035  13.326 -1.0762  1.2771 -1.5046
11664TIP3    H256408   4.849   2.027  13.225 -0.1912  0.5712 -0.4914
11665TIP3   OH256409   3.874   4.920   5.637  0.0609 -0.2120 -0.7182
11665TIP3    H156410   3.804   4.955   5.693 -0.0098 -0.6034 -0.5599
11665TIP3    H256411   3.870   4.825   5.650 -0.0374 -0.3140 -1.4929
11666TIP3   OH256412   5.108   1.501  15.458  0.5009  0.3074  0.4003
11666TIP3    H156413   5.057   1.469  15.532 -1.2779  1.5078 -0.2527
11666TIP3    H256414   5.100   1.432  15.392  0.5166  0.0788  0.6335
11667TIP3   OH256415   2.114   5.085  16.224  0.2290 -0.2219  0.9356
11667TIP3    H156416   2.103   5.170  16.182  0.1940 -1.1103 -0.9516
11667TIP3    H256417   2.208   5.068  16.219 -0.0163 -1.3082 -0.9025
11668TIP3   OH256418   1.631   6.215  15.034  0.3195 -0.0519  0.0412
11668TIP3    H156419   1.673   6.147  14.982  1.7737 -0.3629  1.5183
11668TIP3    H256420   1.607   6.283  14.971 -2.2954 -2.3580 -1.6583
11669TIP3   OH256421   5.093   4.439  13.320  0.5503  0.0417 -0.5535
11669TIP3    H156422   5.107   4.529  13.349  2.3288 -0.3372 -0.0818
11669TIP3    H256423   5.169   4.391  13.355  0.9655 -1.1355 -2.9095
11670TIP3   OH256424   0.625   0.610   1.246  0.4089  0.0664  0.1969
11670TIP3    H156425   0.606   0.682   1.186  1.5087 -1.2026 -1.7807
11670TIP3    H256426   0.548   0.553   1.241 -1.1643  1.6948  2.9314
11671TIP3   OH256427   4.102   1.893   1.576  0.0342 -0.2726  0.4412
11671TIP3    H156428   4.195   1.915   1.586 -0.0856  1.0414 -0.9546
11671TIP3    H256429   4.057   1.953   1.635  0.0181 -0.2211  0.3767
11672TIP3   OH256430   5.884   0.054   1.445  0.3605 -0.3348  0.2448
11672TIP3    H156431   5.805   0.092   1.407  1.5617  0.8561 -1.2191
11672TIP3    H256432   5.860  -0.036   1.465 -0.4518 -1.0393 -3.3044
11673TIP3   OH256433   6.761   6.592  16.225  0.2783 -0.1551 -0.3191
11673TIP3    H156434   6.846   6.552  16.242  0.4532  0.1527 -0.4621
11673TIP3    H256435   6.774   6.642  16.145  0.0166  0.0594 -0.2271
11674TIP3   OH256436   5.585   2.560  12.339 -0.0925  0.1517 -0.8334
11674TIP3    H156437   5.662   2.601  12.300  0.1281  0.2598 -0.2971
11674TIP3    H256438   5.512   2.591  12.286  0.1991  0.2903 -1.1607
11675TIP3   OH256439   2.875   4.500  12.914 -0.0125  0.0454 -0.6060
11675TIP3    H156440   2.945   4.566  12.920  1.4066 -1.4154 -0.3288
11675TIP3    H256441   2.794   4.549  12.930  0.9759  1.7228 -0.4979
11676TIP3   OH256442   5.610   3.722   1.755  0.1964 -0.0958 -0.0739
11676TIP3    H156443   5.524   3.721   1.713  0.0028  1.1797  0.2525
11676TIP3    H256444   5.612   3.805   1.803  2.6036  1.2666 -2.2466
11677TIP3   OH256445   5.090   1.840   6.149  0.2517  0.0038  0.9895
11677TIP3    H156446   5.139   1.771   6.104 -0.1761  0.8460 -0.8395
11677TIP3    H256447   5.051   1.796   6.225  2.1870 -1.1259  1.3883
11678TIP3   OH256448   6.577   6.295   0.720 -0.0922 -1.4119 -0.6495
11678TIP3    H156449   6.632   6.219   0.706  2.8547  0.0013  1.9478
11678TIP3    H256450   6.637   6.370   0.713 -2.0347  0.3833  0.6394
11679TIP3   OH256451   4.504   5.871  15.822 -0.3561  0.4128  0.0302
11679TIP3    H156452   4.486   5.933  15.892 -0.6782  1.0084 -0.5726
11679TIP3    H256453   4.479   5.786  15.858 -0.4228  0.6980  0.6702
11680TIP3   OH256454   0.722   6.721  13.922  0.4972 -0.4299 -0.5001
11680TIP3    H156455   0.752   6.649  13.977  0.6077 -1.1033 -1.4075
11680TIP3    H256456   0.630   6.702  13.906  0.4345 -0.1729 -0.4429
11681TIP3   OH256457   5.241   3.172  14.204 -0.7189  0.3568  0.3795
11681TIP3    H156458   5.153   3.141  14.226  0.4559 -2.1093  2.0008
11681TIP3    H256459   5.274   3.108  14.142 -0.1739  1.5341 -0.5941
11682TIP3   OH256460   5.284   1.630  15.768  0.3538  0.5558  0.4648
11682TIP3    H156461   5.199   1.632  15.724  0.6934  2.2026 -0.1822
11682TIP3    H256462   5.264   1.599  15.856 -0.5366 -1.4636 -0.3692
11683TIP3   OH256463   2.315   2.296  12.498  0.5853  0.0985 -0.1060
11683TIP3    H156464   2.373   2.248  12.439  1.1351 -0.2461  0.7028
11683TIP3    H256465   2.229   2.291  12.456  0.4058 -2.4622  0.4113
11684TIP3   OH256466   2.122   0.331  14.612  0.4651  0.1360 -0.3105
11684TIP3    H156467   2.186   0.330  14.541  1.4249  0.4382  0.5339
11684TIP3    H256468   2.045   0.374  14.574  0.1844 -1.5135 -1.7843
11685TIP3   OH256469   2.368   1.130   2.959  0.4341  0.0972 -0.0564
11685TIP3    H156470   2.369   1.045   3.002  1.3628  0.2592  0.2633
11685TIP3    H256471   2.406   1.114   2.872 -0.4018 -0.0164 -0.4071
11686TIP3   OH256472   6.390   0.267  13.165  0.4667 -0.3111 -0.0681
11686TIP3    H156473   6.472   0.313  13.147  0.5356 -0.7447 -0.9213
11686TIP3    H256474   6.352   0.314  13.239  1.0738  0.4223 -0.2060
11687TIP3   OH256475   5.686   3.530   2.671  0.1320 -0.2150  0.3245
11687TIP3    H156476   5.726   3.610   2.706 -2.7905  0.1080  3.4511
11687TIP3    H256477   5.659   3.553   2.583  1.8254  1.2679  0.1375
11688TIP3   OH256478   1.281   0.113   1.938 -0.1119 -0.2530  0.6160
11688TIP3    H156479   1.274   0.071   1.852  3.5394 -1.1063  0.5716
11688TIP3    H256480   1.260   0.205   1.921  1.7447 -0.1434 -1.5454
11689TIP3   OH256481   0.679   1.349  15.630  0.4183 -0.5927 -0.0282
11689TIP3    H156482   0.651   1.309  15.712  0.8000  2.2487  1.5963
11689TIP3    H256483   0.640   1.436  15.630  1.3688 -0.0806 -2.3204
11690TIP3   OH256484   4.208   2.384   2.587 -0.3030  0.4483  0.1610
11690TIP3    H156485   4.250   2.416   2.507  1.7945  0.0443  1.0392
11690TIP3    H256486   4.187   2.292   2.569  2.8924 -0.5527  0.9853
11691TIP3   OH256487   2.233   0.677  12.583 -0.4423 -0.4682  0.0849
11691TIP3    H156488   2.272   0.620  12.517  0.4012  1.0342 -0.7708
11691TIP3    H256489   2.294   0.673  12.657 -0.3389 -0.6201 -0.0096
11692TIP3   OH256490   1.533   4.977  15.180  0.0345 -0.2892  0.5196
11692TIP3    H156491   1.596   5.046  15.202  0.3601 -0.8110  1.2698
11692TIP3    H256492   1.479   4.969  15.259 -0.6193 -0.2331  0.0818
11693TIP3   OH256493   3.616   2.294   4.824 -0.6229 -0.0094 -0.0239
11693TIP3    H156494   3.652   2.318   4.739 -2.1796 -1.7482 -1.2793
11693TIP3    H256495   3.627   2.199   4.828  0.8421  0.1758  2.4802
11694TIP3   OH256496   0.898   3.105  13.105  0.2527 -0.0855 -0.3501
11694TIP3    H156497   0.946   3.105  13.187  1.3551 -0.5865 -0.9711
11694TIP3    H256498   0.904   3.015  13.074  0.9250  0.3516 -1.5721
11695TIP3   OH256499   5.003   1.443   0.446  0.0487 -0.1097 -0.2755
11695TIP3    H156500   4.921   1.488   0.423 -0.1970 -0.1887  0.4131
11695TIP3    H256501   4.975   1.367   0.496  0.6149  1.2795  2.3495
11696TIP3   OH256502   1.671   3.140  16.754  0.4393  0.0685 -0.2570
11696TIP3    H156503   1.593   3.154  16.807  1.0777 -0.2748  0.8044
11696TIP3    H256504   1.693   3.227  16.721 -0.4759  0.1415 -0.7083
11697TIP3   OH256505   1.609   1.477  12.661  0.2924  0.3302  0.6469
11697TIP3    H156506   1.692   1.515  12.632  0.7315 -0.7372  0.4455
11697TIP3    H256507   1.632   1.388  12.688 -0.8914 -0.2135 -0.0575
11698TIP3   OH256508   0.344   4.361   6.274  0.7293  0.3454 -0.3159
11698TIP3    H156509   0.415   4.298   6.260  0.9424  0.5972 -0.3794
11698TIP3    H256510   0.336   4.407   6.191  0.6225  0.4540 -0.2469
11699TIP3   OH256511   4.415   3.606   2.906  0.3753 -0.1733  0.2040
11699TIP3    H156512   4.393   3.590   2.998 -0.9408 -0.8803 -0.2134
11699TIP3    H256513   4.343   3.566   2.857  0.6895  0.8401 -1.1177
11700TIP3   OH256514   5.519   6.103   3.516  0.3170  0.0462 -0.3048
11700TIP3    H156515   5.445   6.108   3.455  0.5870  1.7499 -0.5316
11700TIP3    H256516   5.494   6.033   3.577 -0.1858 -1.3756 -2.0261
11701TIP3   OH256517   4.684   6.050   2.843 -0.4515  0.0681 -0.7540
11701TIP3    H156518   4.744   6.124   2.834 -0.5567  0.0741 -1.5187
11701TIP3    H256519   4.597   6.091   2.852 -0.2988  0.0829  1.1198
11702TIP3   OH256520   5.784   1.836   1.638  0.0208 -0.3815 -0.5389
11702TIP3    H156521   5.858   1.862   1.692  0.7948 -2.0940 -0.7121
11702TIP3    H256522   5.714   1.897   1.663  1.8864  2.3737 -1.5556
11703TIP3   OH256523   6.445   6.265   5.281 -0.6619 -0.1712 -0.0943
11703TIP3    H156524   6.450   6.324   5.357 -2.1145 -0.6615  0.4231
11703TIP3    H256525   6.459   6.323   5.206  0.0432  0.4588  0.4954
11704TIP3   OH256526   3.507   4.894  16.218 -0.1809 -0.0073 -0.3619
11704TIP3    H156527   3.507   4.798  16.219 -1.2996 -0.0127  0.0259
11704TIP3    H256528   3.557   4.917  16.139 -2.3655 -0.9548 -2.1183
11705TIP3   OH256529   1.959   4.035   2.363 -0.2747  0.1497 -0.0956
11705TIP3    H156530   1.912   4.089   2.299  1.6663  0.6984 -1.1301
11705TIP3    H256531   2.042   4.080   2.376  0.2962 -1.1781  1.1244
11706TIP3   OH256532   4.327   2.154  15.093 -0.7073 -0.0486 -0.1987
11706TIP3    H156533   4.376   2.122  15.169 -0.0497 -0.2685 -0.7054
11706TIP3    H256534   4.241   2.113  15.101 -0.9015  0.5465  0.8438
11707TIP3   OH256535   3.456   2.805  11.993  0.0037 -0.2995  0.6970
11707TIP3    H156536   3.479   2.887  12.036  0.0172  0.1027 -0.0522
11707TIP3    H256537   3.373   2.822  11.950 -1.1367 -1.3803  2.3717
11708TIP3   OH256538   4.984   0.066   5.157  0.5506  0.3294 -0.0953
11708TIP3    H156539   5.047   0.075   5.085  0.8750  1.9052  0.3531
11708TIP3    H256540   4.983  -0.028   5.175  0.3684 -0.1234 -2.2190
11709TIP3   OH256541   5.363   0.660   5.306  0.7012 -0.1054  0.2621
11709TIP3    H156542   5.284   0.607   5.318  1.4643 -1.1790  0.6222
11709TIP3    H256543   5.337   0.747   5.338 -0.7414 -0.0784 -0.8806
11710TIP3   OH256544   1.831   0.263  14.172 -0.0537 -0.8960 -0.1635
11710TIP3    H156545   1.755   0.221  14.213 -0.2101 -1.2067 -0.7629
11710TIP3    H256546   1.841   0.217  14.088  0.1834 -0.1852 -0.5276
11711TIP3   OH256547   0.891   6.122   2.954 -0.4892 -0.2530  0.2312
11711TIP3    H156548   0.805   6.095   2.986 -0.5534 -1.0430 -0.5709
11711TIP3    H256549   0.903   6.211   2.988 -1.6172 -0.1410  0.3583
11712TIP3   OH256550   5.821   4.125   1.966 -0.6689 -0.7677  0.2333
11712TIP3    H156551   5.878   4.196   1.994  0.4800 -0.2883 -2.9291
11712TIP3    H256552   5.868   4.081   1.896 -3.7975 -0.8183 -2.0776
11713TIP3   OH256553   4.029   2.302  11.419  0.4118 -0.1156 -0.2621
11713TIP3    H156554   4.122   2.310  11.437  0.6007  0.2156 -1.3222
11713TIP3    H256555   4.024   2.252  11.337 -0.3117  0.4471 -0.5772
11714TIP3   OH256556   1.108   4.015   0.918 -0.9154 -0.5622 -0.5888
11714TIP3    H156557   1.123   3.941   0.978 -0.5247  0.0443  0.0782
11714TIP3    H256558   1.176   4.078   0.941 -0.9718 -0.1784 -1.4596
11715TIP3   OH256559   0.920   2.859  11.340 -0.0735 -0.2014  0.2851
11715TIP3    H156560   0.951   2.880  11.429 -0.7813  1.8666  0.0915
11715TIP3    H256561   0.894   2.767  11.345  3.2070 -1.2407  1.2490
11716TIP3   OH256562   1.425   5.299   1.726 -0.0133 -0.4534  0.1703
11716TIP3    H156563   1.485   5.226   1.737 -1.0393 -1.1080  1.8633
11716TIP3    H256564   1.411   5.333   1.815  0.1041  1.5529 -0.5106
11717TIP3   OH256565   2.847   4.632   3.535  0.1065  0.7414  0.1635
11717TIP3    H156566   2.816   4.611   3.623  0.5174 -2.1244 -0.2817
11717TIP3    H256567   2.943   4.634   3.543  0.1004  2.3194  0.1043
11718TIP3   OH256568   1.624   0.282  13.270  0.1210  0.3550  0.1015
11718TIP3    H156569   1.700   0.339  13.258  0.3993  0.0586  0.4004
11718TIP3    H256570   1.661   0.202  13.308  0.1459 -1.1041 -2.7924
11719TIP3   OH256571   5.523   3.534  16.210  0.3434  0.3474 -0.4872
11719TIP3    H156572   5.505   3.473  16.282  1.3736  0.4148 -0.1486
11719TIP3    H256573   5.437   3.566  16.183 -0.0358  0.7140  1.0559
11720TIP3   OH256574   1.177   4.583   1.166 -0.0091 -0.8896 -0.1192
11720TIP3    H156575   1.105   4.519   1.163  0.1406 -1.1009  0.6527
11720TIP3    H256576   1.206   4.582   1.257  0.1456  0.1215 -0.1534
11721TIP3   OH256577   6.145   6.053   1.229 -0.0412  0.3160 -0.1618
11721TIP3    H156578   6.100   6.025   1.150  1.6522  0.4246 -1.2172
11721TIP3    H256579   6.159   5.973   1.280 -2.7464  0.4722  0.9737
11722TIP3   OH256580   1.957   0.235  13.847 -0.4005  0.0107  0.4403
11722TIP3    H156581   1.924   0.324  13.837 -1.3736 -0.2511  1.1749
11722TIP3    H256582   1.995   0.214  13.762 -0.5004  0.9915  0.1442
11723TIP3   OH256583   3.322   4.020   5.841  0.3108 -0.4093 -0.2567
11723TIP3    H156584   3.243   3.973   5.814 -0.9518  1.0384  0.7764
11723TIP3    H256585   3.370   3.956   5.894 -0.3667 -1.1779 -0.5289
11724TIP3   OH256586   4.517   3.871   2.145 -0.2986  0.2958  0.3623
11724TIP3    H156587   4.517   3.966   2.157 -2.9285  0.5417 -0.8883
11724TIP3    H256588   4.512   3.836   2.234 -1.6057  1.4351  0.7805
11725TIP3   OH256589   5.185   5.106   5.615 -0.3013  0.7172  0.3216
11725TIP3    H156590   5.155   5.160   5.688 -0.3334 -1.6108  2.1323
11725TIP3    H256591   5.141   5.022   5.627  3.1579 -1.2857  0.3775
11726TIP3   OH256592   4.080   0.250  15.696 -0.4191  0.2001  0.2849
11726TIP3    H156593   4.165   0.286  15.672 -0.8989  0.3645 -1.2944
11726TIP3    H256594   4.081   0.160  15.663 -1.3113  0.6122 -0.9464
11727TIP3   OH256595   4.389   2.400  11.162  0.4998 -0.5167  0.2550
11727TIP3    H156596   4.399   2.447  11.080 -3.0945 -1.9480 -1.2223
11727TIP3    H256597   4.307   2.433  11.199  0.2255 -2.3536  1.4366
11728TIP3   OH256598   6.455   4.068  16.261  0.2455 -0.0585  0.4609
11728TIP3    H156599   6.406   4.019  16.328  1.4380 -0.1825  1.2787
11728TIP3    H256600   6.403   4.057  16.181 -1.2718  0.1795  1.3659
11729TIP3   OH256601   3.912   4.647   5.590  0.1767  0.1952 -0.0361
11729TIP3    H156602   3.996   4.687   5.567  0.9624  0.3861  2.7689
11729TIP3    H256603   3.928   4.553   5.583  1.0103  0.1906  1.4368
11730TIP3   OH256604   0.647   0.713  15.045 -0.1518 -0.2086 -0.5592
11730TIP3    H156605   0.715   0.766  15.003 -0.3118 -0.3023 -0.9417
11730TIP3    H256606   0.587   0.690  14.974 -0.8386  0.2621 -0.1463
11731TIP3   OH256607   4.873   0.112   0.763 -0.2717 -0.4298 -0.1762
11731TIP3    H156608   4.780   0.117   0.742 -0.5462 -0.3692  0.9977
11731TIP3    H256609   4.902   0.029   0.725 -0.6505 -0.1530 -1.0903
11732TIP3   OH256610   5.338   2.759  13.316 -0.3035 -0.0576  0.5773
11732TIP3    H156611   5.285   2.823  13.363 -0.0473  0.8991 -0.3831
11732TIP3    H256612   5.277   2.719  13.254 -0.0805  0.5794 -0.0762
11733TIP3   OH256613   4.978   5.870  13.630  0.1992 -0.1845 -0.4432
11733TIP3    H156614   4.997   5.839  13.719 -0.2790  0.0066 -0.2731
11733TIP3    H256615   5.038   5.820  13.574  3.9028  2.8582  0.3576
11734TIP3   OH256616   1.184   3.051  15.706 -0.1654 -0.0176 -0.1685
11734TIP3    H156617   1.213   2.997  15.632  0.6348 -1.6279  1.2529
11734TIP3    H256618   1.107   3.005  15.740  0.0327  0.1759  0.5563
11735TIP3   OH256619   0.650   3.948   5.537 -0.3208  0.8562  0.1828
11735TIP3    H156620   0.586   4.019   5.527 -1.4180 -0.1224 -0.0317
11735TIP3    H256621   0.598   3.868   5.524  1.1778  0.0539 -1.1468
11736TIP3   OH256622   1.787   2.456   1.211  0.4027  0.0596  0.2047
11736TIP3    H156623   1.724   2.433   1.279 -0.9275  0.8057 -0.7241
11736TIP3    H256624   1.864   2.404   1.231  0.1449  0.4658  2.4225
11737TIP3   OH256625   0.888   4.026   5.961 -0.2082 -0.6290  0.0267
11737TIP3    H156626   0.978   4.006   5.939 -0.5368 -2.6618  0.3703
11737TIP3    H256627   0.893   4.064   6.049  0.2545 -1.3720  0.3269
11738TIP3   OH256628   4.292   1.846   4.788 -0.5227 -0.2384  0.8615
11738TIP3    H156629   4.350   1.835   4.713 -0.6626 -2.2493  0.9811
11738TIP3    H256630   4.225   1.906   4.758 -0.8256 -1.3351 -0.8070
11739TIP3   OH256631   1.113   6.372   0.734 -0.1792 -0.1323 -0.2403
11739TIP3    H156632   1.081   6.393   0.821  0.5560  0.7550 -0.1645
11739TIP3    H256633   1.128   6.457   0.692  1.4911 -0.4923 -0.4553
11740TIP3   OH256634   2.994   5.606  13.216  0.1575  0.7180 -0.3998
11740TIP3    H156635   2.993   5.680  13.155  2.1207  1.0217 -0.1457
11740TIP3    H256636   3.038   5.639  13.294  1.2230 -0.7313 -0.3313
11741TIP3   OH256637   2.988   6.062  16.743 -0.4661 -0.3204  0.5952
11741TIP3    H156638   2.987   5.968  16.727 -1.0197 -0.3709  0.9065
11741TIP3    H256639   3.015   6.071  16.834  2.5071 -0.0345 -0.1936
11742TIP3   OH256640   4.175   1.712  16.406 -0.0114 -0.4011 -0.3284
11742TIP3    H156641   4.092   1.698  16.453  1.2685 -1.7990  1.6718
11742TIP3    H256642   4.218   1.626  16.408  1.8806  0.5030 -0.5085
11743TIP3   OH256643   6.093   5.449  15.682 -0.1153  0.6169  0.2813
11743TIP3    H156644   6.156   5.377  15.689 -0.3923  0.2754 -0.6182
11743TIP3    H256645   6.028   5.429  15.749 -0.4314 -0.2330 -0.2627
11744TIP3   OH256646   3.035   1.273  15.184 -0.1113 -0.2515  0.3776
11744TIP3    H156647   3.035   1.210  15.257  0.6266 -2.3718 -1.3310
11744TIP3    H256648   3.111   1.247  15.131  0.0711  1.9882 -0.5402
11745TIP3   OH256649   4.570   6.538   3.077 -0.5375 -0.0015  0.2789
11745TIP3    H156650   4.615   6.500   3.002  0.7556 -0.6524  1.3495
11745TIP3    H256651   4.525   6.465   3.119 -2.6158  0.6130 -0.7065
11746TIP3   OH256652   6.322   3.683  15.364  0.3644 -0.0717 -0.0749
11746TIP3    H156653   6.292   3.619  15.300  0.2850  0.0350 -0.1446
11746TIP3    H256654   6.265   3.670  15.439 -1.0950  1.3631 -0.8632
11747TIP3   OH256655   6.323   6.261  12.567  0.9274 -0.2051  0.0617
11747TIP3    H156656   6.393   6.234  12.507  0.4160 -0.0040 -0.6413
11747TIP3    H256657   6.253   6.198  12.552  0.2449  0.6775 -0.6151
11748TIP3   OH256658   3.676   5.749  14.429  0.1274  0.1701 -0.4093
11748TIP3    H156659   3.712   5.814  14.369 -0.9790  0.1605 -1.0880
11748TIP3    H256660   3.625   5.800  14.492  2.0849  0.2923  1.1794
11749TIP3   OH256661   0.261   3.062   2.469  0.3961  0.4378 -0.3111
11749TIP3    H156662   0.335   3.054   2.530  0.8006  2.6858 -0.4268
11749TIP3    H256663   0.301   3.056   2.382 -0.4321 -5.2407 -0.6686
11750TIP3   OH256664   1.135   5.773  16.356 -0.2305  0.0058  0.2377
11750TIP3    H156665   1.043   5.754  16.339 -0.2918 -0.6757  1.2750
11750TIP3    H256666   1.135   5.856  16.403 -0.3083 -0.0222  0.2861
11751TIP3   OH256667   6.230   5.508   0.810 -0.8345 -0.4041  0.3143
11751TIP3    H156668   6.251   5.577   0.873 -0.5881  0.3158 -0.5370
11751TIP3    H256669   6.294   5.440   0.827 -0.0401  0.2696  0.1010
11752TIP3   OH256670   1.240   4.002  11.050  0.1187 -0.4281 -0.1078
11752TIP3    H156671   1.184   3.926  11.035 -0.6479 -0.0499  0.6967
11752TIP3    H256672   1.221   4.060  10.977  0.2104 -0.7306 -0.3730
11753TIP3   OH256673   5.709   0.448  12.240  0.6065  0.3025 -0.5151
11753TIP3    H156674   5.676   0.424  12.326  0.4789  2.9065  0.2660
11753TIP3    H256675   5.803   0.463  12.254  0.2994  2.3524 -0.3679
11754TIP3   OH256676   0.915   5.132  16.453  0.3721 -0.3321  0.3314
11754TIP3    H156677   0.894   5.107  16.363  1.0595  0.0236  0.0620
11754TIP3    H256678   0.850   5.087  16.507 -0.7828  0.3887 -0.4233
11755TIP3   OH256679   6.070   0.714  16.134 -0.1275  0.0511  0.0559
11755TIP3    H156680   6.130   0.755  16.196  0.8610 -1.0604 -0.1302
11755TIP3    H256681   5.996   0.775  16.128  0.7810  1.2504  0.6145
11756TIP3   OH256682   2.220   6.284   5.630  0.1647 -0.7731  0.2880
11756TIP3    H156683   2.141   6.270   5.578  0.7854 -1.3607 -0.5170
11756TIP3    H256684   2.214   6.219   5.700  0.0022 -0.9042  0.1535
11757TIP3   OH256685   1.458   6.496  16.965  0.3239  0.1176  0.2689
11757TIP3    H156686   1.518   6.427  16.993  0.8908  1.0480  1.3929
11757TIP3    H256687   1.514   6.572  16.950 -0.6326  1.2691  2.1924
11758TIP3   OH256688   2.799   6.657  10.517 -0.4825 -0.5355  0.4255
11758TIP3    H156689   2.872   6.612  10.474  0.0078  2.0834 -1.7539
11758TIP3    H256690   2.837   6.692  10.598  0.6031  0.2932 -0.3981
11759TIP3   OH256691   0.927   5.247  12.780  0.5093  0.3579 -0.4070
11759TIP3    H156692   0.901   5.272  12.868 -0.3150 -0.5459 -0.3786
11759TIP3    H256693   0.936   5.330  12.733  1.5269  0.8814  0.6623
11760TIP3   OH256694   5.985   5.279   2.403 -0.1486  0.1712  0.2254
11760TIP3    H156695   6.049   5.209   2.394 -0.5027 -0.2514  0.9014
11760TIP3    H256696   6.009   5.323   2.485  0.1108  0.8850 -0.2255
11761TIP3   OH256697   2.942   1.939  11.025  0.1629  0.1852 -0.1204
11761TIP3    H156698   2.862   1.990  11.037  0.5646  0.5838  1.0310
11761TIP3    H256699   2.916   1.865  10.970 -0.6406  1.1159 -1.0457
11762TIP3   OH256700   6.709   3.438   2.800  0.3007  0.3391  0.1563
11762TIP3    H156701   6.690   3.530   2.781  0.5128 -0.0606 -2.3974
11762TIP3    H256702   6.623   3.396   2.807  0.2046  0.4941 -0.0967
11763TIP3   OH256703   1.719   5.173   6.310  0.0059 -0.2050 -0.1865
11763TIP3    H156704   1.691   5.120   6.235  0.8435  0.1741 -0.7850
11763TIP3    H256705   1.704   5.117   6.386 -0.2965 -0.8279 -0.6949
11764TIP3   OH256706   2.814   5.129   4.274 -0.1913  0.3468  0.4013
11764TIP3    H156707   2.871   5.096   4.204 -2.6036 -3.0545 -0.1882
11764TIP3    H256708   2.767   5.201   4.234  2.0932  1.8937  0.2805
11765TIP3   OH256709   2.208   0.636   1.834  0.0201 -0.3659  0.9264
11765TIP3    H156710   2.253   0.616   1.915  0.5857  0.3533  0.8028
11765TIP3    H256711   2.151   0.710   1.855  0.2959 -0.0644  0.6359
11766TIP3   OH256712   0.615   2.230  16.150 -0.2746  0.6787  0.1965
11766TIP3    H156713   0.595   2.137  16.154 -0.5831  0.7741  1.1722
11766TIP3    H256714   0.624   2.256  16.242  2.0322  1.1275 -0.0893
11767TIP3   OH256715   0.932   1.661  11.110  0.0115  0.0411 -0.2819
11767TIP3    H156716   0.886   1.744  11.123 -0.5007  0.0160 -1.7394
11767TIP3    H256717   0.903   1.631  11.023  1.7487 -0.6498 -0.6592
11768TIP3   OH256718   6.310   5.414   5.944 -0.3575  0.4652 -0.1192
11768TIP3    H156719   6.351   5.498   5.925  0.4048  0.3837  1.0402
11768TIP3    H256720   6.364   5.377   6.014 -0.6209 -1.0301 -0.6641
11769TIP3   OH256721   2.842   5.895   5.432 -0.0352 -0.0610 -0.1851
11769TIP3    H156722   2.927   5.852   5.424  0.2658  0.7309 -1.9452
11769TIP3    H256723   2.850   5.949   5.510  1.0900 -0.0264 -0.2989
11770TIP3   OH256724   6.665   0.692   3.562 -0.0924  0.3418  0.2792
11770TIP3    H156725   6.584   0.711   3.610  0.1179  0.1352  0.7236
11770TIP3    H256726   6.725   0.762   3.588 -0.6813  1.5285 -1.4332
11771TIP3   OH256727   3.731   5.055  15.106  0.0719 -0.7357 -0.4234
11771TIP3    H156728   3.727   5.150  15.100 -0.8883 -0.6210  1.5437
11771TIP3    H256729   3.825   5.035  15.102  0.3020  0.2965 -0.5039
11772TIP3   OH256730   2.959   6.611  15.087 -0.2581 -0.4517  0.2260
11772TIP3    H156731   2.888   6.578  15.032  0.9070  0.8195 -2.2203
11772TIP3    H256732   2.952   6.706  15.080  0.7041 -0.2825  1.2757
11773TIP3   OH256733   3.500   0.758  15.074  0.2363 -0.2010  0.1943
11773TIP3    H156734   3.539   0.704  15.143  1.7048  1.0374  0.4185
11773TIP3    H256735   3.410   0.729  15.067  1.1659 -3.2742 -0.3480
11774TIP3   OH256736   1.071   2.070  10.942  0.3670 -0.4209  0.1759
11774TIP3    H156737   1.029   1.988  10.914  0.1020 -0.3527  0.3733
11774TIP3    H256738   0.998   2.131  10.955  0.5388 -0.2619  0.3910
11775TIP3   OH256739   3.875   3.161  14.026 -0.2836  0.0666 -0.1549
11775TIP3    H156740   3.874   3.255  14.014 -1.1294  0.2681  1.1925
11775TIP3    H256741   3.889   3.125  13.939 -0.8868  1.4227 -0.8397
11776TIP3   OH256742   1.699   0.989  12.518 -0.0125 -0.0231 -1.1066
11776TIP3    H156743   1.632   1.057  12.518  0.7461  0.7478 -0.0727
11776TIP3    H256744   1.765   1.020  12.456 -0.0711 -0.2344 -1.2752
11777TIP3   OH256745   1.263   0.401  11.290  0.0712 -0.1117 -0.3800
11777TIP3    H156746   1.296   0.394  11.380 -2.0921  1.5693  0.6459
11777TIP3    H256747   1.234   0.313  11.268  0.3422 -0.4929  0.7039
11778TIP3   OH256748   4.138   6.582   4.104  0.3212  0.1449  0.9957
11778TIP3    H156749   4.067   6.530   4.067  2.5238 -2.5292  0.2132
11778TIP3    H256750   4.173   6.631   4.030  0.3753  0.1630  1.0330
11779TIP3   OH256751   4.471   4.220   0.030  0.0253  0.5665 -0.2955
11779TIP3    H156752   4.419   4.299   0.017  3.0118  2.4347 -2.0956
11779TIP3    H256753   4.524   4.214  -0.049  2.0065 -1.5931  1.0875
11780TIP3   OH256754   1.475   1.701  13.272  0.0853 -0.0313  0.2960
11780TIP3    H156755   1.445   1.782  13.231 -0.5444 -0.0295  0.7361
11780TIP3    H256756   1.403   1.640  13.257  1.1126 -0.9290 -1.2225
11781TIP3   OH256757   6.034   5.284  14.071 -0.4740  0.2707 -0.2255
11781TIP3    H156758   6.067   5.315  14.155 -0.9184  2.1026 -0.6822
11781TIP3    H256759   6.105   5.232  14.034  0.0061  0.0793  0.9396
11782TIP3   OH256760   5.994   6.469   4.885 -0.3453  0.2341  0.3384
11782TIP3    H156761   6.011   6.562   4.900  1.4273  0.0024  0.0770
11782TIP3    H256762   6.081   6.432   4.868 -1.1203 -1.3087 -0.4479
11783TIP3   OH256763   0.400   3.073  16.385 -0.3465 -0.1571 -0.4099
11783TIP3    H156764   0.383   3.032  16.300  1.0476 -0.3897 -0.6042
11783TIP3    H256765   0.384   3.166  16.370 -0.2780 -0.2204 -0.8841
11784TIP3   OH256766   4.690   0.581  13.533  0.2729  0.2793 -0.1690
11784TIP3    H156767   4.786   0.578  13.536  0.2659 -1.5173 -1.0593
11784TIP3    H256768   4.664   0.592  13.625  1.2978 -0.1643  0.1869
11785TIP3   OH256769   2.566   5.660  12.957  0.2178  0.2276 -0.4484
11785TIP3    H156770   2.626   5.698  12.894 -0.9532  0.7086 -1.3138
11785TIP3    H256771   2.589   5.701  13.040  1.5452 -0.1491 -0.6116
11786TIP3   OH256772   3.058   3.605   1.841 -0.1030 -0.5179 -0.2103
11786TIP3    H156773   3.130   3.548   1.814  0.0016 -1.8418  2.5184
11786TIP3    H256774   2.993   3.545   1.878 -0.3374  1.0205  2.0460
11787TIP3   OH256775   0.366   2.835  11.509  0.5631  0.7693 -0.4720
11787TIP3    H156776   0.311   2.879  11.574  1.5299  0.7782  0.3641
11787TIP3    H256777   0.349   2.882  11.427 -0.5199  0.8883 -0.1840
11788TIP3   OH256778   2.885   0.371  10.640  0.0446 -0.1847  0.0917
11788TIP3    H156779   2.907   0.461  10.614  0.0413 -0.3314 -0.4454
11788TIP3    H256780   2.799   0.379  10.682  0.6767  0.2581  1.3404
11789TIP3   OH256781   4.682   4.650  16.106  0.4566  0.0096  0.4600
11789TIP3    H156782   4.629   4.713  16.156 -1.0401 -1.4225  0.7541
11789TIP3    H256783   4.623   4.619  16.037  1.4621 -0.4269 -0.2209
11790TIP3   OH256784   4.720   1.847  16.646  0.1214  0.3233  0.3258
11790TIP3    H156785   4.653   1.792  16.686 -0.6547  0.4497 -0.7368
11790TIP3    H256786   4.792   1.787  16.626  0.9381  0.4154  2.6879
11791TIP3   OH256787   5.184   1.541   6.015  0.0329 -0.3036  0.3688
11791TIP3    H156788   5.264   1.500   5.985 -0.0111 -1.1847  1.4172
11791TIP3    H256789   5.186   1.533   6.110 -1.7852 -1.2882  0.3703
11792TIP3   OH256790   3.684   4.482  14.441 -0.2754  0.1606  0.4309
11792TIP3    H156791   3.632   4.465  14.520  0.8304  1.2591  1.4441
11792TIP3    H256792   3.688   4.578  14.436  1.7942  0.1268  0.5322
11793TIP3   OH256793   2.342   6.781   4.554 -0.4191 -0.8243 -0.2980
11793TIP3    H156794   2.291   6.705   4.582 -0.3342 -0.2830  1.4214
11793TIP3    H256795   2.433   6.752   4.559 -0.3759 -0.5707  0.5552
11794TIP3   OH256796   0.688   3.023  15.906  0.7790  0.4854  0.1221
11794TIP3    H156797   0.631   3.087  15.948  2.2230  1.3849  0.7843
11794TIP3    H256798   0.630   2.973  15.849 -0.6957  1.2066  0.9452
11795TIP3   OH256799   3.102   2.739  16.133  0.0561 -0.3424  0.0804
11795TIP3    H156800   3.043   2.764  16.061 -1.0069  0.5824  1.2362
11795TIP3    H256801   3.061   2.661  16.171 -1.7310  1.5495  2.2820
11796TIP3   OH256802   4.277   4.884   1.033  0.1976 -0.5193  0.3221
11796TIP3    H156803   4.338   4.864   0.963  1.2779  1.0852  0.7526
11796TIP3    H256804   4.315   4.843   1.111 -0.7748 -1.9269  0.0884
11797TIP3   OH256805   2.902   1.821   5.779 -0.0796 -0.0530 -0.3605
11797TIP3    H156806   2.847   1.890   5.816  0.8817  1.1592 -1.1040
11797TIP3    H256807   2.958   1.793   5.851 -0.4529 -0.0212 -0.0607
11798TIP3   OH256808   0.416   2.297  13.420  0.6497  0.6939  0.6556
11798TIP3    H156809   0.369   2.360  13.366  0.5165 -1.3136 -1.7420
11798TIP3    H256810   0.434   2.223  13.362  1.1156 -1.3619  3.1884
11799TIP3   OH256811   3.858   3.331   2.115 -0.1251 -0.0113  0.1362
11799TIP3    H156812   3.910   3.271   2.062 -1.1221 -0.3004 -0.5321
11799TIP3    H256813   3.792   3.275   2.156  1.7833 -0.1775  3.3346
11800TIP3   OH256814   2.653   6.083   6.290 -0.2556 -0.1058 -0.1517
11800TIP3    H156815   2.663   5.999   6.246  0.7711  0.1541 -0.4366
11800TIP3    H256816   2.568   6.077   6.334 -0.2545 -1.2339 -0.2787
11801TIP3   OH256817   6.387   2.321   0.249 -0.6163  0.3576  0.5754
11801TIP3    H156818   6.464   2.285   0.293  0.0865  1.2745  0.1413
11801TIP3    H256819   6.405   2.415   0.243 -1.8865  0.6222  0.6757
11802TIP3   OH256820   2.839   2.855  16.409  0.5909 -0.1183 -0.0063
11802TIP3    H156821   2.885   2.771  16.399  1.0220  0.2950 -2.0552
11802TIP3    H256822   2.766   2.849  16.347  0.8329  1.1298 -0.4376
11803TIP3   OH256823   3.399   1.317  11.498 -0.0138  0.5261  0.5172
11803TIP3    H156824   3.473   1.377  11.495  0.4713 -0.0689 -1.4629
11803TIP3    H256825   3.425   1.244  11.442 -2.9022  1.3093 -2.1577
11804TIP3   OH256826   3.878   5.633  14.627  0.3438 -0.5797  0.2445
11804TIP3    H156827   3.825   5.647  14.548  1.2128 -0.2715 -0.3019
11804TIP3    H256828   3.815   5.633  14.699 -0.7562 -2.9407 -0.6212
11805TIP3   OH256829   5.832   6.761   0.358  0.3727 -0.0920 -0.0979
11805TIP3    H156830   5.758   6.758   0.297 -0.1435  1.3232  0.4080
11805TIP3    H256831   5.828   6.678   0.404 -1.6294  0.3710  0.7079
11806TIP3   OH256832   4.301   4.530   3.193  0.0908 -0.0056  0.0635
11806TIP3    H156833   4.230   4.577   3.238 -1.0233 -2.1696  0.7176
11806TIP3    H256834   4.305   4.570   3.107 -0.7930  1.2951  0.5966
11807TIP3   OH256835   1.450   6.618   5.584 -0.5636  0.1484 -0.0864
11807TIP3    H156836   1.372   6.571   5.553  0.3593 -0.9464 -0.8184
11807TIP3    H256837   1.471   6.576   5.667  0.5313 -1.0918 -0.9616
11808TIP3   OH256838   5.987   3.112  15.606 -0.6269 -0.1962 -0.1273
11808TIP3    H156839   5.902   3.135  15.569 -0.2649  0.2770 -0.6815
11808TIP3    H256840   5.974   3.025  15.645 -0.6267 -1.4404 -2.7314
11809TIP3   OH256841   1.787   3.161  11.586 -0.2973 -0.6498  0.3415
11809TIP3    H156842   1.721   3.190  11.649 -0.4309  1.0017 -0.5205
11809TIP3    H256843   1.776   3.066  11.583 -0.8304 -0.6941  2.1756
11810TIP3   OH256844   0.549   0.608  13.768  0.0203 -0.4655 -0.3330
11810TIP3    H156845   0.559   0.639  13.858  0.3642  1.2358 -0.9117
11810TIP3    H256846   0.458   0.580  13.762  0.1887 -1.3191  0.7335
11811TIP3   OH256847   6.158   1.875   0.264  0.3994 -0.1356  0.2505
11811TIP3    H156848   6.234   1.924   0.231 -1.0218  0.8475 -1.8323
11811TIP3    H256849   6.164   1.790   0.220 -0.7145  0.6642 -1.5812
11812TIP3   OH256850   3.603   2.553  12.448  0.5222  0.2105 -0.0709
11812TIP3    H156851   3.595   2.467  12.408 -0.8273 -0.3952  1.3858
11812TIP3    H256852   3.526   2.601  12.419  1.7970  1.3723 -1.7464
11813TIP3   OH256853   2.226   5.459   3.494 -0.5121  0.7308 -0.2529
11813TIP3    H156854   2.209   5.489   3.405 -0.6796 -0.2923 -0.5893
11813TIP3    H256855   2.301   5.511   3.524 -0.2319  0.8382 -1.1262
11814TIP3   OH256856   0.062   5.929  11.383 -0.7143  0.3339 -0.3005
11814TIP3    H156857   0.036   6.020  11.369  0.9097  0.7686 -0.7770
11814TIP3    H256858   0.151   5.936  11.418 -0.5307 -1.0763 -0.4622
11815TIP3   OH256859   3.946   6.773  16.788  0.1598  0.4379  0.1518
11815TIP3    H156860   4.037   6.799  16.780  0.0653  0.1170 -3.5188
11815TIP3    H256861   3.949   6.677  16.796  0.1617  0.2988 -1.2978
11816TIP3   OH256862   6.510   1.038   2.708 -0.1350  0.2505 -0.1513
11816TIP3    H156863   6.555   1.069   2.787 -0.8231  0.6659  0.0874
11816TIP3    H256864   6.424   1.009   2.740  0.0996 -0.9283 -0.5351
11817TIP3   OH256865   5.179   1.795  10.824 -0.1296 -0.5479  0.5071
11817TIP3    H156866   5.233   1.727  10.786  2.0836  1.7963 -0.8331
11817TIP3    H256867   5.240   1.865  10.846 -2.5255  2.1651 -0.8329
11818TIP3   OH256868   1.854   0.293  12.933  0.1159 -0.2301 -0.0661
11818TIP3    H156869   1.835   0.330  12.847 -0.5817 -0.5160 -0.0343
11818TIP3    H256870   1.849   0.368  12.993 -1.1157 -0.3375 -0.0262
11819TIP3   OH256871   1.775   4.913   3.908  0.0059 -0.2035  0.0578
11819TIP3    H156872   1.733   4.896   3.824 -0.4458 -0.4731  0.3337
11819TIP3    H256873   1.856   4.861   3.905  0.0898 -0.0585 -0.2837
11820TIP3   OH256874   1.799   3.008  13.029 -0.0100  0.1665 -0.4500
11820TIP3    H156875   1.784   3.099  13.001 -0.2272  0.7623  1.4685
11820TIP3    H256876   1.718   2.963  13.005 -0.8768  1.0461  0.6633
11821TIP3   OH256877   5.313   0.553  14.666 -0.1689 -0.4365  0.7052
11821TIP3    H156878   5.289   0.505  14.746 -2.3800  1.2932  1.1974
11821TIP3    H256879   5.283   0.643  14.683  0.6779  0.3176 -1.5098
11822TIP3   OH256880   1.189   4.998   0.272 -0.5435 -0.2742  0.3419
11822TIP3    H156881   1.133   5.020   0.199 -0.5042 -2.8994 -0.5855
11822TIP3    H256882   1.145   4.924   0.315  0.8546 -0.6303  1.2328
11823TIP3   OH256883   1.517   5.480   4.473  0.0405 -0.1637 -0.8541
11823TIP3    H156884   1.600   5.514   4.438 -0.3059  1.0201 -0.5549
11823TIP3    H256885   1.463   5.466   4.395  0.3621 -0.5130 -1.0168
11824TIP3   OH256886   4.026   4.522   0.394  0.1032 -0.6732 -0.3171
11824TIP3    H156887   3.964   4.449   0.392 -0.4478 -0.2297  0.3057
11824TIP3    H256888   4.109   4.481   0.419 -0.1821 -1.1064 -0.0621
11825TIP3   OH256889   6.009   3.172   3.476  0.2377 -0.1724  0.5830
11825TIP3    H156890   6.095   3.159   3.516 -0.3287  0.9471  2.2718
11825TIP3    H256891   5.947   3.158   3.548 -1.1332 -2.3471 -0.8972
11826TIP3   OH256892   5.950   5.277   4.962  0.2926 -0.2913  0.1742
11826TIP3    H156893   6.043   5.287   4.984  0.7092 -5.7012  2.6454
11826TIP3    H256894   5.904   5.334   5.024  1.9799 -0.3647  1.5866
11827TIP3   OH256895   1.273   3.282  11.617  0.6853  0.5033 -0.3405
11827TIP3    H156896   1.212   3.344  11.577  0.0849 -0.3446 -0.7582
11827TIP3    H256897   1.223   3.240  11.687  0.6860 -0.3982 -0.8694
11828TIP3   OH256898   3.165   0.672   4.692  0.3269  0.0254 -0.4864
11828TIP3    H156899   3.244   0.707   4.733  0.4586 -2.2171  1.3948
11828TIP3    H256900   3.103   0.662   4.764 -0.9279 -0.2668 -1.5581
11829TIP3   OH256901   3.928   4.169  15.519 -0.6833  0.3594  0.7804
11829TIP3    H156902   3.997   4.111  15.550  1.0209  1.3397 -1.0025
11829TIP3    H256903   3.903   4.133  15.433  0.8682  2.5164 -0.6698
11830TIP3   OH256904   3.284   1.555  13.814  0.3892  0.0115  0.3919
11830TIP3    H156905   3.365   1.597  13.788 -1.1395  2.2882 -0.9482
11830TIP3    H256906   3.249   1.610  13.884 -0.6251 -0.1900  0.0689
11831TIP3   OH256907   6.025   3.811   2.025 -0.0684  0.2567 -0.2348
11831TIP3    H156908   5.977   3.795   1.944  1.0402 -0.1743 -0.8310
11831TIP3    H256909   6.110   3.844   1.996 -0.6174  2.8417  0.8382
11832TIP3   OH256910   2.207   6.552   4.408 -0.5996 -0.3127  0.0134
11832TIP3    H156911   2.133   6.570   4.349 -0.2188  1.3738  0.0168
11832TIP3    H256912   2.236   6.464   4.382 -1.2427 -0.1273 -1.4545
11833TIP3   OH256913   1.060   3.862   1.370 -0.6443  0.1669  0.7897
11833TIP3    H156914   1.002   3.807   1.422 -0.8871 -0.2450  0.0963
11833TIP3    H256915   1.143   3.814   1.368 -1.0503 -0.5339 -0.3758
11834TIP3   OH256916   3.683   5.335   4.185  0.3660 -0.1606 -0.1513
11834TIP3    H156917   3.704   5.353   4.277 -0.6358 -0.7372  0.2086
11834TIP3    H256918   3.594   5.367   4.175  0.5224  0.0270 -0.9688
11835TIP3   OH256919   5.203   1.875   1.980  0.0146  0.2971  0.5106
11835TIP3    H156920   5.129   1.822   2.008 -1.1706  1.4545 -0.3075
11835TIP3    H256921   5.203   1.950   2.039 -0.1868  0.8596 -0.1779
11836TIP3   OH256922   6.585   0.762  15.624 -0.7286  0.0698  0.1411
11836TIP3    H156923   6.556   0.801  15.542 -0.6331  1.3205  0.6712
11836TIP3    H256924   6.613   0.674  15.601 -2.3698 -0.2250 -0.8569
11837TIP3   OH256925   3.047   2.439  13.507 -0.2956  0.1200  0.8810
11837TIP3    H156926   3.064   2.469  13.596 -0.0964  1.0350  0.5385
11837TIP3    H256927   3.133   2.433  13.466 -0.4251  0.1530  0.6011
11838TIP3   OH256928   5.445   4.016   1.804 -0.2122 -0.0856 -0.3475
11838TIP3    H156929   5.462   4.094   1.857 -1.1676 -0.3874  0.4232
11838TIP3    H256930   5.441   4.049   1.714 -0.7251  0.7807 -0.0179
11839TIP3   OH256931   3.576   3.975  11.573 -0.0593 -0.1333  0.3873
11839TIP3    H156932   3.522   3.898  11.587 -0.4165 -0.1736 -1.0654
11839TIP3    H256933   3.638   3.949  11.505  1.3999  0.1155  1.5667
11840TIP3   OH256934   1.023   6.549  14.388  0.0961 -0.0795 -0.0396
11840TIP3    H156935   1.113   6.518  14.381 -0.3271 -1.3605 -0.1822
11840TIP3    H256936   1.016   6.585  14.476  0.8715  0.4714 -0.1984
11841TIP3   OH256937   2.724   0.068  10.748  0.7901 -0.3083 -0.0437
11841TIP3    H156938   2.711   0.136  10.815 -0.1366 -0.5010 -0.0162
11841TIP3    H256939   2.781   0.004  10.789  0.2340 -0.4201  0.5680
11842TIP3   OH256940   0.911   4.863   0.074 -0.3301 -0.2233  0.0506
11842TIP3    H156941   0.878   4.913   0.149  0.1507  0.6598 -0.3124
11842TIP3    H256942   0.962   4.793   0.113 -0.8699 -0.3376  0.5680
11843TIP3   OH256943   5.921   2.476   2.926  0.0240 -0.0883  0.3046
11843TIP3    H156944   5.888   2.388   2.945  0.3611 -1.3011 -3.7610
11843TIP3    H256945   6.016   2.467   2.932  0.2224 -0.8802 -2.7216
11844TIP3   OH256946   2.675   0.872  13.210 -0.3554  0.0393 -0.0742
11844TIP3    H156947   2.596   0.912  13.172  0.4835  0.5856 -1.2813
11844TIP3    H256948   2.641   0.798  13.260 -1.5010 -1.1084 -2.3903
11845TIP3   OH256949   1.334   3.526  13.374 -0.0647  0.2555 -0.0190
11845TIP3    H156950   1.342   3.473  13.453  2.0181  0.3589 -0.1153
11845TIP3    H256951   1.291   3.467  13.311  2.1380 -1.3765 -0.1100
11846TIP3   OH256952   2.746   5.351  16.809  0.6260  0.2193  0.0097
11846TIP3    H156953   2.755   5.268  16.855 -0.6616  1.1446  2.0794
11846TIP3    H256954   2.691   5.405  16.866  2.1612  2.8360 -0.7556
11847TIP3   OH256955   5.418   4.630   2.406  0.5687 -0.6741 -0.2097
11847TIP3    H156956   5.458   4.588   2.482  0.7755 -0.4276 -0.1833
11847TIP3    H256957   5.415   4.561   2.340  0.0192 -1.0080  0.1462
11848TIP3   OH256958   3.062   3.528   3.201  0.2922  0.3139  0.1372
11848TIP3    H156959   3.131   3.472   3.167 -0.9111 -0.6416 -0.8568
11848TIP3    H256960   3.038   3.585   3.128  0.6492  1.2850  0.7576
11849TIP3   OH256961   1.922   2.384  11.245 -0.1153  0.2486  0.1504
11849TIP3    H156962   1.941   2.410  11.154 -1.5646 -1.2376 -0.6411
11849TIP3    H256963   1.909   2.466  11.291  2.1364  1.1108 -0.5986
11850TIP3   OH256964   5.908   5.653  12.331 -0.1983  0.4616  0.5136
11850TIP3    H156965   5.871   5.681  12.415  1.1068  0.8409  0.9780
11850TIP3    H256966   5.941   5.565  12.347  0.2279  0.6081  0.4553
11851TIP3   OH256967   0.549   6.537  13.106  0.7406  0.1162 -0.2829
11851TIP3    H156968   0.568   6.497  13.021  0.6298  0.0726 -0.2867
11851TIP3    H256969   0.483   6.480  13.146  0.6607  0.2358 -0.2433
11852TIP3   OH256970   5.001   1.308   6.232  0.2172 -0.1107 -0.0249
11852TIP3    H156971   4.938   1.355   6.177 -1.9146  0.5115  2.7399
11852TIP3    H256972   4.987   1.216   6.210 -1.2313  0.0674  0.0875
11853TIP3   OH256973   5.235   5.305  15.693  0.4544 -0.0976  0.5383
11853TIP3    H156974   5.212   5.282  15.783 -0.8079  0.1768  0.3135
11853TIP3    H256975   5.314   5.358  15.701 -1.1180  2.2340  1.7787
11854TIP3   OH256976   6.723   3.017  14.052 -0.3880  0.3658  0.0821
11854TIP3    H156977   6.716   2.934  14.100 -0.5836 -0.2160 -0.9092
11854TIP3    H256978   6.633   3.039  14.028 -0.3731  1.0581  0.6325
11855TIP3   OH256979   5.314   3.915   2.405  0.2056  0.7042  0.1350
11855TIP3    H156980   5.300   3.977   2.333 -0.7040 -0.0239 -0.3385
11855TIP3    H256981   5.340   3.970   2.479  0.4257  1.5404 -0.5398
11856TIP3   OH256982   5.841   0.613  14.519  0.0897  0.1482 -0.4045
11856TIP3    H156983   5.864   0.702  14.491  1.3456 -0.4872 -1.4918
11856TIP3    H256984   5.760   0.594  14.472 -0.5198  0.9202  0.3027
11857TIP3   OH256985   2.332   4.790  14.768  0.2367 -0.7004 -0.2871
11857TIP3    H156986   2.272   4.850  14.724  0.8761 -0.3609 -0.7253
11857TIP3    H256987   2.390   4.759  14.698  0.4080 -1.2091  0.0815
11858TIP3   OH256988   6.728   2.717   5.504  0.2308  0.3452 -0.3800
11858TIP3    H156989   6.759   2.807   5.491  0.8981 -0.1268 -2.4000
11858TIP3    H256990   6.692   2.717   5.593  0.9496  2.3876 -0.0271
11859TIP3   OH256991   3.388   2.269  16.080  0.6081  0.0255  0.5035
11859TIP3    H156992   3.341   2.352  16.084 -1.3694 -0.9041 -1.4121
11859TIP3    H256993   3.443   2.276  16.002  0.3532 -0.4830  0.2726
11860TIP3   OH256994   4.656   5.261  15.375  0.1177  0.4272  0.0688
11860TIP3    H156995   4.605   5.180  15.383 -0.2057  0.1414 -3.4503
11860TIP3    H256996   4.747   5.234  15.389 -0.0367 -0.4595 -0.6016
11861TIP3   OH256997   5.694   5.980   1.444 -0.2159  0.8464  0.1272
11861TIP3    H156998   5.711   6.036   1.520 -1.3283 -0.2166  1.1836
11861TIP3    H256999   5.621   6.022   1.399 -2.5491 -0.8064  2.1335
11862TIP3   OH257000   1.808   4.690  11.499  0.2529  0.3057  0.8024
11862TIP3    H157001   1.725   4.719  11.461  0.4764  0.8071  0.6846
11862TIP3    H257002   1.786   4.662  11.588 -0.2721 -0.8742  0.3143
11863TIP3   OH257003   2.842   2.515   6.326  0.5471 -0.3333  0.6148
11863TIP3    H157004   2.811   2.542   6.413 -1.3388 -0.0467 -0.1028
11863TIP3    H257005   2.907   2.581   6.302  0.4752  0.0590  1.4586
11864TIP3   OH257006   6.011   0.661  15.595  0.0423 -0.3567  0.1213
11864TIP3    H157007   5.979   0.672  15.506 -0.1356  0.0996  0.2378
11864TIP3    H257008   5.998   0.568  15.614 -2.1351 -0.0379  0.4984
11865TIP3   OH257009   2.657   3.274   3.380  0.2023  0.1474  0.0911
11865TIP3    H157010   2.678   3.307   3.467  0.7812  0.2940 -0.0959
11865TIP3    H257011   2.643   3.180   3.393  1.0902  0.0242  0.2183
11866TIP3   OH257012   5.177   1.399  14.456 -0.2080 -0.6617 -0.4991
11866TIP3    H157013   5.240   1.437  14.518  0.8953  0.2935 -2.1406
11866TIP3    H257014   5.147   1.319  14.500  2.2476 -1.2462  0.3227
11867TIP3   OH257015   6.407   0.018  14.873 -0.1387 -0.1147 -0.0758
11867TIP3    H157016   6.327   0.054  14.833 -0.7872  0.5454  1.7324
11867TIP3    H257017   6.380  -0.009  14.961  1.8272  1.0203  0.9438
11868TIP3   OH257018   1.887   1.529  11.206 -0.5464 -0.5324  0.1228
11868TIP3    H157019   1.904   1.520  11.112  0.4975  0.8571  0.1466
11868TIP3    H257020   1.793   1.542  11.212 -0.4362  1.0206 -0.9093
11869TIP3   OH257021   5.666   5.930   3.957 -0.0412 -0.9464 -0.6101
11869TIP3    H157022   5.743   5.962   4.004  0.0381 -1.1407 -0.6071
11869TIP3    H257023   5.698   5.857   3.905 -0.2923 -1.2462 -0.3461
11870TIP3   OH257024   6.804   0.467   1.050 -0.6494  0.5521  0.0743
11870TIP3    H157025   6.808   0.419   0.968 -2.3795  0.6225 -0.0764
11870TIP3    H257026   6.755   0.409   1.109  1.0138  0.2646  1.2558
11871TIP3   OH257027   1.451   2.360   3.023 -0.6287  0.0704  0.4001
11871TIP3    H157028   1.475   2.315   3.104 -0.9925  0.1553  0.5608
11871TIP3    H257029   1.378   2.310   2.988 -2.4661  1.6655  1.6865
11872TIP3   OH257030   2.699   4.850  15.329 -0.2436  0.0723  0.1810
11872TIP3    H157031   2.673   4.759  15.347 -0.4158  0.1310  0.2281
11872TIP3    H257032   2.619   4.901  15.343  0.0536  0.3355  0.9861
11873TIP3   OH257033   3.702   3.580   2.047  0.3157  0.4778 -0.4588
11873TIP3    H157034   3.780   3.530   2.072  0.3162  1.2396  1.2042
11873TIP3    H257035   3.628   3.526   2.076  0.3250  1.8854  2.5018
11874TIP3   OH257036   0.659   6.014   4.428  0.5298  0.0123 -0.4905
11874TIP3    H157037   0.676   6.105   4.403  0.1362  0.2266  0.0052
11874TIP3    H257038   0.702   6.004   4.513  1.2386 -0.4986 -0.8923
11875TIP3   OH257039   2.896   0.886  13.064  0.3298 -0.4599  0.2814
11875TIP3    H157040   2.889   0.816  12.999 -0.4070 -0.4788  0.3761
11875TIP3    H257041   2.811   0.887  13.108  0.5120  0.1557  0.6324
11876TIP3   OH257042   5.098   5.481  12.900  0.4081  0.2960 -0.2807
11876TIP3    H157043   5.099   5.453  12.809 -0.1939  2.3828 -0.9867
11876TIP3    H257044   5.154   5.558  12.902  0.7467  0.0527  1.2213
11877TIP3   OH257045   3.124   2.259  13.781 -0.2182 -0.7572 -0.6062
11877TIP3    H157046   3.070   2.265  13.860 -1.0402 -1.7160 -1.0702
11877TIP3    H257047   3.139   2.165  13.769  1.0972 -0.5358 -0.8069
11878TIP3   OH257048   2.536   2.316   4.981 -0.3283  0.0375  0.2598
11878TIP3    H157049   2.597   2.297   5.052 -2.0669 -2.0444  1.3370
11878TIP3    H257050   2.450   2.321   5.024 -1.5480 -1.9525 -1.7251
11879TIP3   OH257051   6.626   4.855  12.923  0.7025 -0.6088 -0.7110
11879TIP3    H157052   6.663   4.831  12.838  0.9486  0.4465 -0.9152
11879TIP3    H257053   6.552   4.912  12.902  0.6413 -0.5011 -0.2272
11880TIP3   OH257054   2.267   4.569   5.748 -0.1388 -0.2536 -0.1546
11880TIP3    H157055   2.185   4.525   5.725  0.0152  0.1322 -1.5572
11880TIP3    H257056   2.323   4.499   5.780 -0.9366 -0.5559  0.6307
11881TIP3   OH257057   5.712   4.144   5.230  0.1084  0.0821 -0.5387
11881TIP3    H157058   5.639   4.158   5.171 -1.0991  0.2907  0.9441
11881TIP3    H257059   5.753   4.231   5.239  1.1310 -0.2073 -2.0580
11882TIP3   OH257060   6.294   6.365   0.689 -0.3808 -0.6096  0.0957
11882TIP3    H157061   6.389   6.364   0.700 -0.2092 -2.4810 -1.0406
11882TIP3    H257062   6.261   6.318   0.765 -0.5682  1.3185  1.2740
11883TIP3   OH257063   3.283   6.612   4.932  0.0050  0.2348  0.0930
11883TIP3    H157064   3.257   6.656   5.013  0.6472  0.2300  0.3067
11883TIP3    H257065   3.221   6.540   4.923  0.2061 -0.0358  0.8219
11884TIP3   OH257066   1.776   2.306   2.249 -0.8037  0.0067  0.2358
11884TIP3    H157067   1.818   2.238   2.195 -0.7792  0.6516 -0.5752
11884TIP3    H257068   1.744   2.370   2.185 -0.0602  1.2041  1.0295
11885TIP3   OH257069   3.240   3.161   0.401  0.6036  0.8934 -0.7141
11885TIP3    H157070   3.216   3.216   0.476 -0.1922 -0.4024  0.0067
11885TIP3    H257071   3.156   3.135   0.363  0.8414 -1.6887  0.3580
11886TIP3   OH257072   5.341   3.805   3.114 -0.0524  0.2047  0.5998
11886TIP3    H157073   5.273   3.867   3.089  0.6047  0.3714 -0.9069
11886TIP3    H257074   5.399   3.801   3.037 -0.6233 -3.0511  0.2051
11887TIP3   OH257075   6.761   4.970  12.262 -0.3749 -0.6873  0.3675
11887TIP3    H157076   6.769   5.032  12.334  0.6561  0.3025 -0.5565
11887TIP3    H257077   6.686   5.000  12.212 -0.6081 -0.9038  0.5866
11888TIP3   OH257078   0.961   4.371  10.919 -0.5421  0.7757 -0.5240
11888TIP3    H157079   0.995   4.458  10.900 -1.5021  1.2557 -0.1316
11888TIP3    H257080   0.885   4.361  10.860  0.2159 -0.2572 -1.3698
11889TIP3   OH257081   2.246   5.915  12.941  0.0692 -0.2184 -0.1987
11889TIP3    H157082   2.150   5.911  12.942  0.0611 -1.2390 -1.5969
11889TIP3    H257083   2.273   5.870  13.021 -0.6184 -1.3496 -0.5856
11890TIP3   OH257084   4.774   2.650  15.332  0.6988 -0.1762 -0.0063
11890TIP3    H157085   4.683   2.620  15.340  0.8329 -0.4229  0.5982
11890TIP3    H257086   4.796   2.634  15.240  0.0927 -0.0086 -0.1816
11891TIP3   OH257087   2.603   6.628   1.931  0.1497 -0.1763  0.4762
11891TIP3    H157088   2.659   6.705   1.943  0.0886  0.0391 -0.5453
11891TIP3    H257089   2.655   6.555   1.965 -0.5601  0.5159  3.3910
11892TIP3   OH257090   2.353   6.667   4.127 -0.2118  0.2824  0.1760
11892TIP3    H157091   2.309   6.735   4.074  0.2805  1.3632  1.1097
11892TIP3    H257092   2.308   6.671   4.212 -0.3934 -0.8142  0.1495
11893TIP3   OH257093   5.675   1.317   4.104  0.6353 -0.1723  0.5009
11893TIP3    H157094   5.590   1.276   4.087  0.2555 -0.1365  2.1746
11893TIP3    H257095   5.688   1.375   4.028 -1.7009  1.1781  1.0037
11894TIP3   OH257096   6.199   6.149  15.612  0.4741 -0.3977  0.5320
11894TIP3    H157097   6.151   6.070  15.590  0.4307 -0.4973  0.9811
11894TIP3    H257098   6.285   6.137  15.572 -0.2389  0.3049 -1.3042
11895TIP3   OH257099   5.619   4.813  13.313  0.0750 -0.4259  0.5810
11895TIP3    H157100   5.634   4.859  13.231 -0.5279 -2.6119 -0.8153
11895TIP3    H257101   5.680   4.740  13.312 -0.4946 -0.9446  1.7178
11896TIP3   OH257102   0.746   1.857  12.433 -0.4589  0.6749  0.4740
11896TIP3    H157103   0.728   1.951  12.431 -2.2997  0.3707  0.7560
11896TIP3    H257104   0.723   1.826  12.346 -0.1525  0.4235  0.4790
11897TIP3   OH257105   3.576   3.331  15.080 -1.0483 -0.2607  0.3698
11897TIP3    H157106   3.515   3.361  15.147 -1.6064 -1.1072  0.2675
11897TIP3    H257107   3.580   3.402  15.016 -0.4032  0.6050  1.3623
11898TIP3   OH257108   0.163   3.713   2.951 -0.4047 -0.6359  0.2542
11898TIP3    H157109   0.171   3.733   3.044 -0.4060 -1.5230  0.4520
11898TIP3    H257110   0.098   3.775   2.919 -0.3369 -0.2611  0.8202
11899TIP3   OH257111   2.859   4.590   4.427 -0.5123  0.1658  0.0586
11899TIP3    H157112   2.937   4.645   4.438 -0.8636  0.6939 -0.0081
11899TIP3    H257113   2.892   4.506   4.396  0.1940 -0.2550  1.8567
11900TIP3   OH257114   0.912   1.218   1.575 -0.7197 -0.2816  0.0600
11900TIP3    H157115   0.892   1.161   1.649 -0.2506 -0.0451  0.3705
11900TIP3    H257116   0.942   1.299   1.614 -0.1603 -0.2643 -0.3884
11901TIP3   OH257117   3.866   0.056  12.571  1.0082 -0.6407  0.8714
11901TIP3    H157118   3.819  -0.025  12.591  1.9269 -0.8717  2.2066
11901TIP3    H257119   3.799   0.125  12.580  0.3003 -1.1995  0.0343
11902TIP3   OH257120   6.516   4.191  13.178 -0.4022  0.5810  0.7763
11902TIP3    H157121   6.458   4.268  13.186 -0.9024  0.2732  0.2107
11902TIP3    H257122   6.551   4.197  13.089 -0.5312  0.0961  0.6903
11903TIP3   OH257123   2.956   4.316   0.056 -1.4311  0.2010 -0.0022
11903TIP3    H157124   2.965   4.309  -0.039 -1.8294  0.8224 -0.0907
11903TIP3    H257125   2.863   4.299   0.072 -0.9965 -2.0030  0.4945
11904TIP3   OH257126   0.268   6.271   6.544  0.8600  0.1540 -0.1460
11904TIP3    H157127   0.243   6.224   6.465 -0.9576 -0.3359  0.6625
11904TIP3    H257128   0.264   6.206   6.614  0.7512  0.9336  0.6035
11905TIP3   OH257129   6.726   6.179  13.191 -0.0661  0.3589  0.4508
11905TIP3    H157130   6.805   6.210  13.145 -0.9867 -0.6784 -2.0411
11905TIP3    H257131   6.730   6.222  13.276  4.5640 -1.6532  1.5687
11906TIP3   OH257132   2.691   1.459  11.433 -0.5286  0.0571  0.3553
11906TIP3    H157133   2.667   1.395  11.367  1.9618  1.5149 -2.1819
11906TIP3    H257134   2.780   1.434  11.460 -0.1033  1.5347  0.4219
11907TIP3   OH257135   4.397   4.722   5.645 -0.6662 -0.5469 -0.9581
11907TIP3    H157136   4.446   4.795   5.683  0.1480 -1.2368 -0.6560
11907TIP3    H257137   4.327   4.704   5.708 -1.0339  0.1407 -1.1653
11908TIP3   OH257138   5.466   0.405   0.640 -0.3969  0.5813 -0.3049
11908TIP3    H157139   5.392   0.392   0.699  0.0334  1.5021  0.4639
11908TIP3    H257140   5.454   0.493   0.605 -1.7405 -0.6384 -3.2258
11909TIP3   OH257141   3.327   6.354   4.338  0.1688 -0.1036  0.5098
11909TIP3    H157142   3.354   6.443   4.316 -1.2358  0.4208  0.7853
11909TIP3    H257143   3.276   6.325   4.262  1.6803 -1.1960 -0.1459
11910TIP3   OH257144   2.823   4.291  15.395 -0.2380  0.0238  0.0452
11910TIP3    H157145   2.787   4.203  15.402 -1.5542  0.6513  2.2418
11910TIP3    H257146   2.791   4.324  15.311 -2.9790 -0.2760  0.8899
11911TIP3   OH257147   5.066   6.120  15.621  0.5620 -0.2826  0.0556
11911TIP3    H157148   5.070   6.069  15.702  1.9987 -0.7416 -0.2780
11911TIP3    H257149   5.139   6.182  15.628  1.8653 -1.5158 -1.6175
11912TIP3   OH257150   4.433   6.364   0.587  0.3411 -0.5545 -0.3574
11912TIP3    H157151   4.421   6.269   0.579 -1.0880 -0.3981 -0.3589
11912TIP3    H257152   4.359   6.393   0.641 -0.1813  0.7700 -1.7015
11913TIP3   OH257153   4.748   6.006   3.659  0.3592 -0.4882 -0.0153
11913TIP3    H157154   4.767   6.035   3.570  0.9915  2.1813  0.9145
11913TIP3    H257155   4.833   5.992   3.699  0.0856 -1.1109  0.3764
11914TIP3   OH257156   2.544   6.799   0.079  0.3928  0.2929  0.0207
11914TIP3    H157157   2.589   6.744   0.015 -0.5481 -1.0544  0.4828
11914TIP3    H257158   2.545   6.887   0.039  3.4114  0.3685  0.0362
11915TIP3   OH257159   5.015   2.165   3.607  0.2332  0.0932 -0.4070
11915TIP3    H157160   4.955   2.199   3.673  0.0371  0.7120 -0.8974
11915TIP3    H257161   5.102   2.194   3.636  0.1311  0.4886 -0.4961
11916TIP3   OH257162   2.339   4.343   0.313  0.0634  0.0880 -0.4986
11916TIP3    H157163   2.393   4.267   0.334  1.1399  0.5131 -1.6363
11916TIP3    H257164   2.272   4.309   0.253  0.8133  0.1041 -1.3656
11917TIP3   OH257165   5.143   2.478   2.748 -0.6990  0.3234  0.6271
11917TIP3    H157166   5.204   2.404   2.754 -0.2411  0.7276  1.1819
11917TIP3    H257167   5.064   2.447   2.791 -0.9080 -0.2231 -0.1323
11918TIP3   OH257168   4.337   6.660   6.131 -0.4609 -0.4439  0.6587
11918TIP3    H157169   4.292   6.722   6.074 -0.5063 -1.2288 -0.1898
11918TIP3    H257170   4.428   6.662   6.103 -0.8535 -2.4622 -1.0409
11919TIP3   OH257171   5.539   1.381  13.618  0.3798 -0.1639  0.0181
11919TIP3    H157172   5.494   1.461  13.594  0.8190  0.0068 -0.2505
11919TIP3    H257173   5.604   1.407  13.683  0.1278 -0.3990  0.3680
11920TIP3   OH257174   6.690   0.155   2.422 -0.1513 -0.3794  0.5214
11920TIP3    H157175   6.698   0.236   2.472  0.0811  0.7598 -1.2724
11920TIP3    H257176   6.781   0.131   2.402 -0.2467  0.7746 -1.6899
11921TIP3   OH257177   6.285   4.784   2.001 -0.3881 -0.0229  0.1794
11921TIP3    H157178   6.266   4.872   1.967  0.0562 -0.2292 -0.6361
11921TIP3    H257179   6.224   4.727   1.953 -0.7236 -0.1524  0.7575
11922TIP3   OH257180   3.182   5.947  15.434  0.0265  0.0453  0.6823
11922TIP3    H157181   3.093   5.948  15.400  0.0492  1.1125  0.6151
11922TIP3    H257182   3.225   5.875  15.388 -0.5489  0.0944  0.0500
11923TIP3   OH257183   0.326   3.597   3.341  0.2510 -0.0678  0.1352
11923TIP3    H157184   0.312   3.548   3.260  1.7551 -1.0300  0.4241
11923TIP3    H257185   0.414   3.634   3.332  0.9670 -1.2412  1.8370
11924TIP3   OH257186   3.346   1.343  14.366 -0.4027  0.4743 -0.0406
11924TIP3    H157187   3.292   1.313  14.293  0.7855  0.4893 -0.9622
11924TIP3    H257188   3.402   1.268  14.385 -0.1651  0.7437  0.3230
11925TIP3   OH257189   0.188   1.517  16.040 -0.0931 -0.1943 -0.2817
11925TIP3    H157190   0.170   1.551  15.952  0.5884 -0.0999 -0.3851
11925TIP3    H257191   0.148   1.430  16.040 -1.5022  0.4255 -0.1419
11926TIP3   OH257192   0.898   5.273   2.042  0.5160 -0.0234  0.1328
11926TIP3    H157193   0.930   5.359   2.069 -0.3100 -0.3685  2.4347
11926TIP3    H257194   0.971   5.235   1.993  2.0980  0.8144  1.6983
11927TIP3   OH257195   1.942   5.704  11.045  0.0809  0.2699  0.0253
11927TIP3    H157196   1.915   5.612  11.037 -1.3544  0.5033  1.5805
11927TIP3    H257197   1.866   5.754  11.016 -0.0220  0.9617  1.4240
11928TIP3   OH257198   1.978   4.517   3.680  0.1946  0.0957 -0.2158
11928TIP3    H157199   1.883   4.519   3.674  0.2730  0.5507 -1.8109
11928TIP3    H257200   2.003   4.607   3.701  0.2523 -0.1876  0.9877
11929TIP3   OH257201   0.980   5.869   3.379  0.3736  0.7176  0.5789
11929TIP3    H157202   1.053   5.902   3.327  1.3773 -1.4019  0.5765
11929TIP3    H257203   0.966   5.780   3.349 -0.8385  0.3700  2.0400
11930TIP3   OH257204   5.199   0.033  11.546 -1.1724  0.3291  0.1777
11930TIP3    H157205   5.180   0.115  11.592  3.1599  0.7666  1.6431
11930TIP3    H257206   5.219   0.059  11.457 -0.6946  0.7733  0.4103
11931TIP3   OH257207   0.067   5.746  15.007 -0.6376  0.0241 -0.3177
11931TIP3    H157208   0.123   5.784  14.940 -0.7901  0.6712 -0.0890
11931TIP3    H257209   0.121   5.677  15.047  0.0708  0.7676  0.0349
11932TIP3   OH257210   6.289   4.865   5.148  0.6362 -0.1300 -0.0928
11932TIP3    H157211   6.220   4.921   5.113 -0.0404 -0.0235  1.3066
11932TIP3    H257212   6.243   4.808   5.210  1.3446 -2.0666 -1.2554
11933TIP3   OH257213   1.839   1.585  12.556 -0.4955 -0.5704 -0.3119
11933TIP3    H157214   1.901   1.548  12.492 -1.4441  1.4774 -2.6006
11933TIP3    H257215   1.893   1.610  12.630  0.5964 -3.5364  0.0148
11934TIP3   OH257216   1.641   2.975  16.264 -0.2792  0.2944 -0.0132
11934TIP3    H157217   1.708   2.907  16.267 -1.2247 -0.6526  0.4597
11934TIP3    H257218   1.667   3.038  16.330  0.4085  0.1914 -0.1828
11935TIP3   OH257219   1.582   6.383  13.180  0.5730  0.5445  0.4084
11935TIP3    H157220   1.636   6.458  13.155 -2.6882  2.3553 -1.8354
11935TIP3    H257221   1.503   6.421  13.219 -1.3836 -1.6387 -1.1309
11936TIP3   OH257222   4.606   6.705  14.646  0.3856  0.8914  0.2786
11936TIP3    H157223   4.659   6.739  14.718  0.8753 -0.4683  0.5989
11936TIP3    H257224   4.588   6.614  14.671 -1.0705  0.9620 -0.4132
11937TIP3   OH257225   3.474   4.645  13.960  0.1634 -0.0391  0.1567
11937TIP3    H157226   3.493   4.732  13.922  1.0717 -0.6385 -0.8275
11937TIP3    H257227   3.478   4.659  14.054 -0.8617  1.2378  0.0388
11938TIP3   OH257228   0.545   2.536  16.370  0.6324  0.5801 -0.1616
11938TIP3    H157229   0.510   2.447  16.362 -0.8287  1.1382 -0.2689
11938TIP3    H257230   0.482   2.582  16.426 -0.8638  2.5863 -3.1941
11939TIP3   OH257231   1.679   5.824  10.722  0.5300 -0.7442  0.1832
11939TIP3    H157232   1.759   5.780  10.693  2.1196  2.2127 -0.3222
11939TIP3    H257233   1.638   5.856  10.641 -0.0319 -0.4165  0.5816
11940TIP3   OH257234   3.232   1.224  12.562 -0.5738 -0.2204 -0.0396
11940TIP3    H157235   3.258   1.156  12.499 -0.6953 -0.4099  0.1129
11940TIP3    H257236   3.270   1.195  12.645 -1.0663 -0.3743  0.1348
11941TIP3   OH257237   5.284   3.401   3.597 -0.3657 -0.7488 -0.2907
11941TIP3    H157238   5.278   3.450   3.679  0.1217 -2.0234  0.5430
11941TIP3    H257239   5.195   3.403   3.560 -0.8388 -1.0376  0.8044
11942TIP3   OH257240   6.284   6.036   2.339  0.7377 -0.3598  0.1189
11942TIP3    H157241   6.272   5.944   2.364 -1.5876 -0.0482  0.3167
11942TIP3    H257242   6.219   6.051   2.270  1.6848  0.9243 -0.5401
11943TIP3   OH257243   5.615   0.842   2.106 -0.2566 -0.2212 -0.5789
11943TIP3    H157244   5.569   0.855   2.023  0.2643 -1.7120 -1.1354
11943TIP3    H257245   5.695   0.795   2.082  0.3920  0.2193  0.6531
11944TIP3   OH257246   4.672   2.609  16.470 -0.0089 -0.0450 -0.0360
11944TIP3    H157247   4.676   2.704  16.463 -0.3671  0.0473  0.8819
11944TIP3    H257248   4.675   2.578  16.379  0.9627  0.7919 -0.3063
11945TIP3   OH257249   5.861   4.545  16.866 -0.2027  0.4071  0.4734
11945TIP3    H157250   5.826   4.507  16.946  0.2262  0.4265  0.6788
11945TIP3    H257251   5.845   4.480  16.799  0.5957 -0.1802  0.8345
11946TIP3   OH257252   2.696   0.502   2.619  0.8016 -0.8323  0.1714
11946TIP3    H157253   2.700   0.576   2.558  0.6505 -1.7322 -0.9764
11946TIP3    H257254   2.788   0.486   2.642  1.2859 -2.5073 -2.4407
11947TIP3   OH257255   5.107   4.860  15.997 -0.0858  0.2848 -0.1916
11947TIP3    H157256   5.020   4.820  15.995 -0.1080  0.3530 -0.8246
11947TIP3    H257257   5.126   4.870  16.090  0.2259 -1.8527  0.0348
11948TIP3   OH257258   2.256   0.772   0.751 -0.4721  0.2964 -0.3263
11948TIP3    H157259   2.313   0.836   0.708  0.6599 -0.4669  0.0115
11948TIP3    H257260   2.180   0.765   0.693  0.2107  0.6154 -1.2804
11949TIP3   OH257261   5.653   0.362   4.210 -0.3392 -0.6444  0.0251
11949TIP3    H157262   5.567   0.346   4.170  0.4192  0.9400 -2.4163
11949TIP3    H257263   5.715   0.316   4.154  0.4775 -2.0840  1.9785
11950TIP3   OH257264   1.048   4.989  14.192 -0.4705 -0.3638  0.0751
11950TIP3    H157265   1.023   4.915  14.137 -0.4166 -0.1898 -0.1834
11950TIP3    H257266   1.095   4.950  14.265 -0.9967 -0.6450  0.2683
11951TIP3   OH257267   5.255   5.964   0.820  0.0194  0.3014  0.5032
11951TIP3    H157268   5.287   5.894   0.876 -1.4360  0.7381  1.9792
11951TIP3    H257269   5.330   5.989   0.766  0.8541 -1.6245  0.7216
11952TIP3   OH257270   3.145   4.966  15.617 -0.1623  0.5079 -0.1363
11952TIP3    H157271   3.059   4.979  15.578 -0.8053  0.0447  1.0896
11952TIP3    H257272   3.132   4.984  15.710  0.9043 -0.2954  0.1810
11953TIP3   OH257273   1.958   1.782   1.308  0.0767 -0.2894 -0.3127
11953TIP3    H157274   1.896   1.783   1.381  1.0851  1.7643  0.6029
11953TIP3    H257275   2.001   1.868   1.312  0.8050 -0.4591 -2.7995
11954TIP3   OH257276   5.508   4.218  15.111  0.1323  0.2089 -0.7246
11954TIP3    H157277   5.478   4.195  15.023 -0.7937 -0.8913 -0.1524
11954TIP3    H257278   5.432   4.202  15.167 -0.3003  3.8290 -0.0758
11955TIP3   OH257279   1.475   4.530   1.198  0.1571 -0.0986  0.3001
11955TIP3    H157280   1.395   4.514   1.147  0.6857 -2.1611  0.0174
11955TIP3    H257281   1.506   4.616   1.168 -0.0821 -0.7921 -2.2040
11956TIP3   OH257282   1.116   5.646   4.511 -0.4189  0.0028 -0.1408
11956TIP3    H157283   1.180   5.628   4.580 -1.3829 -0.1083  0.7456
11956TIP3    H257284   1.044   5.689   4.556 -0.7114  0.7214 -1.2335
11957TIP3   OH257285   5.099   0.519   2.471  0.4677  0.1611 -0.3767
11957TIP3    H157286   5.046   0.554   2.543  0.8818  0.4334 -0.2041
11957TIP3    H257287   5.137   0.596   2.430  0.4940 -0.0172 -0.6875
11958TIP3   OH257288   0.978   3.620   2.433  0.0373  0.1283  0.0329
11958TIP3    H157289   0.965   3.527   2.416  0.6443 -0.1264  0.9036
11958TIP3    H257290   1.073   3.632   2.432 -0.0548  1.0130 -1.4159
11959TIP3   OH257291   6.149   3.004  14.826 -0.1508  0.2739  0.0111
11959TIP3    H157292   6.068   2.969  14.791 -0.9386  1.5148  0.5281
11959TIP3    H257293   6.208   3.008  14.750  0.0782 -2.3252 -0.0135
11960TIP3   OH257294   5.078   5.423   0.409 -0.2010  0.5801 -0.0144
11960TIP3    H157295   5.087   5.442   0.316 -0.0907 -0.7543 -0.3065
11960TIP3    H257296   5.014   5.487   0.441 -1.0206  0.4069 -1.2323
11961TIP3   OH257297   0.081   3.736  12.699 -0.5079  0.2575 -0.2659
11961TIP3    H157298   0.163   3.769  12.662  0.5976 -2.6887 -0.7388
11961TIP3    H257299   0.014   3.760  12.635  0.5801 -0.3062 -1.6685
11962TIP3   OH257300   3.877   3.704   6.161  0.0705 -0.4086 -0.1331
11962TIP3    H157301   3.946   3.639   6.178  0.6638 -0.2861 -1.8599
11962TIP3    H257302   3.924   3.785   6.142 -0.4602 -0.4827 -2.0313
11963TIP3   OH257303   3.428   3.464  15.280 -0.2064 -0.7358  0.3105
11963TIP3    H157304   3.417   3.438  15.371  0.4520 -0.8875  0.3504
11963TIP3    H257305   3.393   3.552  15.275  1.5346  0.0507  1.1662
11964TIP3   OH257306   0.034   3.732  10.959  0.7816  0.0670  0.0694
11964TIP3    H157307   0.013   3.644  10.928  1.0186  0.5010 -1.4134
11964TIP3    H257308   0.129   3.737  10.955  0.7052  1.0273 -1.8486
11965TIP3   OH257309   3.717   4.982   3.660  0.0680 -0.3191 -0.3974
11965TIP3    H157310   3.730   4.908   3.719  1.2512 -0.3688 -0.6926
11965TIP3    H257311   3.642   4.958   3.607 -0.3102 -0.7697  0.3286
11966TIP3   OH257312   3.371   4.058   0.106 -0.0498 -0.5005  0.2191
11966TIP3    H157313   3.327   3.978   0.078 -1.7838  0.1687  0.8419
11966TIP3    H257314   3.385   4.046   0.200  2.0675 -1.0905 -0.1175
11967TIP3   OH257315   0.584   2.529  12.209 -0.0648 -0.2512 -0.1680
11967TIP3    H157316   0.673   2.547  12.180 -1.3203  3.0113 -2.6538
11967TIP3    H257317   0.554   2.457  12.154  0.8773 -1.1768  0.4904
11968TIP3   OH257318   1.569   6.694   1.333  0.6765 -0.6276  0.3730
11968TIP3    H157319   1.613   6.675   1.416  0.5837  1.0502  0.8415
11968TIP3    H257320   1.479   6.715   1.357  1.2630  2.5192  0.2406
11969TIP3   OH257321   2.809   0.310  10.378 -0.3158  0.4415 -0.4014
11969TIP3    H157322   2.817   0.311  10.473  0.1056  0.5083 -0.4358
11969TIP3    H257323   2.771   0.224  10.358 -4.4536  1.9071  0.1032
11970TIP3   OH257324   5.129   2.687   2.567  0.1364  0.2513 -0.0842
11970TIP3    H157325   5.222   2.682   2.547  0.4032 -1.6096  1.3776
11970TIP3    H257326   5.106   2.600   2.599 -2.2010  0.5665 -0.7324
11971TIP3   OH257327   5.007   3.148   5.601  0.0375 -0.2166  0.3178
11971TIP3    H157328   5.028   3.237   5.573  0.3056 -0.6830 -1.0633
11971TIP3    H257329   5.075   3.127   5.665  1.2597 -0.1661 -0.9173
11972TIP3   OH257330   6.662   2.987   3.409  0.1637  0.8661 -0.1283
11972TIP3    H157331   6.745   3.035   3.403 -0.3233  1.8041  0.3957
11972TIP3    H257332   6.681   2.915   3.469  0.4552  1.4172  0.4523
11973TIP3   OH257333   3.210   0.526  12.562  0.2396 -0.1310  0.5855
11973TIP3    H157334   3.303   0.547  12.557  0.1895  0.3271  1.4017
11973TIP3    H257335   3.192   0.520  12.656 -1.1347  2.5433  0.5773
11974TIP3   OH257336   1.512   5.605  13.004  0.1811  0.2831  0.2836
11974TIP3    H157337   1.577   5.536  12.997 -0.1665 -0.0079 -0.0937
11974TIP3    H257338   1.502   5.639  12.915 -1.4362 -0.8471 -0.0077
11975TIP3   OH257339   2.242   5.668  15.637  0.5336  0.1788  0.2172
11975TIP3    H157340   2.211   5.709  15.557  0.3712  0.2851  0.3347
11975TIP3    H257341   2.223   5.575  15.626  0.5821  0.1828  0.1004
11976TIP3   OH257342   5.866   1.595  14.328  0.0369  0.8691 -0.4270
11976TIP3    H157343   5.815   1.562  14.254  1.7421 -2.3400 -0.3729
11976TIP3    H257344   5.945   1.631  14.288  1.0237 -0.9942 -0.2800
11977TIP3   OH257345   1.034   2.423   3.410  0.2976 -0.0175  0.2265
11977TIP3    H157346   1.003   2.490   3.350 -1.6150 -2.1595 -1.3164
11977TIP3    H257347   0.970   2.422   3.481  1.3227  0.9625  1.2083
11978TIP3   OH257348   2.690   5.594   2.566  0.3520  0.1534 -0.0110
11978TIP3    H157349   2.752   5.665   2.552  0.5157 -0.4243 -2.8125
11978TIP3    H257350   2.637   5.592   2.486 -2.1717 -0.4907  1.5620
11979TIP3   OH257351   0.886   0.507   2.150 -0.4123  0.1326  0.5948
11979TIP3    H157352   0.824   0.574   2.121  1.1569  0.8252 -1.3547
11979TIP3    H257353   0.904   0.529   2.241 -0.9358  1.5828  0.3725
11980TIP3   OH257354   3.470   3.439   4.938 -0.2609  0.0696  0.2384
11980TIP3    H157355   3.547   3.382   4.928 -0.0569 -0.0573  2.0353
11980TIP3    H257356   3.414   3.417   4.864  0.7268 -1.0012 -0.2339
11981TIP3   OH257357   6.467   2.491   1.822  0.4348  0.5289 -0.0302
11981TIP3    H157358   6.444   2.414   1.770  2.4979  0.1018 -0.4221
11981TIP3    H257359   6.523   2.456   1.891  0.3185  1.5172  0.5758
11982TIP3   OH257360   0.181   2.862   3.264 -0.0004  0.4329 -0.0092
11982TIP3    H157361   0.125   2.876   3.188  0.5547  0.3552 -0.4330
11982TIP3    H257362   0.170   2.769   3.284 -0.4089  0.5265  0.2200
11983TIP3   OH257363   3.847   4.730  17.009 -0.0272  0.3763  0.5371
11983TIP3    H157364   3.939   4.750  17.023  0.4141  0.7647 -2.2391
11983TIP3    H257365   3.833   4.645  17.052  1.5539  0.4092  1.1597
11984TIP3   OH257366   0.392   5.215   2.380 -0.2646  0.0732  0.3170
11984TIP3    H157367   0.349   5.171   2.453 -0.9906  0.4256  0.1065
11984TIP3    H257368   0.486   5.210   2.400 -0.5002  1.1483  1.8437
11985TIP3   OH257369   5.692   1.850   3.914  0.2676  0.2453  0.4595
11985TIP3    H157370   5.766   1.842   3.974  0.6798  0.0902 -0.0623
11985TIP3    H257371   5.717   1.922   3.856 -0.4422  0.8678  0.9115
11986TIP3   OH257372   6.233   4.115   5.886  0.3726 -0.8790 -0.1037
11986TIP3    H157373   6.151   4.158   5.911  0.2862 -0.9666 -0.2378
11986TIP3    H257374   6.254   4.058   5.960  1.6735  1.0489  1.1173
11987TIP3   OH257375   6.646   5.156  16.533 -0.5943  0.1107 -0.3443
11987TIP3    H157376   6.663   5.068  16.500 -1.3440 -0.7997  1.5766
11987TIP3    H257377   6.564   5.149  16.581 -0.6894  1.8763 -0.1811
11988TIP3   OH257378   3.448   4.788   4.733  0.3282 -0.3589 -0.1098
11988TIP3    H157379   3.530   4.815   4.692 -0.3001  2.3839  0.2870
11988TIP3    H257380   3.473   4.758   4.821  0.9388  0.0365 -0.1462
11989TIP3   OH257381   4.731   1.650   1.650 -0.7656 -0.1699  0.0104
11989TIP3    H157382   4.747   1.680   1.561 -0.5984 -0.2855  0.0004
11989TIP3    H257383   4.778   1.712   1.706  1.5959 -1.6869 -0.0993
11990TIP3   OH257384   4.398   5.860   3.966 -0.1951 -0.3747 -0.6631
11990TIP3    H157385   4.341   5.877   3.891 -0.4646  0.3313 -0.3103
11990TIP3    H257386   4.384   5.767   3.986  0.6265 -0.8414 -2.0805
11991TIP3   OH257387   2.864   6.462  12.252 -0.6099  0.7300 -0.0595
11991TIP3    H157388   2.830   6.413  12.326  2.8006  0.8939  1.8439
11991TIP3    H257389   2.889   6.395  12.188 -1.0175  0.3935  0.1290
11992TIP3   OH257390   0.425   3.806   0.639  0.1004  0.3776 -0.3285
11992TIP3    H157391   0.355   3.862   0.672 -0.2528 -0.8889  1.1999
11992TIP3    H257392   0.498   3.865   0.621 -1.3941  1.7682 -2.2297
11993TIP3   OH257393   4.260   0.104  10.283 -0.5172  0.3322 -0.6091
11993TIP3    H157394   4.353   0.112  10.304 -0.8578  2.2480  0.4390
11993TIP3    H257395   4.233   0.020  10.320 -0.0071  1.4547  2.6565
11994TIP3   OH257396   4.722   4.123   4.838  0.4480  0.1055 -0.0559
11994TIP3    H157397   4.777   4.064   4.786 -1.2710 -0.8650 -0.8887
11994TIP3    H257398   4.713   4.201   4.785  0.8089  0.1637 -0.0321
11995TIP3   OH257399   4.060   0.334  14.604  0.6615  0.3576  0.2307
11995TIP3    H157400   4.071   0.398  14.674 -1.2454  0.7010  0.2732
11995TIP3    H257401   4.071   0.249  14.647  0.0093  0.5802  0.8686
11996TIP3   OH257402   1.990   1.775  15.774  0.1132 -0.0435  0.3037
11996TIP3    H157403   1.936   1.750  15.849 -0.2130 -0.7341 -0.1448
11996TIP3    H257404   2.027   1.860  15.798 -1.4042  0.5996  0.5245
11997TIP3   OH257405   2.735   1.872  16.383  0.0130  0.7678  0.0846
11997TIP3    H157406   2.675   1.797  16.380  0.8442  0.1036 -0.6509
11997TIP3    H257407   2.729   1.911  16.296  1.4783 -0.0198 -0.4158
11998TIP3   OH257408   2.411   3.769  14.750 -0.4006 -0.4258 -0.0263
11998TIP3    H157409   2.388   3.697  14.693  2.1553 -0.4126 -1.2127
11998TIP3    H257410   2.403   3.847  14.695  0.5200 -0.2371  0.0884
11999TIP3   OH257411   3.041   5.017   5.152  0.3996  0.3696 -0.4701
11999TIP3    H157412   2.947   5.021   5.165  0.2581  0.2895 -1.4646
11999TIP3    H257413   3.074   5.099   5.190 -0.1706  0.8416 -0.9737
12000TIP3   OH257414   3.774   0.651   3.780  0.4762  0.0672 -0.3423
12000TIP3    H157415   3.857   0.682   3.744  0.1347  0.7570 -0.5676
12000TIP3    H257416   3.710   0.715   3.749  0.1321  0.5995  1.3574
12001TIP3   OH257417   3.852   6.467   0.427  0.0071  0.5746 -0.3489
12001TIP3    H157418   3.863   6.477   0.522  1.8519 -0.8208 -0.3666
12001TIP3    H257419   3.895   6.543   0.389 -0.4052  0.9403 -0.0944
12002TIP3   OH257420   5.353   1.731   5.048 -0.3496  0.0161 -0.3711
12002TIP3    H157421   5.283   1.794   5.065 -1.9154 -1.4160 -1.3086
12002TIP3    H257422   5.425   1.785   5.016 -1.3427  1.4237 -0.3504
12003TIP3   OH257423   5.506   2.506   0.736  0.2966 -0.3877 -0.3526
12003TIP3    H157424   5.441   2.522   0.667  1.0462  1.8727 -0.6117
12003TIP3    H257425   5.461   2.529   0.817  0.7332  1.2315 -0.5368
12004TIP3   OH257426   4.062   6.437   1.490  0.9248  0.5676  0.0395
12004TIP3    H157427   4.112   6.386   1.554  1.5990  1.1876  0.0143
12004TIP3    H257428   4.093   6.527   1.501 -2.2247  1.5510  2.0286
12005TIP3   OH257429   4.062   6.318   5.348 -0.4406 -0.1782 -0.3212
12005TIP3    H157430   4.093   6.287   5.433  0.1910  1.5622  0.1191
12005TIP3    H257431   4.096   6.254   5.286 -0.6292 -1.2937  0.6799
12006TIP3   OH257432   3.262   2.892  16.319  0.5110  0.3656 -0.1606
12006TIP3    H157433   3.200   2.965  16.327  1.7540  1.5341 -0.8559
12006TIP3    H257434   3.216   2.826  16.267 -0.5591  0.7116  0.3241
12007TIP3   OH257435   5.995   1.886   1.182  0.4055  0.2672 -0.3593
12007TIP3    H157436   5.966   1.861   1.270 -1.2019  1.9727 -0.3471
12007TIP3    H257437   5.964   1.976   1.171  1.1866  0.3386 -2.4250
12008TIP3   OH257438   2.327   6.400  16.427  0.3709 -0.2767  0.2069
12008TIP3    H157439   2.329   6.386  16.522 -0.8557  0.9498  0.4474
12008TIP3    H257440   2.273   6.479  16.416  2.4661  1.0177 -1.3576
12009TIP3   OH257441   2.782   0.980   2.047 -0.1169 -0.1593 -0.2640
12009TIP3    H157442   2.762   1.049   2.111  0.4057 -0.2854  0.0368
12009TIP3    H257443   2.826   0.912   2.098  0.4360 -0.1940 -0.7770
12010TIP3   OH257444   4.179   3.715   0.287  0.3228  0.8037  0.2203
12010TIP3    H157445   4.274   3.710   0.274  0.0930 -1.2712 -0.9705
12010TIP3    H257446   4.145   3.748   0.204 -0.2625 -2.3896 -0.9506
12011TIP3   OH257447   6.491   2.042  16.662 -0.1565  0.0789  0.1019
12011TIP3    H157448   6.545   2.115  16.690 -1.3080  1.2187 -0.5702
12011TIP3    H257449   6.550   1.989  16.607  0.5755  0.6847  0.2886
12012TIP3   OH257450   3.914   5.624   5.118  0.0873  0.2218  0.3084
12012TIP3    H157451   3.865   5.565   5.060 -2.2005  2.5115 -0.2681
12012TIP3    H257452   3.917   5.578   5.202 -1.0832 -0.9739 -0.2639
12013TIP3   OH257453   1.385   2.723  15.839  0.0608 -0.4166  0.2069
12013TIP3    H157454   1.394   2.789  15.907  0.7249  2.4986 -2.5016
12013TIP3    H257455   1.466   2.729  15.788 -0.4311 -2.4394 -0.9322
12014TIP3   OH257456   4.733   1.128   2.606 -0.3638  0.1537 -0.3264
12014TIP3    H157457   4.676   1.142   2.682 -2.8600 -0.0863 -2.0087
12014TIP3    H257458   4.752   1.216   2.574  1.7999  0.3274  1.2329
12015TIP3   OH257459   5.923   4.797  16.147 -0.2480 -0.1577  0.1646
12015TIP3    H157460   5.883   4.884  16.137  2.6756  1.4531  1.1210
12015TIP3    H257461   5.910   4.754  16.063 -0.5730  1.7793 -0.8321
12016TIP3   OH257462   6.397   5.583   3.264 -0.3559 -0.0679 -0.4436
12016TIP3    H157463   6.440   5.537   3.192 -3.0852  0.0191 -2.2935
12016TIP3    H257464   6.458   5.653   3.289  1.3964 -1.1704 -1.4679
12017TIP3   OH257465   2.271   2.465   4.589  0.3246 -0.6559 -0.0267
12017TIP3    H157466   2.287   2.559   4.577 -0.4780 -0.3344  1.1257
12017TIP3    H257467   2.350   2.433   4.631  0.4169 -0.3880  0.0087
12018TIP3   OH257468   6.129   1.563  13.314  0.3044  0.5708 -0.0942
12018TIP3    H157469   6.161   1.643  13.357  0.7006 -0.0778  0.8468
12018TIP3    H257470   6.042   1.586  13.281 -0.4395  0.8113  1.9220
12019TIP3   OH257471   1.313   0.913  16.932  0.3271  0.2261 -0.2648
12019TIP3    H157472   1.299   0.820  16.912  1.3280 -0.1635  0.7670
12019TIP3    H257473   1.239   0.957  16.891 -0.7890 -1.1474  0.1734
12020TIP3   OH257474   4.429   4.261   1.304 -0.1725  0.0856 -0.5634
12020TIP3    H157475   4.440   4.217   1.220  3.3228 -1.9985  0.7487
12020TIP3    H257476   4.474   4.345   1.294 -1.4168  0.6937 -1.2607
12021TIP3   OH257477   6.550   6.024   5.341  0.0608 -0.5543  0.6476
12021TIP3    H157478   6.598   5.990   5.266 -3.3901 -3.1865 -0.6478
12021TIP3    H257479   6.522   6.111   5.314 -0.2383 -1.0514 -0.7416
12022TIP3   OH257480   6.132   1.803  16.901  0.2145 -0.4393 -0.3723
12022TIP3    H157481   6.086   1.757  16.830 -0.1600  1.6053 -1.5460
12022TIP3    H257482   6.171   1.879  16.858  1.0095  0.2155  1.4272
12023TIP3   OH257483   1.700   1.393   6.098  0.1128  0.3006 -0.1957
12023TIP3    H157484   1.749   1.461   6.051  1.2484  0.7622  1.5348
12023TIP3    H257485   1.616   1.388   6.053  1.5343 -0.1719 -2.9966
12024TIP3   OH257486   6.263   5.522   2.884 -0.5406  0.4163 -0.3301
12024TIP3    H157487   6.186   5.523   2.827 -0.9042  1.6378  0.1517
12024TIP3    H257488   6.297   5.612   2.879  0.8388 -0.0878 -0.5075
12025TIP3   OH257489   6.631   2.704  15.762 -0.3653  1.2398  0.2571
12025TIP3    H157490   6.599   2.637  15.822  1.4162 -1.9803 -2.0764
12025TIP3    H257491   6.561   2.769  15.759 -3.6322 -1.9586  0.4769
12026TIP3   OH257492   5.976   4.524  15.762 -0.1436  0.4134  0.4159
12026TIP3    H157493   6.048   4.577  15.728 -0.5466  0.1834 -0.8314
12026TIP3    H257494   5.897   4.575  15.743 -0.3658  0.4284  1.3148
12027TIP3   OH257495   3.274   6.023   0.401  0.2922  0.0591 -0.1554
12027TIP3    H157496   3.197   6.077   0.419  0.2854  0.5198 -1.4540
12027TIP3    H257497   3.237   5.940   0.370  0.3102 -0.4289  1.1056
12028TIP3   OH257498   4.378   0.781  13.014 -0.5721  0.3402 -0.1818
12028TIP3    H157499   4.381   0.789  13.109 -1.3845  0.7436 -0.1865
12028TIP3    H257500   4.449   0.720  12.993 -0.3150  0.3377  0.6680
12029TIP3   OH257501   2.191   3.147  15.687  0.1396  0.4495  0.2793
12029TIP3    H157502   2.235   3.218  15.641  0.1525  0.5731  0.4787
12029TIP3    H257503   2.170   3.083  15.619 -0.7993  1.1091 -0.0828
12030TIP3   OH257504   5.841   6.254   2.631  0.0248 -0.0979  0.3921
12030TIP3    H157505   5.861   6.222   2.719  0.4987  1.9226  1.0480
12030TIP3    H257506   5.793   6.335   2.645 -1.0375 -0.3923 -1.2318
12031TIP3   OH257507   4.036   2.229  14.037 -0.5263  0.0811 -0.4314
12031TIP3    H157508   4.083   2.275  14.107 -0.6236  1.4182 -1.2196
12031TIP3    H257509   4.011   2.298  13.976 -1.9529 -0.8487 -0.9307
12032TIP3   OH257510   4.152   2.345  11.940  0.1020 -0.2326 -0.4246
12032TIP3    H157511   4.107   2.403  12.001 -0.5306 -1.7669  0.6264
12032TIP3    H257512   4.207   2.404  11.888 -0.3613  1.2728  0.7003
12033TIP3   OH257513   2.773   0.376  11.604 -0.2343  0.7507 -0.2458
12033TIP3    H157514   2.805   0.430  11.532 -0.9389  1.5697  0.0366
12033TIP3    H257515   2.713   0.433  11.652  0.8819  0.5532  1.5223
12034TIP3   OH257516   3.504   1.304  15.014  0.1381  0.3391  0.0147
12034TIP3    H157517   3.561   1.232  14.985 -1.0556 -0.4656 -0.4290
12034TIP3    H257518   3.559   1.382  15.010  0.8393 -0.2015 -1.7160
12035TIP3   OH257519   2.627   6.338  16.962  0.3433 -0.0171 -0.1320
12035TIP3    H157520   2.555   6.379  17.009 -0.4414 -1.4976 -0.0143
12035TIP3    H257521   2.706   6.379  16.999 -0.3719  0.7387  0.5876
12036TIP3   OH257522   0.016   0.655   2.357 -0.1993  0.3385  0.1676
12036TIP3    H157523   0.090   0.711   2.382  0.5040 -0.2996 -0.4090
12036TIP3    H257524  -0.062   0.702   2.386  0.4061  1.3574  0.1632
12037TIP3   OH257525   4.426   6.621   5.486 -0.2729 -0.1500 -0.0867
12037TIP3    H157526   4.405   6.678   5.559  1.1922 -0.1325  0.3497
12037TIP3    H257527   4.410   6.533   5.519  0.1747 -0.1303  0.1849
12038TIP3   OH257528   1.692   1.859  16.902  0.4620 -0.1412  0.1159
12038TIP3    H157529   1.615   1.843  16.956  0.6434  1.2191  0.8157
12038TIP3    H257530   1.696   1.954  16.892  1.3007 -0.2716 -1.0339
12039TIP3   OH257531   6.741   6.027  16.885 -0.9086 -0.2813  0.2353
12039TIP3    H157532   6.667   6.048  16.827 -1.0708  0.0621  0.5641
12039TIP3    H257533   6.818   6.051  16.834 -1.0630  0.3109  0.2771
12040TIP3   OH257534   3.432   3.627   3.720 -0.7353 -0.2459 -0.5276
12040TIP3    H157535   3.346   3.663   3.742 -0.7773 -1.2148  1.0279
12040TIP3    H257536   3.460   3.580   3.799  0.8851 -0.6038 -1.2656
12041TIP3   OH257537   3.963   0.994  11.861 -0.4431 -0.0747  0.2401
12041TIP3    H157538   3.928   0.916  11.903  2.6944 -0.0436  3.3808
12041TIP3    H257539   3.906   1.065  11.890 -2.3891 -0.8793 -1.3804
12042TIP3   OH257540   3.974   4.383   2.362  0.2972 -0.5282  0.3735
12042TIP3    H157541   4.015   4.423   2.439 -1.3274 -0.8041  1.4226
12042TIP3    H257542   3.894   4.433   2.348 -0.0337 -1.2478 -0.4073
12043TIP3   OH257543   5.495   1.179   4.457  0.4347 -0.1495  0.2092
12043TIP3    H157544   5.512   1.202   4.548  1.0045  2.6702 -0.5187
12043TIP3    H257545   5.575   1.202   4.411  0.0625 -1.3138 -1.0846
12044TIP3   OH257546   6.612   3.885   0.426  0.2956  0.1498  0.6582
12044TIP3    H157547   6.655   3.906   0.343 -1.0402 -0.8752 -0.3445
12044TIP3    H257548   6.532   3.938   0.424  0.6733  0.7862  1.7281
12045TIP3   OH257549   4.269   0.112  14.096 -0.1218  0.2389 -0.4064
12045TIP3    H157550   4.189   0.157  14.121  0.3118  0.8087  0.0057
12045TIP3    H257551   4.243   0.050  14.029 -0.8184  0.7608 -0.6211
12046TIP3   OH257552   1.133   2.950  14.492  0.5543 -0.2609  0.3738
12046TIP3    H157553   1.193   2.924  14.562 -0.2882 -0.7912  0.9239
12046TIP3    H257554   1.091   3.030  14.525 -0.4576 -0.9750  0.8656
12047TIP3   OH257555   2.605   2.807   1.973  0.3264  0.3373 -0.3176
12047TIP3    H157556   2.579   2.794   2.064  0.3168 -0.3384 -0.4122
12047TIP3    H257557   2.643   2.895   1.971 -1.8825  1.3681 -0.1480
12048TIP3   OH257558   3.284   1.934   1.098 -0.3358 -0.5491 -0.5455
12048TIP3    H157559   3.335   1.886   1.032  1.0827  0.3879 -0.1827
12048TIP3    H257560   3.225   1.988   1.046 -0.2806 -0.9297 -1.0158
12049TIP3   OH257561   5.510   3.517  13.073  0.2073 -0.2746 -0.4426
12049TIP3    H157562   5.503   3.459  12.997 -3.1184 -3.4192  1.9307
12049TIP3    H257563   5.575   3.475  13.129  0.6191  0.4958 -0.3342
12050TIP3   OH257564   0.484   6.646  16.383  0.1439  0.2305  0.0630
12050TIP3    H157565   0.423   6.713  16.412 -0.2218 -0.0273 -0.1112
12050TIP3    H257566   0.569   6.690  16.383  0.0096  0.4991  0.6087
12051TIP3   OH257567   6.186   4.790   0.086  0.2879  0.0799 -0.1434
12051TIP3    H157568   6.161   4.832   0.168  2.1451  0.6532  0.1677
12051TIP3    H257569   6.145   4.843   0.018 -1.0022 -0.2169  0.3709
12052TIP3   OH257570   2.720   1.643   4.125  0.3495  0.0956  0.5188
12052TIP3    H157571   2.782   1.716   4.126 -0.2729  0.6391  0.2474
12052TIP3    H257572   2.635   1.685   4.134 -0.0576 -0.5584 -0.2107
12053TIP3   OH257573   4.607   4.565   2.153  0.0159 -0.4071  0.0583
12053TIP3    H157574   4.516   4.586   2.131  0.8876  0.8398 -2.8090
12053TIP3    H257575   4.617   4.592   2.244 -2.1101  0.6992  0.0159
12054TIP3   OH257576   4.935   2.870  14.137 -0.4715  0.5089  0.2958
12054TIP3    H157577   4.986   2.799  14.175 -0.3407  1.1704  1.3874
12054TIP3    H257578   4.982   2.892  14.056  0.9775  1.0730  1.2435
12055TIP3   OH257579   0.926   5.888  13.644 -0.3406 -0.8769  0.1825
12055TIP3    H157580   0.980   5.819  13.681  0.0722 -1.1147 -0.8290
12055TIP3    H257581   0.979   5.925  13.573 -1.5236 -1.1833 -0.9075
12056TIP3   OH257582   6.127   0.523  14.889  0.4536  0.1489 -0.1482
12056TIP3    H157583   6.077   0.443  14.903 -1.2942  1.4762  1.8745
12056TIP3    H257584   6.209   0.509  14.935 -0.3334 -0.0786  1.2368
12057TIP3   OH257585   4.853   5.600   2.859 -0.1022 -0.4224 -0.0659
12057TIP3    H157586   4.866   5.510   2.890 -0.4637 -0.0142  1.3762
12057TIP3    H257587   4.806   5.643   2.931 -0.5796  0.7295 -1.0373
12058TIP3   OH257588   0.025   0.285  13.339  0.2419 -0.4366 -0.1594
12058TIP3    H157589   0.120   0.273  13.341  0.3154 -0.9820 -3.0644
12058TIP3    H257590  -0.011   0.197  13.335 -0.0440 -0.3082 -4.0660
12059TIP3   OH257591   4.168   1.819   6.472  0.6835  0.2780  0.2327
12059TIP3    H157592   4.184   1.738   6.521 -0.6193 -0.4916 -0.5776
12059TIP3    H257593   4.221   1.885   6.518  2.0515 -1.0754  0.7038
12060TIP3   OH257594   4.918   2.261   6.887 -0.1184  0.1254  0.1869
12060TIP3    H157595   4.930   2.352   6.912 -0.1675 -0.0664  0.9390
12060TIP3    H257596   4.904   2.263   6.792  0.9393  0.8020  0.0264
12061TIP3   OH257597   5.694   1.743   1.092 -0.5461 -0.2201 -0.2242
12061TIP3    H157598   5.750   1.678   1.134  1.1325  1.4460  0.2917
12061TIP3    H257599   5.662   1.798   1.164  0.5963  1.3465 -0.8424
12062TIP3   OH257600   3.501   4.425   5.556 -0.5208  0.0077  0.2959
12062TIP3    H157601   3.493   4.383   5.642 -3.0464 -2.5699 -1.0716
12062TIP3    H257602   3.544   4.509   5.576  0.8840 -1.3097  3.7605
12063TIP3   OH257603   2.772   0.409   5.045  0.1840 -0.4778 -0.1690
12063TIP3    H157604   2.813   0.447   4.966  1.3524 -0.7510  0.2786
12063TIP3    H257605   2.807   0.461   5.117 -0.3479 -0.6641  0.2290
12064TIP3   OH257606   2.536   6.387   1.507 -0.4391  0.2029  0.3398
12064TIP3    H157607   2.509   6.448   1.439 -0.2353  0.5813  0.5938
12064TIP3    H257608   2.620   6.421   1.537 -0.6860  0.2298  1.0144
12065TIP3   OH257609   1.179   1.616   2.447  0.0511 -0.3849 -0.2585
12065TIP3    H157610   1.252   1.573   2.402  0.3297  0.4632 -0.6298
12065TIP3    H257611   1.103   1.561   2.428  0.6031 -1.3706  0.2599
12066TIP3   OH257612   6.087   0.407  14.129 -0.2373 -0.0504  0.0745
12066TIP3    H157613   6.062   0.479  14.072 -0.8360  0.7762  1.3334
12066TIP3    H257614   6.009   0.390  14.182 -0.7063 -2.7667 -1.2947
12067TIP3   OH257615   4.040   0.929   2.833 -0.2309 -0.0828  0.0123
12067TIP3    H157616   3.971   0.953   2.771  0.1807 -0.9284 -0.7985
12067TIP3    H257617   4.027   0.835   2.848 -0.8303  0.2664  1.8678
12068TIP3   OH257618   4.923   0.658   4.948  0.4182  0.0281 -0.3912
12068TIP3    H157619   5.000   0.652   4.892 -0.0728 -1.3660 -0.9639
12068TIP3    H257620   4.860   0.598   4.908 -0.8239  0.8270  0.2958
12069TIP3   OH257621   4.495   6.607  15.939 -0.2909 -0.1799  0.1242
12069TIP3    H157622   4.573   6.554  15.920 -0.0490  0.5057 -0.8426
12069TIP3    H257623   4.527   6.680  15.992 -0.3156 -0.0186 -0.0835
12070TIP3   OH257624   1.076   0.018   2.620 -0.3492 -0.3141 -0.2835
12070TIP3    H157625   1.091   0.007   2.714 -0.4478  0.1338 -0.2119
12070TIP3    H257626   1.000   0.077   2.615 -0.9193 -1.0724 -0.6427
12071TIP3   OH257627   3.295   6.588  13.837  0.2266  0.0134 -0.6631
12071TIP3    H157628   3.233   6.543  13.780  0.8246  0.3724 -1.6114
12071TIP3    H257629   3.294   6.537  13.918  0.9138 -1.7549 -1.7142
12072TIP3   OH257630   5.549   1.189   3.040 -0.1504  0.6721 -0.4477
12072TIP3    H157631   5.507   1.273   3.058 -0.1569  0.4089  0.8598
12072TIP3    H257632   5.578   1.158   3.125  1.1726  0.0340 -1.1030
12073TIP3   OH257633   5.503   3.043  12.454  0.3934 -0.5785 -0.2057
12073TIP3    H157634   5.498   3.078  12.365 -2.3704  1.6563  0.6800
12073TIP3    H257635   5.451   2.962  12.451 -1.4998  0.5773 -0.2630
12074TIP3   OH257636   0.507   2.130  13.198  0.3027 -0.1181  0.0690
12074TIP3    H157637   0.443   2.058  13.196  0.5069 -0.2924 -0.3625
12074TIP3    H257638   0.590   2.087  13.218  0.0700  0.2815  2.0287
12075TIP3   OH257639   1.063   1.594  14.091 -0.1196  0.2463  0.2905
12075TIP3    H157640   1.113   1.600  14.173  2.1676 -1.0281 -0.8937
12075TIP3    H257641   1.072   1.681  14.052 -0.1959  0.5069  0.8435
12076TIP3   OH257642   1.848   4.056  13.301  0.3968  0.3165 -0.5834
12076TIP3    H157643   1.931   4.064  13.253  0.3606  0.4695 -0.6197
12076TIP3    H257644   1.834   4.142  13.340 -0.0962  0.4976 -1.1530
12077TIP3   OH257645   0.407   2.965   0.177 -0.1172 -0.1242 -0.1300
12077TIP3    H157646   0.471   3.022   0.133 -1.5623  1.6078 -0.0766
12077TIP3    H257647   0.454   2.931   0.253  0.7266  1.2119 -0.0168
12078TIP3   OH257648   2.969   6.458   5.833 -0.3751 -0.9247 -0.2253
12078TIP3    H157649   3.047   6.452   5.889 -1.2937 -1.2037  1.0603
12078TIP3    H257650   2.953   6.552   5.825  0.2393 -0.8525 -0.7313
12079TIP3   OH257651   5.009   1.891  16.752  0.4175  0.3961  0.5274
12079TIP3    H157652   4.949   1.839  16.698  1.8128 -0.0672 -0.6408
12079TIP3    H257653   5.091   1.890  16.704  1.0815  1.9104  1.5663
12080TIP3   OH257654   4.818   6.193   4.348  0.5300 -0.1239 -0.0687
12080TIP3    H157655   4.759   6.121   4.324 -0.4360 -0.3830  2.7025
12080TIP3    H257656   4.763   6.272   4.341  0.6408 -0.0452 -0.0481
12081TIP3   OH257657   6.650   5.309  16.231  0.4810  0.0259  0.0093
12081TIP3    H157658   6.688   5.397  16.226  0.8217 -0.1671 -1.0295
12081TIP3    H257659   6.578   5.318  16.294 -2.0157  2.0741 -2.8280
12082TIP3   OH257660   2.273   6.282  12.721 -0.1211 -0.1234  0.1534
12082TIP3    H157661   2.273   6.366  12.675 -0.1132  0.7596  1.6847
12082TIP3    H257662   2.181   6.256  12.725 -0.0058 -0.8932 -1.4889
12083TIP3   OH257663   2.687   5.934   3.787 -0.2727 -0.2077 -0.2056
12083TIP3    H157664   2.707   5.855   3.737 -2.7288 -0.4818 -0.8953
12083TIP3    H257665   2.618   5.977   3.736 -0.8889  0.9691  1.5531
12084TIP3   OH257666   6.131   1.428  11.119  0.1725 -0.3077  0.5425
12084TIP3    H157667   6.067   1.436  11.190  0.3646  0.1997  0.6651
12084TIP3    H257668   6.148   1.519  11.092  1.6735 -0.3446  1.2656
12085TIP3   OH257669   4.479   5.616  10.482  0.0075  0.1664 -0.6409
12085TIP3    H157670   4.399   5.624  10.430  0.1172 -1.4263 -1.1181
12085TIP3    H257671   4.512   5.529  10.461  0.4700 -0.2293  1.5264
12086TIP3   OH257672   1.698   5.293  12.435 -0.1535 -0.2996 -0.6925
12086TIP3    H157673   1.706   5.218  12.494  1.1977  1.6115  1.7234
12086TIP3    H257674   1.777   5.290  12.381  1.1083  0.5917  1.0050
12087TIP3   OH257675   1.131   1.043  12.604  0.3510 -0.3993 -0.0163
12087TIP3    H157676   1.134   1.129  12.646 -1.0740 -1.0503  1.5449
12087TIP3    H257677   1.222   1.012  12.604  0.6572  0.4805  0.7747
12088TIP3   OH257678   5.389   6.197  13.432 -0.3694  0.5293 -0.1516
12088TIP3    H157679   5.442   6.156  13.501  0.1629  0.0652 -0.8202
12088TIP3    H257680   5.452   6.222  13.365 -1.1000 -1.4321 -1.6751
12089TIP3   OH257681   1.906   2.441  13.678  0.1208  0.1598 -0.0153
12089TIP3    H157682   1.960   2.494  13.737 -0.3258  0.1699  0.3988
12089TIP3    H257683   1.867   2.504  13.618 -1.4578  0.5305  1.2938
12090TIP3   OH257684   5.828   3.409  15.869  0.2221  0.0554 -0.1730
12090TIP3    H157685   5.876   3.406  15.787  2.3584 -0.8101  1.0243
12090TIP3    H257686   5.883   3.461  15.928 -2.8411  3.6924 -0.1172
12091TIP3   OH257687   5.850   0.823  10.543  0.4646 -0.2161 -0.0042
12091TIP3    H157688   5.810   0.737  10.537  0.5191 -0.2543  0.1597
12091TIP3    H257689   5.944   0.806  10.538  0.4895 -0.1998  0.3510
12092TIP3   OH257690   0.569   2.773   3.091  0.3775  0.3794 -0.8925
12092TIP3    H157691   0.643   2.833   3.082  0.5263  0.6104  1.3332
12092TIP3    H257692   0.492   2.830   3.095  0.1239  0.1804 -2.4177
12093TIP3   OH257693   3.227   4.754   2.877  0.5264  0.4244  0.2008
12093TIP3    H157694   3.156   4.818   2.872  1.4912  1.5835  0.8207
12093TIP3    H257695   3.303   4.805   2.907  1.7335 -0.6868 -0.8610
12094TIP3   OH257696   2.239   3.526  10.253  0.1180 -0.0354 -0.6311
12094TIP3    H157697   2.211   3.529  10.344  0.1608 -0.1767 -0.6125
12094TIP3    H257698   2.167   3.565  10.204 -0.7477 -1.6778 -0.7358
12095TIP3   OH257699   2.972   4.743  13.416  0.2303  0.0237 -0.3973
12095TIP3    H157700   2.980   4.647  13.416  0.3274  0.0265  0.2358
12095TIP3    H257701   2.882   4.759  13.444 -0.2106  0.1031 -1.7893
12096TIP3   OH257702   2.313   3.439   1.922  0.2148 -0.3081 -0.2358
12096TIP3    H157703   2.408   3.454   1.927  0.0773  0.3234  0.7976
12096TIP3    H257704   2.288   3.416   2.011 -0.7339  0.3780 -0.3107
12097TIP3   OH257705   4.800   5.977  15.753  0.5297  0.0743 -0.2977
12097TIP3    H157706   4.719   5.993  15.802  0.3087 -2.3608  0.2853
12097TIP3    H257707   4.781   6.007  15.664 -1.5088 -1.5094 -0.4779
12098TIP3   OH257708   3.804   5.483   3.940 -0.3048  0.1434  0.1813
12098TIP3    H157709   3.753   5.420   3.992  0.4285 -0.0561  0.6759
12098TIP3    H257710   3.740   5.548   3.912 -1.0093 -0.6204 -0.0257
12099TIP3   OH257711   3.099   0.160  14.716  0.0704  0.1023 -0.0673
12099TIP3    H157712   3.128   0.177  14.805  1.1971 -0.4410 -0.3161
12099TIP3    H257713   3.122   0.069  14.700 -2.2120 -0.5094 -0.1425
12100TIP3   OH257714   1.546   5.310   6.167 -0.3901  0.1591  0.5674
12100TIP3    H157715   1.461   5.322   6.209 -0.4896 -0.5398  0.5912
12100TIP3    H257716   1.604   5.283   6.238 -0.6040 -1.2165  0.2549
12101TIP3   OH257717   2.007   3.805  15.452  0.4695  0.3596 -0.4826
12101TIP3    H157718   2.089   3.854  15.452  2.1059 -2.1914 -1.3385
12101TIP3    H257719   1.987   3.791  15.359 -0.4317  0.1499 -0.2682
12102TIP3   OH257720   2.737   2.777  13.250  0.2440 -0.1476  0.0868
12102TIP3    H157721   2.833   2.770  13.250  0.2579 -0.0169 -0.2300
12102TIP3    H257722   2.713   2.769  13.157 -0.1011 -0.7742  0.2247
12103TIP3   OH257723   5.473   0.009   5.421 -0.1623 -0.2642  0.9405
12103TIP3    H157724   5.464   0.070   5.348 -0.7794 -0.7150  0.6226
12103TIP3    H257725   5.533   0.052   5.482 -1.2553  1.0597  1.1396
12104TIP3   OH257726   1.523   1.988   0.891 -0.0668  0.3804 -0.1467
12104TIP3    H157727   1.506   1.912   0.946  1.2781 -0.0121 -0.2600
12104TIP3    H257728   1.587   1.958   0.827  1.1013  1.8249  0.3067
12105TIP3   OH257729   6.433   5.163   5.176  0.1721 -0.0137 -0.5266
12105TIP3    H157730   6.474   5.221   5.240 -0.4570 -0.2252  0.0862
12105TIP3    H257731   6.359   5.213   5.142  1.0852  0.4849 -1.8555
12106TIP3   OH257732   4.757   4.626   4.548  0.1905  0.0831  0.0824
12106TIP3    H157733   4.717   4.586   4.471 -1.3914  0.7270  0.5128
12106TIP3    H257734   4.759   4.720   4.527  3.7823 -0.0920 -0.8944
12107TIP3   OH257735   2.060   4.194   1.196  0.2754  0.0374  0.7039
12107TIP3    H157736   2.112   4.117   1.217  1.2116  0.7465  1.0172
12107TIP3    H257737   2.025   4.223   1.280 -0.7610 -0.5068  0.4815
12108TIP3   OH257738   6.189   6.233   4.869  0.0753 -0.0322 -0.3609
12108TIP3    H157739   6.137   6.197   4.796  0.2262  0.4525 -0.7088
12108TIP3    H257740   6.143   6.203   4.947 -0.1923 -0.4087 -0.6554
12109TIP3   OH257741   5.587   0.122  13.168  0.1663 -0.0480 -0.0145
12109TIP3    H157742   5.535   0.069  13.108 -0.0573 -0.1649  0.2762
12109TIP3    H257743   5.665   0.070  13.187 -0.4385 -0.6543  0.9186
12110TIP3   OH257744   1.059   6.091   0.998  0.1288  0.0692  0.5468
12110TIP3    H157745   1.033   6.026   1.064  0.6001  0.5465  1.2177
12110TIP3    H257746   1.148   6.115   1.023  0.1453  0.5959 -0.0037
12111TIP3   OH257747   6.483   2.995  13.153 -0.3545 -0.3919 -0.3056
12111TIP3    H157748   6.499   3.059  13.083 -1.2300 -0.9325 -1.0265
12111TIP3    H257749   6.393   3.014  13.181 -0.1642 -0.4765  0.3703
12112TIP3   OH257750   1.427   6.098   5.525 -0.0359  0.2618 -0.0263
12112TIP3    H157751   1.500   6.140   5.481  0.1649  0.4197  0.4464
12112TIP3    H257752   1.458   6.009   5.544 -0.4620 -0.1106 -1.0307
12113TIP3   OH257753   0.027   2.075   3.368  0.1364  0.1344  0.3589
12113TIP3    H157754   0.108   2.094   3.414  1.4127  0.6921 -1.9704
12113TIP3    H257755  -0.013   2.161   3.353  1.4858  0.3697 -2.4774
12114TIP3   OH257756   4.465   5.571  12.174 -0.2372 -0.4280 -0.5536
12114TIP3    H157757   4.439   5.537  12.088  0.2338  0.1365 -0.9196
12114TIP3    H257758   4.519   5.501  12.212  0.2373 -0.3343 -1.0582
12115TIP3   OH257759   1.867   6.237   4.113  0.0949  0.0325  0.1075
12115TIP3    H157760   1.899   6.150   4.091 -0.1898  0.2491 -1.2219
12115TIP3    H257761   1.905   6.294   4.047 -0.0094  0.8735  0.7541
12116TIP3   OH257762   0.959   4.927   5.306 -0.4895 -0.2338 -0.4068
12116TIP3    H157763   0.895   4.928   5.235  0.0446 -0.6199 -0.8934
12116TIP3    H257764   1.009   4.847   5.293  0.6996  0.5098 -0.5672
12117TIP3   OH257765   4.245   5.264   4.296  0.6386  0.3239  0.2864
12117TIP3    H157766   4.151   5.260   4.279  0.6347  0.1668  0.3461
12117TIP3    H257767   4.260   5.202   4.367  0.6470  0.9962  0.8853
12118TIP3   OH257768   1.929   4.312  10.967  0.5742  0.0776  0.5058
12118TIP3    H157769   1.850   4.342  10.921 -0.4803 -1.3436  1.2853
12118TIP3    H257770   1.963   4.242  10.912  1.6351  1.0376 -0.0943
12119TIP3   OH257771   2.407   0.920  11.901 -0.5669 -0.3360  0.8067
12119TIP3    H157772   2.403   0.947  11.993 -0.5532 -2.1700  1.3801
12119TIP3    H257773   2.374   0.831  11.900 -1.4386 -0.0507 -1.1324
12120TIP3   OH257774   6.531   3.740  16.282 -1.0685 -0.0586  0.3939
12120TIP3    H157775   6.549   3.647  16.275  2.0181  0.3274  1.7408
12120TIP3    H257776   6.494   3.764  16.196 -0.3158 -2.1876 -0.5852
12121TIP3   OH257777   0.300   5.828  14.847 -0.1094  0.0782  0.1649
12121TIP3    H157778   0.352   5.898  14.808  0.4111  0.3543  1.3146
12121TIP3    H257779   0.230   5.812  14.783 -0.5782  2.0248  0.1074
12122TIP3   OH257780   1.510   2.822  16.987  0.0317  0.3219  0.5316
12122TIP3    H157781   1.415   2.824  16.978 -0.0599 -0.5204  1.2356
12122TIP3    H257782   1.525   2.795  17.077  0.9399 -1.1993 -0.0556
12123TIP3   OH257783   1.943   4.714  15.542 -0.1183  0.5519  0.2433
12123TIP3    H157784   1.908   4.737  15.455 -0.4584  0.6198  0.3963
12123TIP3    H257785   1.973   4.798  15.578  0.7503  0.4122 -0.1219
12124TIP3   OH257786   1.525   3.638  16.921 -0.1867  0.7826  0.6428
12124TIP3    H157787   1.518   3.557  16.971  1.0710  0.2713  0.0252
12124TIP3    H257788   1.434   3.666  16.908 -0.6369 -0.4247  1.0254
12125TIP3   OH257789   5.219   0.221  14.724 -0.1613  0.2941 -0.2558
12125TIP3    H157790   5.178   0.300  14.758  1.2974  1.4254 -1.0015
12125TIP3    H257791   5.146   0.164  14.701 -1.2293  0.4754  2.3676
12126TIP3   OH257792   0.775   6.230  14.763 -0.4072 -0.4481  0.6734
12126TIP3    H157793   0.706   6.290  14.734  1.5074  0.4438 -2.6031
12126TIP3    H257794   0.816   6.273  14.838 -0.9044  0.9503  0.1593
12127TIP3   OH257795   4.472   5.921  11.063  0.1812 -1.0397 -0.1553
12127TIP3    H157796   4.392   5.925  11.115 -0.0317 -1.7917 -0.4115
12127TIP3    H257797   4.513   5.838  11.089  2.1168  0.4058  1.7511
12128TIP3   OH257798   6.679   2.068   3.664  0.4599  0.2152 -0.2218
12128TIP3    H157799   6.654   2.114   3.584  0.6232  0.0681 -0.3596
12128TIP3    H257800   6.610   2.089   3.727  0.1267  0.0219 -0.5179
12129TIP3   OH257801   2.839   2.352  12.435 -0.4511  0.0967 -0.0899
12129TIP3    H157802   2.857   2.436  12.392 -1.1873  1.0228  1.3410
12129TIP3    H257803   2.794   2.375  12.516  0.7766 -1.5816  1.1562
12130TIP3   OH257804   0.014   5.114  16.130 -0.0335  0.5838  0.2895
12130TIP3    H157805   0.056   5.061  16.198 -0.3762  1.1556  0.9646
12130TIP3    H257806   0.016   5.203  16.166  1.6966  1.2750 -1.3697
12131TIP3   OH257807   2.592   4.969  13.269 -0.3571 -0.2069  0.3604
12131TIP3    H157808   2.671   4.987  13.320  1.1304  2.2883 -2.4427
12131TIP3    H257809   2.521   5.007  13.320  0.6163 -0.2944  1.8386
12132TIP3   OH257810   5.765   6.523   0.797 -0.5344 -0.2440 -0.5472
12132TIP3    H157811   5.695   6.580   0.828 -1.0942 -0.5554 -1.2182
12132TIP3    H257812   5.841   6.548   0.850 -1.3583 -0.5134  0.8150
12133TIP3   OH257813   6.548   4.267  14.951 -0.6311  0.0646  0.1388
12133TIP3    H157814   6.517   4.318  14.877  2.9006  2.0461 -0.2167
12133TIP3    H257815   6.529   4.322  15.027 -0.5281 -0.0078  0.2169
12134TIP3   OH257816   2.294   2.738  16.005 -0.1606 -0.0196  0.5354
12134TIP3    H157817   2.215   2.776  15.965 -0.6523 -0.6794  0.8483
12134TIP3    H257818   2.358   2.736  15.935 -0.4821  0.3652  0.2248
12135TIP3   OH257819   1.095   3.238   4.046 -0.4176  0.7520 -0.3735
12135TIP3    H157820   1.071   3.203   4.132 -0.0727  1.7316  0.1256
12135TIP3    H257821   1.126   3.161   3.998 -1.6049  0.0011  0.0056
12136TIP3   OH257822   6.090   0.019   4.669 -0.4631 -0.2944  0.1552
12136TIP3    H157823   6.121  -0.046   4.731 -0.3539 -0.0660  0.3428
12136TIP3    H257824   6.020  -0.024   4.621 -0.7661 -0.3632  0.6613
12137TIP3   OH257825   0.251   0.968  16.940 -0.1087  0.1369 -0.1378
12137TIP3    H157826   0.191   1.037  16.970  0.1219  0.4425 -0.3603
12137TIP3    H257827   0.198   0.912  16.884 -0.4577 -0.2424  0.5639
12138TIP3   OH257828   5.043   6.618   0.357 -0.2051 -0.3582 -0.1837
12138TIP3    H157829   4.991   6.651   0.430 -0.0898  0.4838 -0.4678
12138TIP3    H257830   4.989   6.637   0.279  0.5635  0.6450 -0.4932
12139TIP3   OH257831   6.389   2.427  14.562  0.1154  0.4334  0.3825
12139TIP3    H157832   6.472   2.471  14.582  0.6224  1.3240 -3.0452
12139TIP3    H257833   6.342   2.426  14.646  2.3268  2.5843  1.8072
12140TIP3   OH257834   3.534   4.728   5.864 -0.3715 -0.4843  0.2878
12140TIP3    H157835   3.569   4.801   5.916  0.7568  1.6266 -3.1148
12140TIP3    H257836   3.594   4.656   5.883  0.4014  0.3966  1.3939
12141TIP3   OH257837   0.372   2.810   0.582 -0.0152 -0.1050  0.0533
12141TIP3    H157838   0.440   2.753   0.548 -0.4083  0.1681 -1.2339
12141TIP3    H257839   0.399   2.828   0.672  0.5224 -1.6552  0.2297
12142TIP3   OH257840   1.300   0.184   3.872  0.2092 -0.2848 -0.0422
12142TIP3    H157841   1.352   0.255   3.911 -1.4467  1.0143 -0.1109
12142TIP3    H257842   1.219   0.184   3.922 -0.9926 -0.1696 -1.9256
12143TIP3   OH257843   4.683   4.860   5.152 -0.6033 -0.0342  0.2950
12143TIP3    H157844   4.765   4.845   5.199 -0.0628  2.2643  0.2041
12143TIP3    H257845   4.639   4.930   5.201 -0.7098  1.4114 -1.7205
12144TIP3   OH257846   4.202   4.267   4.562  0.1014 -0.1470 -0.0805
12144TIP3    H157847   4.244   4.220   4.490 -1.3600 -1.9704  0.1620
12144TIP3    H257848   4.259   4.342   4.579  1.5806 -0.8292 -1.7355
12145TIP3   OH257849   3.665   6.790   3.306 -0.1722 -0.3726  0.6774
12145TIP3    H157850   3.646   6.860   3.243 -0.1538 -0.8604  0.1288
12145TIP3    H257851   3.619   6.817   3.386 -0.5569  0.0282  0.3247
12146TIP3   OH257852   3.071   0.016  16.599 -0.5305 -0.7052  0.0621
12146TIP3    H157853   3.100   0.085  16.659  0.5306 -0.0751 -1.1007
12146TIP3    H257854   3.125  -0.060  16.622 -0.3953 -0.5798  0.1629
12147TIP3   OH257855   6.518   1.763  14.352  0.5590 -0.1097  0.4825
12147TIP3    H157856   6.498   1.715  14.271  0.6018 -1.4975  1.2581
12147TIP3    H257857   6.554   1.846  14.322 -0.3115 -0.2016 -0.9240
12148TIP3   OH257858   5.306   4.086   5.521 -0.1002 -0.4463 -0.3274
12148TIP3    H157859   5.274   4.019   5.461  3.7196 -3.2966  0.4539
12148TIP3    H257860   5.364   4.140   5.468 -0.1994 -0.1262 -0.1154
12149TIP3   OH257861   3.167   5.142  10.769 -0.3781  0.1239  0.1276
12149TIP3    H157862   3.183   5.115  10.679 -0.5683  0.5076 -0.0251
12149TIP3    H257863   3.106   5.077  10.804 -0.2005 -0.0983  0.0198
12150TIP3   OH257864   1.672   2.705   1.371  0.7091 -0.4732 -0.0733
12150TIP3    H157865   1.596   2.728   1.424  0.9357 -0.7634  0.3850
12150TIP3    H257866   1.669   2.610   1.365  1.5147 -0.5591  0.6832
12151TIP3   OH257867   2.668   5.624   4.167 -0.0840  0.1145 -0.5596
12151TIP3    H157868   2.593   5.682   4.176 -1.8488 -2.1182 -0.0379
12151TIP3    H257869   2.647   5.570   4.091  1.2350 -0.2461 -0.6918
12152TIP3   OH257870   3.651   0.135   0.755  0.0778  0.1501 -0.5576
12152TIP3    H157871   3.596   0.066   0.719  0.5002 -0.7818  0.5233
12152TIP3    H257872   3.606   0.162   0.835 -2.5717  4.4181 -3.1101
12153TIP3   OH257873   0.659   2.080   5.429  0.1500 -0.1444 -0.2124
12153TIP3    H157874   0.593   2.148   5.423 -0.5482 -0.7288  0.6211
12153TIP3    H257875   0.689   2.067   5.339 -1.3844 -0.3724 -0.7148
12154TIP3   OH257876   0.961   0.912  13.993  0.2198 -0.4377  0.2324
12154TIP3    H157877   0.900   0.985  13.997 -0.2354 -0.7322 -0.9152
12154TIP3    H257878   0.974   0.896  13.899  0.1260 -1.9593  0.4452
12155TIP3   OH257879   3.530   5.683   4.369 -0.0977  0.2162 -0.7577
12155TIP3    H157880   3.605   5.626   4.350  0.2835  0.1283  0.8353
12155TIP3    H257881   3.477   5.632   4.430  0.1192  1.4506  0.4999
12156TIP3   OH257882   4.921   2.190   4.075  0.0075  0.2741 -0.4157
12156TIP3    H157883   4.995   2.148   4.117  0.7002  0.2334 -1.6270
12156TIP3    H257884   4.845   2.162   4.126  0.9600  1.9890  2.1683
12157TIP3   OH257885   3.509   0.005  12.789  0.0049  0.4928 -0.0425
12157TIP3    H157886   3.527  -0.089  12.788  0.2219  0.5375 -0.2502
12157TIP3    H257887   3.589   0.046  12.757 -0.5535  0.6653 -1.2746
12158TIP3   OH257888   2.773   5.003   2.544  0.1898 -0.0844  0.1080
12158TIP3    H157889   2.724   5.066   2.597  1.4693  0.1785  1.0257
12158TIP3    H257890   2.767   4.921   2.593  1.1748  0.0997  0.5412
12159TIP3   OH257891   1.780   3.762   3.405 -0.2515  0.1344  0.0103
12159TIP3    H157892   1.691   3.792   3.387  0.2201  1.4563 -0.2567
12159TIP3    H257893   1.835   3.837   3.381  0.8136 -0.0838  1.6569
12160TIP3   OH257894   6.534   5.046   1.001 -0.0230  0.0116 -0.5675
12160TIP3    H157895   6.501   5.068   1.088  0.3540 -0.2719 -0.3554
12160TIP3    H257896   6.572   4.959   1.010  1.8145  0.7787 -0.5370
12161TIP3   OH257897   1.095   6.201  12.845  0.3930 -0.0255 -0.0379
12161TIP3    H157898   1.039   6.124  12.836 -1.2676  1.0601  0.4569
12161TIP3    H257899   1.037   6.269  12.881  1.7433  1.5013 -0.6040
12162TIP3   OH257900   0.983   0.413   5.612  0.0923 -0.0264  0.0575
12162TIP3    H157901   0.965   0.442   5.701 -0.0583 -1.8426  0.6584
12162TIP3    H257902   1.077   0.430   5.600  0.1792 -0.0493  0.6769
12163TIP3   OH257903   3.737   1.075  12.000  0.3756  0.2394  0.3532
12163TIP3    H157904   3.689   0.997  12.029 -0.8185  0.3158 -1.2802
12163TIP3    H257905   3.775   1.111  12.081 -1.6793 -0.2680  1.6272
12164TIP3   OH257906   6.570   3.194   4.431  0.7601 -0.3333 -0.0369
12164TIP3    H157907   6.536   3.187   4.342 -0.3901  0.8925  0.2782
12164TIP3    H257908   6.517   3.132   4.481 -1.3097  1.7039  0.4897
12165TIP3   OH257909   2.063   0.900  12.951  1.0241 -0.2482  0.3276
12165TIP3    H157910   2.031   0.861  12.870  0.8794  0.1531  0.1863
12165TIP3    H257911   2.110   0.979  12.922  1.3904 -0.3638  0.5972
12166TIP3   OH257912   0.823   0.021   2.895 -0.4059  0.3972  0.1502
12166TIP3    H157913   0.916  -0.002   2.896 -0.4498  0.2300  0.4049
12166TIP3    H257914   0.788  -0.019   2.974 -0.5473  1.1020  0.4438
12167TIP3   OH257915   0.105   0.676  15.318  0.3347  0.2607  0.2010
12167TIP3    H157916   0.046   0.727  15.263  0.1246 -0.7110 -0.4994
12167TIP3    H257917   0.107   0.589  15.278  2.8142  0.4415 -0.2356
12168TIP3   OH257918   5.124   5.082   3.410  0.0869 -0.3895 -0.0994
12168TIP3    H157919   5.122   5.012   3.344  0.3985 -0.4216 -0.0746
12168TIP3    H257920   5.032   5.100   3.428 -0.0133  0.0268 -0.9747
12169TIP3   OH257921   1.853   3.106   0.861 -0.3621 -0.2583 -0.3085
12169TIP3    H157922   1.781   3.138   0.806 -0.1822  1.1029  0.2274
12169TIP3    H257923   1.926   3.164   0.841 -0.3220  0.3349  1.4338
12170TIP3   OH257924   1.673   1.290  16.765  0.0395  0.0709  0.5457
12170TIP3    H157925   1.768   1.292  16.752 -0.0816 -2.8775 -2.1574
12170TIP3    H257926   1.642   1.372  16.727  1.3281 -0.5485 -2.1000
12171TIP3   OH257927   2.868   6.806   0.961  0.2090  0.4011 -0.1578
12171TIP3    H157928   2.948   6.835   1.004  0.2847 -0.4946  0.3315
12171TIP3    H257929   2.798   6.854   1.005  0.3845  0.3391  0.1909
12172TIP3   OH257930   6.283   4.343   0.989 -0.3011  0.6115 -0.7456
12172TIP3    H157931   6.358   4.385   0.948  1.2328  0.0373  1.2916
12172TIP3    H257932   6.234   4.304   0.917  1.4971  0.7725 -2.1158
12173TIP3   OH257933   0.933   6.739  14.211  0.1079  0.0967 -0.3154
12173TIP3    H157934   0.995   6.686  14.261 -1.0446 -2.3008 -1.2410
12173TIP3    H257935   0.850   6.727  14.256 -0.5619 -0.5347 -1.6389
12174TIP3   OH257936   5.502   3.715   5.292 -0.3396 -0.7687 -0.3432
12174TIP3    H157937   5.432   3.652   5.310 -1.9472  0.4171 -2.1692
12174TIP3    H257938   5.527   3.698   5.201 -0.4730  0.9094 -0.7101
12175TIP3   OH257939   4.512   5.050  11.923  0.3089 -0.2770 -0.1149
12175TIP3    H157940   4.501   5.094  11.839 -0.5572  0.4561  0.3672
12175TIP3    H257941   4.569   5.108  11.974  1.5925 -1.1597 -0.4921
12176TIP3   OH257942   3.066   0.270   4.513  0.0166 -0.2879  0.1772
12176TIP3    H157943   3.120   0.325   4.570 -1.3495  0.4015  0.8662
12176TIP3    H257944   2.993   0.243   4.569 -0.8738 -0.3631 -0.9871
12177TIP3   OH257945   1.060   1.547  14.974  0.0443 -0.0755  0.1480
12177TIP3    H157946   0.995   1.599  14.928  1.4963  0.5786 -1.2531
12177TIP3    H257947   1.082   1.598  15.052 -0.8313 -0.1233  0.4308
12178TIP3   OH257948   0.775   0.980   3.005  0.7344 -0.8526  0.1150
12178TIP3    H157949   0.814   0.893   3.013  0.2124 -1.2831 -1.5978
12178TIP3    H257950   0.711   0.983   3.076 -1.5640 -3.2061 -1.6460
12179TIP3   OH257951   0.855   3.405   3.943  0.1631  1.5770 -0.1584
12179TIP3    H157952   0.800   3.329   3.921 -1.2419  2.7937 -1.0933
12179TIP3    H257953   0.923   3.370   4.000 -0.3885 -0.3963 -0.6291
12180TIP3   OH257954   5.797   5.507   2.936 -0.7957  0.1585  0.2260
12180TIP3    H157955   5.789   5.471   3.024 -1.7373 -2.2944 -0.7410
12180TIP3    H257956   5.721   5.563   2.926 -0.3190  1.0018  1.1738
12181TIP3   OH257957   2.461   4.076  15.239  0.5856  0.0230  0.2686
12181TIP3    H157958   2.375   4.043  15.213 -0.0437  0.6362  1.4391
12181TIP3    H257959   2.508   4.000  15.272  0.3294 -0.2430  0.0188
12182TIP3   OH257960   0.060   1.542   4.231 -0.0339  0.4484 -0.7167
12182TIP3    H157961  -0.023   1.583   4.255 -1.5654 -2.1639 -1.1145
12182TIP3    H257962   0.098   1.514   4.314 -1.5277 -1.7286 -0.6794
12183TIP3   OH257963   1.114   6.105   1.972  0.2937 -0.0966  0.1059
12183TIP3    H157964   1.082   6.179   2.022 -1.5664 -1.5532  1.1935
12183TIP3    H257965   1.209   6.108   1.984  0.0415  0.4102  2.6356
12184TIP3   OH257966   4.020   1.902  10.534  0.0144 -0.2203 -0.3241
12184TIP3    H157967   4.070   1.936  10.460 -0.1625  0.9723  0.0858
12184TIP3    H257968   4.072   1.925  10.611 -0.2563 -0.6253 -0.0124
12185TIP3   OH257969   1.688   3.592   5.537 -0.1375 -0.0417 -0.4464
12185TIP3    H157970   1.745   3.531   5.585  1.4200  1.2543 -0.5520
12185TIP3    H257971   1.607   3.543   5.522  0.1640 -1.2491  1.5427
12186TIP3   OH257972   4.142   4.477  14.035  0.1324  0.3272 -0.1887
12186TIP3    H157973   4.104   4.530  14.105  1.2055  1.1258 -0.1805
12186TIP3    H257974   4.068   4.450  13.982 -0.6884 -0.1640  1.1562
12187TIP3   OH257975   3.888   4.265  16.037 -0.1047 -0.4238  0.0122
12187TIP3    H157976   3.895   4.331  15.968  0.6994 -2.2073 -1.6966
12187TIP3    H257977   3.965   4.280  16.092  0.0545  0.0711 -0.3411
12188TIP3   OH257978   3.100   2.544  16.432 -0.4152  0.9472 -0.0867
12188TIP3    H157979   3.005   2.543  16.421 -0.2533 -1.2270 -2.1319
12188TIP3    H257980   3.125   2.452  16.435  1.7162  1.4513 -0.5664
12189TIP3   OH257981   4.133   5.314  15.087 -0.0651  0.4091  0.2731
12189TIP3    H157982   4.228   5.309  15.097  0.0346  0.8116 -0.4035
12189TIP3    H257983   4.105   5.375  15.155  0.3461  1.4469 -0.4589
12190TIP3   OH257984   0.046   3.016  16.297 -0.1228  0.6882 -0.3289
12190TIP3    H157985   0.056   3.022  16.392  0.7391  0.4174 -0.3934
12190TIP3    H257986   0.073   3.102  16.264  2.8638 -0.2062 -0.5431
12191TIP3   OH257987   2.649   3.835   5.698 -0.4023 -0.3751  0.0551
12191TIP3    H157988   2.664   3.861   5.789  0.9747 -3.2893  0.7981
12191TIP3    H257989   2.737   3.816   5.664 -0.7090  2.1274 -2.4672
12192TIP3   OH257990   5.962   4.623   3.132 -0.3663 -0.5533 -0.0263
12192TIP3    H157991   5.908   4.623   3.053  0.2251  1.0902 -0.4666
12192TIP3    H257992   5.977   4.530   3.151 -1.4179 -0.9891 -1.2103
12193TIP3   OH257993   2.840   3.708   4.495 -0.6854  0.5937  0.0908
12193TIP3    H157994   2.840   3.711   4.591 -3.8758  0.9273  0.1694
12193TIP3    H257995   2.786   3.632   4.473  0.7048 -0.0022 -1.5053
12194TIP3   OH257996   5.430   2.244   0.127 -0.3700 -0.3028  0.5238
12194TIP3    H157997   5.518   2.256   0.091 -0.4202 -0.9466  0.1734
12194TIP3    H257998   5.444   2.211   0.216 -0.2389  1.6863  1.2913
12195TIP3   OH257999   1.322   6.262  16.166  0.1345 -0.3859 -0.4230
12195TIP3    H158000   1.296   6.226  16.251 -0.9096 -2.9437 -1.7275
12195TIP3    H258001   1.403   6.215  16.145  0.6188  0.5444 -0.6828
12196TIP3   OH258002   4.650   5.467  16.858 -0.0025 -0.5508 -0.3866
12196TIP3    H158003   4.579   5.465  16.922  1.5584 -1.1317  1.4168
12196TIP3    H258004   4.704   5.542  16.885  1.2301 -1.4177 -0.3888
12197TIP3   OH258005   0.844   3.807   5.268 -0.6366  0.4672  0.1567
12197TIP3    H158006   0.867   3.765   5.351  3.4130  0.0500 -0.9683
12197TIP3    H258007   0.773   3.754   5.233  1.6562 -3.3050  0.6098
12198TIP3   OH258008   6.669   3.212   0.312 -0.0541 -0.6897  0.0115
12198TIP3    H158009   6.649   3.238   0.402 -2.8046 -1.0397 -0.4190
12198TIP3    H258010   6.755   3.170   0.318  0.4857  0.5758  2.1869
12199TIP3   OH258011   4.481   1.354   0.615  0.0536 -0.5979  0.6388
12199TIP3    H158012   4.576   1.364   0.629  0.6551 -1.4431 -2.1360
12199TIP3    H258013   4.443   1.436   0.648  1.8955  0.2574  0.7765
12200TIP3   OH258014   0.857   0.211  11.294 -0.0504  0.3732 -0.1039
12200TIP3    H158015   0.814   0.229  11.377  0.3736 -1.9617  0.6898
12200TIP3    H258016   0.927   0.276  11.289  1.4663 -0.8670  2.5977
12201TIP3   OH258017   3.148   2.466   2.209  0.2948 -0.2319 -0.5166
12201TIP3    H158018   3.140   2.437   2.299  1.2353 -3.1385 -1.2566
12201TIP3    H258019   3.064   2.443   2.169 -1.3281  3.7679  0.1364
12202TIP3   OH258020   1.891   4.959  11.584 -0.0755  0.0117 -0.3567
12202TIP3    H158021   1.844   5.028  11.537 -1.9890 -0.3000  1.0222
12202TIP3    H258022   1.857   4.877  11.546  1.3923 -0.2380 -1.2272
12203TIP3   OH258023   5.845   1.473   1.049 -0.1694  0.2657  0.4846
12203TIP3    H158024   5.797   1.461   0.967 -0.3447  1.4793  0.3865
12203TIP3    H258025   5.859   1.384   1.082 -1.7742 -0.1570  0.1094
12204TIP3   OH258026   4.600   0.590  12.571  0.1563  0.3004 -0.2183
12204TIP3    H158027   4.694   0.599  12.552 -0.0583  0.5709 -1.2320
12204TIP3    H258028   4.565   0.678  12.557 -0.2078  0.2756  0.4788
12205TIP3   OH258029   0.829   4.314   0.505 -0.6519 -0.3937 -0.5971
12205TIP3    H158030   0.777   4.296   0.583  1.7014 -0.7876  0.9853
12205TIP3    H258031   0.874   4.232   0.486  1.8143  0.7082  0.0817
12206TIP3   OH258032   4.049   0.493  12.576  0.5742 -1.3127  0.3701
12206TIP3    H158033   4.056   0.515  12.669  1.2933 -1.7198  0.4189
12206TIP3    H258034   4.005   0.568  12.537 -0.1430 -1.3358  1.1119
12207TIP3   OH258035   6.620   4.913  15.776  0.2179 -0.7740 -0.0866
12207TIP3    H158036   6.715   4.909  15.761  0.1301  0.3975 -1.0746
12207TIP3    H258037   6.588   4.826  15.752  1.0851 -1.3372  0.7083
12208TIP3   OH258038   1.993   0.976   1.435 -0.1861 -0.2996  0.4536
12208TIP3    H158039   1.962   0.980   1.525  0.7167  1.4221  0.7306
12208TIP3    H258040   1.915   0.955   1.384 -1.5517  2.3241  1.2946
12209TIP3   OH258041   4.929   6.289   4.111 -0.1719 -0.1100  0.3750
12209TIP3    H158042   4.924   6.249   4.198  0.9299  1.0312  0.9984
12209TIP3    H258043   5.018   6.272   4.082 -0.9930 -1.9019 -1.2980
12210TIP3   OH258044   5.451   6.126   0.343 -0.5882 -0.1760  0.3411
12210TIP3    H158045   5.433   6.034   0.364  0.8449 -0.2713  1.3134
12210TIP3    H258046   5.460   6.168   0.428  0.2177  0.5607 -0.0950
12211TIP3   OH258047   4.073   6.090  16.733 -0.5396  0.3451 -0.1241
12211TIP3    H158048   4.121   6.148  16.674 -2.9888 -0.3486 -3.1082
12211TIP3    H258049   4.105   6.003  16.712 -0.6129  0.1790  0.4439
12212TIP3   OH258050   6.112   1.867   3.728  0.2229 -0.0709 -0.0182
12212TIP3    H158051   6.130   1.926   3.801  0.5972 -0.7680  0.4636
12212TIP3    H258052   6.177   1.890   3.662  1.0464 -0.6477  0.5841
12213TIP3   OH258053   1.800   5.380  15.924 -0.1569 -0.5454  0.0519
12213TIP3    H158054   1.758   5.463  15.948  0.2232 -0.7827  1.5966
12213TIP3    H258055   1.860   5.404  15.852 -2.1461 -0.0399 -1.5313
12214TIP3   OH258056   4.533   6.693   4.420 -0.3796 -0.3780 -0.4604
12214TIP3    H158057   4.519   6.640   4.498  0.3053 -0.4249 -0.3629
12214TIP3    H258058   4.492   6.643   4.349  1.4562 -1.7617 -0.6181
12215TIP3   OH258059   1.649   4.951  16.522  0.3987  0.2302 -0.0705
12215TIP3    H158060   1.706   4.956  16.445 -0.2183 -0.4508 -0.5972
12215TIP3    H258061   1.561   4.963  16.487  0.1839  0.8999  0.6788
12216TIP3   OH258062   2.200   1.122  11.691  0.5914  0.1427 -0.6918
12216TIP3    H158063   2.276   1.065  11.673  0.4801 -0.4670  0.6268
12216TIP3    H258064   2.152   1.124  11.609  1.4286 -0.4157 -1.2177
12217TIP3   OH258065   0.166   2.804   2.539 -0.0749  0.6547  0.0577
12217TIP3    H158066   0.198   2.894   2.535 -0.6042  0.8254 -0.5995
12217TIP3    H258067   0.101   2.798   2.469  0.6686 -0.5216 -0.5818
12218TIP3   OH258068   5.430   2.510  13.448 -0.1405  0.0381  0.3414
12218TIP3    H158069   5.381   2.482  13.525  1.1749 -0.6196  0.9814
12218TIP3    H258070   5.384   2.588  13.416 -0.4923  0.5428  2.0163
12219TIP3   OH258071   3.668   2.801  16.849 -0.1879  0.3802 -0.0456
12219TIP3    H158072   3.631   2.743  16.783  0.0909  1.2419 -0.9866
12219TIP3    H258073   3.625   2.885  16.834  0.4532  0.7851  0.3516
12220TIP3   OH258074   6.499   5.601   1.624  0.3737 -0.1198 -0.3923
12220TIP3    H158075   6.575   5.658   1.612  0.2678  0.2330  0.5689
12220TIP3    H258076   6.514   5.557   1.708  0.1046 -0.9793 -0.7754
12221TIP3   OH258077   6.525   4.266  13.620 -0.0448 -0.1075 -0.4349
12221TIP3    H158078   6.537   4.291  13.712  0.2132  1.4519 -0.8559
12221TIP3    H258079   6.499   4.174  13.623  0.0386 -0.1074  1.1918
12222TIP3   OH258080   3.406   4.065  15.800  0.0210 -0.0544 -0.5839
12222TIP3    H158081   3.313   4.069  15.781 -0.1456 -2.1879 -0.4800
12222TIP3    H258082   3.421   4.135  15.864 -1.1126  1.4790 -1.9122
12223TIP3   OH258083   0.386   1.648   2.494 -0.0696 -0.5517  0.1213
12223TIP3    H158084   0.357   1.737   2.510 -1.1229 -1.2749  2.7827
12223TIP3    H258085   0.482   1.653   2.498  0.1575  0.9807 -3.5624
12224TIP3   OH258086   2.100   4.126   4.577  0.1399 -0.0999 -0.2616
12224TIP3    H158087   2.117   4.096   4.666  2.7755 -0.1610 -0.7162
12224TIP3    H258088   2.107   4.047   4.523  2.3048  0.4537 -0.8992
12225TIP3   OH258089   0.650   4.404  11.054  0.5024 -0.6978  0.2961
12225TIP3    H158090   0.601   4.323  11.068  2.5017 -2.4622 -1.9658
12225TIP3    H258091   0.695   4.391  10.970 -0.1345  3.3548 -0.9201
12226TIP3   OH258092   3.783   4.188  15.754  0.2075 -0.3011 -0.2011
12226TIP3    H158093   3.818   4.185  15.665  0.0355 -1.7792 -0.2314
12226TIP3    H258094   3.850   4.146  15.808 -0.7282 -1.5766  0.0002
12227TIP3   OH258095   0.182   2.601  16.278 -0.5472 -0.2617  0.5322
12227TIP3    H158096   0.113   2.666  16.266 -0.1489  0.1509  0.4669
12227TIP3    H258097   0.201   2.570  16.189 -0.0466  0.2509  0.4600
12228TIP3   OH258098   1.812   3.676  16.020  0.9492  1.1272  0.4088
12228TIP3    H158099   1.800   3.582  16.039 -2.5580  1.5177  0.6664
12228TIP3    H258100   1.777   3.688  15.932  1.0418  2.2726  0.5133
12229TIP3   OH258101   0.812   3.464   3.658  0.8053  0.2999 -0.1099
12229TIP3    H158102   0.803   3.558   3.672  0.8416  0.5802 -1.7274
12229TIP3    H258103   0.837   3.429   3.743  1.9724  1.9120  0.2501
12230TIP3   OH258104   5.097   6.193  14.130 -0.4660  0.6549 -0.1830
12230TIP3    H158105   5.096   6.263  14.195 -1.7948  0.3340  0.1918
12230TIP3    H258106   5.167   6.216  14.070  0.2720  1.3850  0.9160
12231TIP3   OH258107   1.607   5.155  11.610  0.2247  0.1713 -0.1781
12231TIP3    H158108   1.602   5.243  11.646 -1.4425  0.8013 -1.8394
12231TIP3    H258109   1.663   5.164  11.533  0.6726 -0.4139  0.0642
12232TIP3   OH258110   1.179   2.242  13.045 -0.3647  0.0761 -0.2419
12232TIP3    H158111   1.202   2.250  13.138  0.7492 -1.2088 -0.3779
12232TIP3    H258112   1.113   2.173  13.042  0.1040 -0.3637 -0.4750
12233TIP3   OH258113   3.018   0.394   0.294  0.0894  0.0913 -0.6172
12233TIP3    H158114   2.925   0.417   0.303 -0.1200 -0.9435  0.0501
12233TIP3    H258115   3.055   0.412   0.380 -0.5688 -3.9881  0.7090
12234TIP3   OH258116   5.082   0.885   1.172 -0.2847  0.3656  0.1504
12234TIP3    H158117   5.049   0.891   1.082 -2.3864 -0.2236  0.8063
12234TIP3    H258118   5.118   0.971   1.191 -0.7454  0.8155 -0.9252
12235TIP3   OH258119   4.239   5.408  15.763  0.2652  0.3053  0.2026
12235TIP3    H158120   4.199   5.460  15.833 -0.3916  0.1345 -0.0424
12235TIP3    H258121   4.325   5.384  15.798  0.1387  0.6270  0.7564
12236TIP3   OH258122   1.081   3.195  14.303 -0.1155 -0.2453  0.1304
12236TIP3    H158123   1.096   3.102  14.319 -1.0146 -0.4690 -0.2486
12236TIP3    H258124   1.134   3.216  14.226 -0.4085 -0.6027 -0.1701
12237TIP3   OH258125   3.144   3.936   5.186 -0.1181 -0.1242  0.1701
12237TIP3    H158126   3.221   3.927   5.130 -0.4063  0.7167 -0.3794
12237TIP3    H258127   3.142   3.855   5.237  0.5533 -0.5960 -0.5280
12238TIP3   OH258128   1.909   3.186   0.464  0.1807  0.5711 -0.5401
12238TIP3    H158129   1.991   3.212   0.506 -0.9856  1.8464  1.0681
12238TIP3    H258130   1.919   3.092   0.448  2.8228  1.0476 -2.4949
12239TIP3   OH258131   1.656   6.787  13.585 -0.5909 -0.3872 -0.2238
12239TIP3    H158132   1.738   6.767  13.631  0.0417 -0.9598 -1.5324
12239TIP3    H258133   1.623   6.866  13.628  0.1317 -0.6993  0.9675
12240TIP3   OH258134   6.178   5.317   1.308 -0.2689  0.0721  0.0634
12240TIP3    H158135   6.230   5.239   1.289  0.3367  0.6211 -0.6122
12240TIP3    H258136   6.161   5.312   1.402  1.2025 -0.0183  0.3515
12241TIP3   OH258137   4.806   5.643  13.467  0.1553 -0.2695 -0.5782
12241TIP3    H158138   4.800   5.715  13.530 -0.8656  0.3384 -1.3426
12241TIP3    H258139   4.885   5.595  13.493  0.4267  0.6732  0.4115
12242TIP3   OH258140   3.576   2.148  16.717  0.3318 -0.5206 -0.3179
12242TIP3    H158141   3.565   2.133  16.811 -1.6256  0.6604 -0.3012
12242TIP3    H258142   3.640   2.219  16.711 -0.4113  0.2221  0.2200
12243TIP3   OH258143   4.746   0.297   3.756  0.0623 -0.1237 -0.5756
12243TIP3    H158144   4.772   0.368   3.815  1.2456  1.4578 -2.8175
12243TIP3    H258145   4.806   0.225   3.778  1.7768  1.0953 -1.0561
12244TIP3   OH258146   0.991   1.260  14.226  0.1191 -0.4708  0.1801
12244TIP3    H158147   1.080   1.262  14.261 -0.5149 -3.0682  2.2357
12244TIP3    H258148   0.950   1.339  14.261  1.1794 -0.0001  0.3999
12245TIP3   OH258149   5.492   5.930   5.530  0.4885 -0.6625  0.5085
12245TIP3    H158150   5.433   5.946   5.604 -1.2812 -3.7483 -0.0854
12245TIP3    H258151   5.506   6.017   5.491  0.7350  0.9180  3.8127
12246TIP3   OH258152   6.607   1.553  16.989 -0.5117 -0.3487 -0.0964
12246TIP3    H158153   6.556   1.604  17.053 -0.0633 -1.5986  1.3130
12246TIP3    H258154   6.640   1.478  17.039  1.0119 -0.6532 -1.4705
12247TIP3   OH258155   5.634   1.453  13.265 -0.3671  0.3254  0.0711
12247TIP3    H158156   5.570   1.386  13.289 -1.4401  0.8692 -1.1792
12247TIP3    H258157   5.589   1.536  13.283  0.7873  0.7345  1.1989
12248TIP3   OH258158   3.407   3.179  11.458 -0.2278  0.1365  0.0794
12248TIP3    H158159   3.475   3.242  11.436  1.0149 -1.2450 -0.1837
12248TIP3    H258160   3.413   3.170  11.553  0.5533 -0.5963 -0.0258
12249TIP3   OH258161   2.831   0.001   4.019 -0.3977 -0.5082  0.4831
12249TIP3    H158162   2.893   0.040   4.080 -2.1478  0.4651  1.7165
12249TIP3    H258163   2.834   0.059   3.943 -1.2409  0.7249  1.3564
12250TIP3   OH258164   6.306   5.759  13.712 -0.2916 -0.0236 -0.7855
12250TIP3    H158165   6.365   5.746  13.637  0.4553 -0.8988 -0.0719
12250TIP3    H258166   6.241   5.822  13.681 -1.0079 -1.6347 -2.7579
12251TIP3   OH258167   0.988   4.390   1.274  0.1856 -0.1123 -0.1173
12251TIP3    H158168   1.058   4.329   1.296  0.8758  0.8074  0.2731
12251TIP3    H258169   0.929   4.339   1.218  2.8096 -0.0330 -3.2568
12252TIP3   OH258170   5.346   1.879  15.980 -0.1311  0.4105 -0.7853
12252TIP3    H158171   5.329   1.785  15.981  0.3746  0.3053  0.9726
12252TIP3    H258172   5.380   1.896  15.892 -1.8192 -0.7258 -1.7034
12253TIP3   OH258173   6.297   2.638   4.902  0.4080  0.0075  0.1934
12253TIP3    H158174   6.345   2.702   4.956  0.2087  0.0408  0.3358
12253TIP3    H258175   6.336   2.645   4.815  2.2934 -1.6523  0.8302
12254TIP3   OH258176   3.028   2.767   4.265  0.1999  0.3950 -1.1984
12254TIP3    H158177   3.019   2.758   4.170 -2.7207 -0.0863 -0.9488
12254TIP3    H258178   3.034   2.862   4.279  1.6504  0.4425 -1.8616
12255TIP3   OH258179   6.595   6.071  10.774 -0.3953  0.1349 -0.1498
12255TIP3    H158180   6.516   6.026  10.744 -1.9052  1.8919  0.9831
12255TIP3    H258181   6.577   6.094  10.865  1.2261  1.0462 -0.0213
12256TIP3   OH258182   3.475   6.134   3.307 -0.4884 -0.3984 -0.1420
12256TIP3    H158183   3.548   6.146   3.245 -0.5179 -0.0261 -0.1079
12256TIP3    H258184   3.461   6.040   3.309  0.2781 -0.5118  0.1810
12257TIP3   OH258185   0.702   3.867   4.671  0.3086  0.5935  0.3094
12257TIP3    H158186   0.631   3.921   4.638 -0.7383 -0.8559  0.0845
12257TIP3    H258187   0.743   3.831   4.592 -0.2136 -0.4068  0.4731
12258TIP3   OH258188   5.870   2.527   4.809  0.2055  0.5669 -0.2853
12258TIP3    H158189   5.841   2.446   4.768  1.3333 -0.1067  0.2206
12258TIP3    H258190   5.868   2.592   4.738 -1.0385  0.2143 -0.6125
12259TIP3   OH258191   1.745   4.957  15.733  0.3330 -0.0686  0.5332
12259TIP3    H158192   1.800   4.969  15.810  0.2601  2.8533  0.2522
12259TIP3    H258193   1.777   5.022  15.670 -1.8356  0.0324 -0.5725
12260TIP3   OH258194   6.714   2.261   4.901 -0.4356  0.2841  0.0654
12260TIP3    H158195   6.752   2.344   4.927 -1.3930  1.0009 -0.7329
12260TIP3    H258196   6.754   2.241   4.816 -1.5503  0.8920 -0.6363
12261TIP3   OH258197   3.648   6.056   5.642  0.6946  0.8141  0.6320
12261TIP3    H158198   3.591   6.120   5.599 -1.5104 -2.8048 -2.4843
12261TIP3    H258199   3.597   6.025   5.717  0.3712  0.4720  0.2708
12262TIP3   OH258200   1.398   0.388   3.016  0.0225  0.4358 -0.1166
12262TIP3    H158201   1.372   0.437   2.938  0.6324  0.6652 -0.1882
12262TIP3    H258202   1.374   0.445   3.089 -1.2394 -0.1026 -0.0821
12263TIP3   OH258203   1.554   1.203   2.297 -0.0426  0.3816 -0.0107
12263TIP3    H158204   1.646   1.231   2.297 -0.2594  1.1334 -0.2625
12263TIP3    H258205   1.558   1.108   2.294  0.7371  0.3142  1.8008
12264TIP3   OH258206   2.334   0.107   1.749 -0.8387 -0.0513  0.7282
12264TIP3    H158207   2.307   0.018   1.727 -1.9537  0.1055  1.4188
12264TIP3    H258208   2.265   0.163   1.715 -1.2160  0.3859  2.1527
12265TIP3   OH258209   3.659   1.905  16.581 -0.2098  0.0377  0.0344
12265TIP3    H158210   3.660   1.919  16.487  5.2559 -0.0605 -0.2100
12265TIP3    H258211   3.632   1.989  16.618  2.4842  1.8122 -1.7126
12266TIP3   OH258212   4.344   0.701   2.215  0.3392 -0.0409 -0.1707
12266TIP3    H158213   4.413   0.731   2.156 -0.4530  0.3710 -0.9058
12266TIP3    H258214   4.343   0.766   2.286  0.5376  0.0855 -0.2835
12267TIP3   OH258215   6.151   4.824  16.308 -0.1107 -0.1769  0.1055
12267TIP3    H158216   6.059   4.810  16.285  0.1153 -0.2712 -0.7588
12267TIP3    H258217   6.196   4.836  16.224  0.8039 -0.9613  0.4604
12268TIP3   OH258218   5.734   3.464  15.245 -0.0913  0.1157 -0.0097
12268TIP3    H158219   5.780   3.429  15.321  0.2742  0.1826 -0.1985
12268TIP3    H258220   5.677   3.392  15.216 -1.1493  0.4955  1.0513
12269TIP3   OH258221   0.862   3.485   0.299  0.1521  0.5236 -0.4379
12269TIP3    H158222   0.929   3.494   0.231  0.1963 -0.8973 -0.6169
12269TIP3    H258223   0.849   3.390   0.307 -0.8796  0.7292  0.5357
12270TIP3   OH258224   6.617   4.574  15.881  0.1117  0.1244  0.7797
12270TIP3    H158225   6.577   4.560  15.795  0.2863  0.8493  0.5747
12270TIP3    H258226   6.710   4.587  15.862 -0.2077  2.9747  0.7762
12271TIP3   OH258227   2.049   3.857   4.489 -0.3262 -0.1039  0.7185
12271TIP3    H158228   2.095   3.779   4.520 -0.6080 -0.3320  0.5658
12271TIP3    H258229   1.972   3.823   4.444  0.5445  0.1651 -1.0685
12272TIP3   OH258230   6.507   2.354   3.722  0.1315 -0.3570 -0.0727
12272TIP3    H158231   6.588   2.376   3.677  2.2239 -3.2737  1.9460
12272TIP3    H258232   6.450   2.320   3.653  0.9165  0.8383 -1.3758
12273TIP3   OH258233   1.876   2.003  15.464 -0.0725 -0.1051  0.5374
12273TIP3    H158234   1.789   1.973  15.438  0.1707 -1.1178  0.8662
12273TIP3    H258235   1.865   2.036  15.553  0.0221 -0.8864  0.8388
12274TIP3   OH258236   4.900   2.279  14.733  0.2986  0.7454 -0.3304
12274TIP3    H158237   4.993   2.262  14.721  0.1382 -1.8753  1.2100
12274TIP3    H258238   4.857   2.217  14.674 -0.4583  0.7480  0.2085
12275TIP3   OH258239   5.056   3.805  12.460 -0.2159  0.1608 -0.2056
12275TIP3    H158240   5.072   3.859  12.537 -1.6678 -1.1325  1.0715
12275TIP3    H258241   5.018   3.724  12.495 -1.1354 -0.3815 -2.3132
12276TIP3   OH258242   2.746   3.889  13.931 -0.4528  0.0351 -0.0066
12276TIP3    H158243   2.686   3.828  13.973  1.0502 -1.0933  0.5996
12276TIP3    H258244   2.796   3.927  14.003  1.0816 -0.7410 -0.6099
12277TIP3   OH258245   4.938   1.331  14.792 -0.4174  0.4243 -0.1312
12277TIP3    H158246   4.868   1.314  14.729 -0.1170  0.3497 -0.4460
12277TIP3    H258247   4.897   1.318  14.877 -0.7149  0.1073 -0.3227
12278TIP3   OH258248   4.650   3.788   3.196  0.7550  0.1142 -0.0380
12278TIP3    H158249   4.720   3.737   3.238  0.1806 -0.0868  0.7014
12278TIP3    H258250   4.641   3.866   3.251 -1.4192 -1.1189  1.5081
12279TIP3   OH258251   5.458   5.304   2.207  0.6513 -0.6735 -0.1426
12279TIP3    H158252   5.490   5.214   2.195 -0.4550 -1.0045 -0.8003
12279TIP3    H258253   5.394   5.316   2.136  1.7528  1.1157 -0.8803
12280TIP3   OH258254   1.434   4.431  10.451 -0.2461  0.6852  0.4998
12280TIP3    H158255   1.343   4.460  10.445 -0.0475  1.0863 -0.7798
12280TIP3    H258256   1.481   4.504  10.490 -0.3157  0.8494  0.2793
12281TIP3   OH258257   1.887   2.473   0.738 -0.1058  0.2951 -0.2553
12281TIP3    H158258   1.875   2.550   0.793 -2.1467  0.3519 -0.6854
12281TIP3    H258259   1.942   2.503   0.665 -1.1898  1.4684 -0.6223
12282TIP3   OH258260   0.869   1.545  16.981 -0.5148  0.1953  0.0229
12282TIP3    H158261   0.866   1.591  17.064  0.8759 -1.2259  0.9300
12282TIP3    H258262   0.936   1.590  16.930 -0.7270  0.5219  0.0365
12283TIP3   OH258263   3.306   5.278   2.551  0.0472  0.1208  0.2594
12283TIP3    H158264   3.347   5.239   2.474  0.6944 -0.1926  0.7498
12283TIP3    H258265   3.339   5.226   2.624  1.4760  1.9885  1.0035
12284TIP3   OH258266   4.930   0.699   5.223  0.6444  0.1956 -0.3678
12284TIP3    H158267   4.935   0.794   5.236  0.9963  0.2697 -0.9697
12284TIP3    H258268   4.923   0.689   5.128  0.7268 -0.3821 -0.3129
12285TIP3   OH258269   2.464   4.104  11.746  0.2759  0.6184 -0.3909
12285TIP3    H158270   2.454   4.025  11.799 -0.0806  0.3069 -0.9175
12285TIP3    H258271   2.406   4.168  11.787 -0.2970  0.2595 -0.6259
12286TIP3   OH258272   1.225   2.177   0.888 -0.2414  0.3863 -0.3030
12286TIP3    H158273   1.199   2.231   0.813 -0.1191  0.9185  0.0356
12286TIP3    H258274   1.309   2.213   0.916 -0.0646 -0.1037 -0.1879
12287TIP3   OH258275   4.009   3.830  11.323 -0.0256  0.1617 -0.5552
12287TIP3    H158276   4.050   3.870  11.247  0.0791  0.9316 -0.1115
12287TIP3    H258277   3.925   3.796  11.291 -0.4880  1.4674 -0.7887
12288TIP3   OH258278   5.125   1.467  15.023 -0.6588  0.3506 -0.6923
12288TIP3    H158279   5.132   1.530  15.094 -0.2393  1.7321 -1.9234
12288TIP3    H258280   5.042   1.422  15.039 -1.0031  1.2616  0.1665
12289TIP3   OH258281   1.260   6.706   2.449  0.0812  0.3245  0.0019
12289TIP3    H158282   1.222   6.696   2.362 -1.0734 -0.3248  0.5592
12289TIP3    H258283   1.185   6.713   2.508  0.7734 -1.3189  1.1738
12290TIP3   OH258284   4.119   4.562  10.706 -0.0857  0.3379 -0.4092
12290TIP3    H158285   4.037   4.593  10.745 -0.0658 -1.4356  1.1543
12290TIP3    H258286   4.094   4.486  10.654  0.3434  0.8372 -1.3632
12291TIP3   OH258287   2.276   2.502   5.362  0.1066  0.3991 -0.0203
12291TIP3    H158288   2.352   2.509   5.304 -0.6036 -2.3376 -1.4739
12291TIP3    H258289   2.290   2.420   5.409 -1.7035  0.0374 -0.0250
12292TIP3   OH258290   0.970   1.967  12.973  0.2453 -0.0651 -0.1140
12292TIP3    H158291   0.959   1.875  12.949  0.5771 -0.4318  1.0576
12292TIP3    H258292   1.027   2.003  12.905  2.3143 -1.4120  0.8150
12293TIP3   OH258293   2.717   4.578  10.417 -0.1298 -0.0640 -0.4528
12293TIP3    H158294   2.698   4.505  10.359 -0.4045  1.8925 -3.0097
12293TIP3    H258295   2.632   4.620  10.432  0.2887  0.8739 -0.6630
12294TIP3   OH258296   6.461   1.460  16.330 -0.2597 -0.0367  0.0288
12294TIP3    H158297   6.479   1.484  16.421 -0.2547  0.9294 -0.2205
12294TIP3    H258298   6.369   1.435  16.329 -0.3624  0.3360  0.2201
12295TIP3   OH258299   4.827   3.732  14.620  0.3602 -0.1777 -0.0010
12295TIP3    H158300   4.831   3.827  14.615  0.9727 -0.1082  1.3060
12295TIP3    H258301   4.884   3.709  14.694 -0.5546 -1.4745  0.3468
12296TIP3   OH258302   3.956   0.332   2.003 -0.1024  0.3810  0.0784
12296TIP3    H158303   3.941   0.400   2.069 -0.9670  1.6083 -1.3141
12296TIP3    H258304   4.051   0.324   1.999 -0.0076  0.9292  0.8362
12297TIP3   OH258305   1.834   5.099  13.393  0.5633  0.5380 -0.0359
12297TIP3    H158306   1.794   5.023  13.351  0.8723 -0.5349  1.5349
12297TIP3    H258307   1.874   5.147  13.320 -1.2368  0.2386 -1.3016
12298TIP3   OH258308   4.333   6.625   2.865 -0.1654  0.7404  0.2129
12298TIP3    H158309   4.367   6.697   2.917  1.5457  0.6833 -0.7412
12298TIP3    H258310   4.254   6.660   2.823  0.4546  1.9544  0.0217
12299TIP3   OH258311   4.489   2.386  14.303 -0.2036 -0.3135  0.3501
12299TIP3    H158312   4.558   2.400  14.368 -0.3726  1.3004  0.2398
12299TIP3    H258313   4.408   2.413  14.347 -0.4172  0.1053 -0.2758
12300TIP3   OH258314   6.035   1.985   4.597 -0.3278 -0.2356 -0.5526
12300TIP3    H158315   5.944   2.015   4.596 -0.6705 -1.2452 -1.5784
12300TIP3    H258316   6.067   2.007   4.684  0.1319  4.9551 -1.6931
12301TIP3   OH258317   2.413   4.640   2.125 -0.1492  0.5959 -0.2833
12301TIP3    H158318   2.472   4.570   2.153  0.7450  1.0368 -1.0092
12301TIP3    H258319   2.437   4.715   2.179 -1.7852  0.1009  1.2024
12302TIP3   OH258320   5.192   3.259   1.210 -0.1756 -0.1450  0.0824
12302TIP3    H158321   5.107   3.255   1.167 -1.1545 -2.9717  1.9400
12302TIP3    H258322   5.240   3.183   1.176  2.1280  1.9770 -1.7268
12303TIP3   OH258323   5.192   0.425  13.053 -1.1821 -0.2232 -0.4532
12303TIP3    H158324   5.179   0.513  13.019 -1.1355 -0.3691 -0.8606
12303TIP3    H258325   5.276   0.429  13.099 -1.2804 -0.0040 -0.2928
12304TIP3   OH258326   3.408   5.719   4.081 -0.5154 -0.1081  0.1904
12304TIP3    H158327   3.429   5.796   4.134  2.7479 -0.0845 -0.8777
12304TIP3    H258328   3.393   5.753   3.993 -0.7533 -0.5344  0.0643
12305TIP3   OH258329   1.868   1.002  12.331 -0.1679  0.8006  0.2260
12305TIP3    H158330   1.868   0.937  12.261 -1.4141 -1.5626  2.2560
12305TIP3    H258331   1.960   1.008  12.359  0.2856  1.5300 -1.3201
12306TIP3   OH258332   0.287   0.570  13.839  0.8293  0.4264  0.2340
12306TIP3    H158333   0.316   0.480  13.850 -0.0257  0.2502  1.1820
12306TIP3    H258334   0.278   0.603  13.929  0.0251  1.0874 -0.0813
12307TIP3   OH258335   2.445   3.589   6.091  0.4656 -0.2773  0.4166
12307TIP3    H158336   2.453   3.671   6.140 -2.5764  0.6186 -0.3535
12307TIP3    H258337   2.432   3.522   6.158  2.2996 -0.0549  1.0271
12308TIP3   OH258338   1.873   0.158  15.781 -0.2458 -0.6473  0.3535
12308TIP3    H158339   1.965   0.174  15.804 -0.1944  0.4968 -0.5350
12308TIP3    H258340   1.828   0.239  15.805 -0.8645 -0.8858  0.0095
12309TIP3   OH258341   4.626   4.765   3.014 -0.2174  0.1368 -0.5494
12309TIP3    H158342   4.534   4.769   3.041  0.1348 -0.5451  0.8606
12309TIP3    H258343   4.625   4.793   2.922 -1.6341  1.4903 -0.1708
12310TIP3   OH258344   0.178   3.989  15.036  0.2558 -0.2509  0.9250
12310TIP3    H158345   0.183   4.081  15.011  0.7826 -0.3678  0.5629
12310TIP3    H258346   0.166   3.990  15.131 -1.1646  0.2025  0.7573
12311TIP3   OH258347   1.072   5.417   5.128 -0.5936 -0.1081 -0.4077
12311TIP3    H158348   0.999   5.446   5.184 -1.3498 -1.1600 -0.8122
12311TIP3    H258349   1.139   5.389   5.189 -0.8753  0.0363 -0.0247
12312TIP3   OH258350   5.468   6.371  16.858 -0.6265  0.0089 -0.0957
12312TIP3    H158351   5.535   6.325  16.908 -0.5265  1.0077  0.7478
12312TIP3    H258352   5.451   6.315  16.783  0.6645 -0.5917  0.0223
12313TIP3   OH258353   1.670   3.475  12.290 -0.1675 -0.0876 -0.1261
12313TIP3    H158354   1.640   3.444  12.204 -0.3789 -1.3711  0.3795
12313TIP3    H258355   1.590   3.499  12.336 -0.4424 -2.7135  0.9227
12314TIP3   OH258356   0.271   3.673  16.120  0.3848 -0.0393  0.0231
12314TIP3    H158357   0.334   3.730  16.076  0.7397 -0.3778  0.0885
12314TIP3    H258358   0.196   3.729  16.138  0.9297  0.5325  0.5316
12315TIP3   OH258359   3.362   3.367  15.960 -0.0195  0.0389  0.1754
12315TIP3    H158360   3.447   3.335  15.930 -0.0439 -0.4858  0.6541
12315TIP3    H258361   3.352   3.330  16.047 -0.1668  1.1610  0.6512
12316TIP3   OH258362   0.335   5.165   5.677 -0.2937  0.3107  0.3622
12316TIP3    H158363   0.251   5.123   5.661 -0.2854  0.1502  0.7363
12316TIP3    H258364   0.344   5.167   5.772 -0.7597  2.0856  0.4096
12317TIP3   OH258365   6.536   5.984  11.139  0.0058  0.2876  0.1184
12317TIP3    H158366   6.517   5.953  11.227  0.1828 -0.5808 -0.1464
12317TIP3    H258367   6.630   5.968  11.127 -0.0656  0.1693 -0.3133
12318TIP3   OH258368   0.055   0.690  16.417 -0.4788 -0.5981  0.0749
12318TIP3    H158369   0.060   0.762  16.354 -2.3073  1.3449  1.9640
12318TIP3    H258370   0.134   0.699  16.471 -1.1831  0.7053  0.9380
12319TIP3   OH258371   3.975   6.760   0.363  1.0571  0.2668 -0.5306
12319TIP3    H158372   3.965   6.746   0.269  1.0048  0.1011 -0.5014
12319TIP3    H258373   3.893   6.802   0.390  1.1463  0.4799 -0.5898
12320TIP3   OH258374   6.599   5.113   1.270  0.0031  0.1207  0.5939
12320TIP3    H158375   6.512   5.146   1.293  0.1892  0.8442  0.2974
12320TIP3    H258376   6.655   5.190   1.274  0.1739  0.1778 -1.5963
12321TIP3   OH258377   5.019   3.938  16.692  0.2214  0.1817  0.1709
12321TIP3    H158378   5.041   3.868  16.632  0.8402  0.0750  0.5209
12321TIP3    H258379   5.014   4.016  16.636 -0.9797 -0.2088 -0.3011
12322TIP3   OH258380   5.028   0.030  15.026  0.3689  0.0010  0.3152
12322TIP3    H158381   4.949   0.084  15.032  0.5597  0.1431  1.8210
12322TIP3    H258382   4.995  -0.060  15.030  0.2508  0.0528  0.5487
12323TIP3   OH258383   4.890   5.376   1.538 -0.4576 -0.3123  0.1648
12323TIP3    H158384   4.815   5.434   1.524 -0.0956 -0.3006 -2.1532
12323TIP3    H258385   4.857   5.288   1.522 -0.4577 -0.5532  1.3689
12324TIP3   OH258386   0.291   0.976  14.168 -0.1683  0.3120 -0.2829
12324TIP3    H158387   0.374   1.002  14.130 -0.7662  1.8516 -0.6270
12324TIP3    H258388   0.226   1.003  14.103 -0.9230 -1.1010 -0.1406
12325TIP3   OH258389   3.520   4.193  11.158  0.0237  0.2507  0.9972
12325TIP3    H158390   3.495   4.264  11.217 -1.4893 -0.6708  1.5238
12325TIP3    H258391   3.472   4.210  11.077  0.9690  0.7164  0.5123
12326TIP3   OH258392   4.389   4.069  15.247 -0.7311  0.4417  0.1977
12326TIP3    H158393   4.400   4.069  15.342  0.7338 -0.0572  0.0601
12326TIP3    H258394   4.312   4.015  15.231  0.0544 -0.9958  1.0416
12327TIP3   OH258395   4.709   4.499   5.797 -0.2785 -0.0972  0.1915
12327TIP3    H158396   4.640   4.479   5.861 -0.0296 -1.7894 -0.0103
12327TIP3    H258397   4.787   4.514   5.851 -0.7111  1.5308  0.4057
12328TIP3   OH258398   2.680   0.384  13.350 -0.2478  0.2171  0.0749
12328TIP3    H158399   2.603   0.381  13.293 -0.2608  1.1678  0.0277
12328TIP3    H258400   2.748   0.339  13.300  0.1193  2.1922 -1.3032
12329TIP3   OH258401   0.784   3.644   1.460 -0.8495 -0.1935  0.1808
12329TIP3    H158402   0.825   3.612   1.380 -0.4584  0.1564  0.2337
12329TIP3    H258403   0.856   3.647   1.524 -0.5320  2.0817 -0.1948
12330TIP3   OH258404   2.701   0.378  16.126  0.1826 -0.3739  0.6543
12330TIP3    H158405   2.786   0.336  16.118  1.1219  1.7491 -1.7718
12330TIP3    H258406   2.651   0.347  16.051  0.1131  1.0368  0.0807
12331TIP3   OH258407   4.364   2.460  16.082  0.0409 -0.1366  1.0573
12331TIP3    H158408   4.392   2.534  16.135 -0.9149  0.9655  0.0850
12331TIP3    H258409   4.355   2.496  15.993 -2.5009 -0.8488  0.9494
12332TIP3   OH258410   3.527   0.268   1.818  0.5336  0.5367 -0.0216
12332TIP3    H158411   3.487   0.352   1.843  0.2240  0.1949  0.6829
12332TIP3    H258412   3.593   0.253   1.885 -0.6159 -0.6223  0.9100
12333TIP3   OH258413   6.474   0.648   3.151 -0.7050  0.5577 -0.0064
12333TIP3    H158414   6.489   0.732   3.108 -2.3234 -0.0353 -1.9124
12333TIP3    H258415   6.402   0.609   3.101 -0.0579 -1.9238  0.8739
12334TIP3   OH258416   5.990   0.827  11.403  0.2009 -0.5314  0.1504
12334TIP3    H158417   6.000   0.749  11.348  2.2063 -0.3796  0.2380
12334TIP3    H258418   5.912   0.870  11.369  0.0048 -1.6990 -0.9865
12335TIP3   OH258419   0.807   5.702  14.279  0.4804 -0.0831  0.3277
12335TIP3    H158420   0.868   5.634  14.249  1.3470  1.3260 -1.2911
12335TIP3    H258421   0.861   5.761  14.332 -0.2140 -0.5194  1.5452
12336TIP3   OH258422   0.886   0.562   4.027 -0.3996  0.0181  0.0811
12336TIP3    H158423   0.928   0.638   4.067  1.3742  0.6034 -2.5686
12336TIP3    H258424   0.828   0.599   3.961 -2.4543 -0.9111  1.2758
12337TIP3   OH258425   3.994   1.200  12.066 -0.4603  0.3408 -0.5109
12337TIP3    H158426   3.941   1.249  12.129 -0.7815  0.3871 -0.8146
12337TIP3    H258427   4.046   1.267  12.022 -0.5614  0.3559 -0.6060
12338TIP3   OH258428   0.262   5.275  13.265  0.2162  0.5870  0.8677
12338TIP3    H158429   0.195   5.307  13.205 -0.0255 -0.2665  0.6802
12338TIP3    H258430   0.214   5.223  13.329  0.7225 -0.2416  0.5846
12339TIP3   OH258431   3.056   2.005  14.678  0.7483  0.8013  0.0093
12339TIP3    H158432   2.962   1.994  14.662  0.3623  0.8879  2.0058
12339TIP3    H258433   3.087   1.918  14.702  0.5692  1.2693  2.0818
12340TIP3   OH258434   4.105   4.466   5.093  0.2338 -0.0426 -0.3213
12340TIP3    H158435   4.187   4.433   5.055  0.1529 -0.0262 -0.5080
12340TIP3    H258436   4.066   4.389   5.134  0.6464  0.0733  0.3133
12341TIP3   OH258437   2.296   4.167  12.032 -0.2389 -0.2986 -0.4348
12341TIP3    H158438   2.264   4.205  11.950 -1.8499  1.7569  1.0389
12341TIP3    H258439   2.350   4.235  12.072 -0.1104 -0.9646  0.5846
12342TIP3   OH258440   6.564   4.666  13.557 -0.3723 -0.4018 -0.2934
12342TIP3    H158441   6.469   4.655  13.560 -0.4261  0.1474  1.5262
12342TIP3    H258442   6.591   4.628  13.474 -2.1055 -1.2291 -0.5068
12343TIP3   OH258443   5.859   2.145   1.282 -0.2790 -0.4084  0.2803
12343TIP3    H158444   5.884   2.229   1.322 -1.2016  0.5026 -0.9623
12343TIP3    H258445   5.835   2.168   1.192 -3.0660 -1.5917  0.6315
12344TIP3   OH258446   2.766   2.608  15.809 -0.6258 -0.1781 -0.7948
12344TIP3    H158447   2.804   2.694  15.830  0.1021 -0.9123  1.0435
12344TIP3    H258448   2.747   2.568  15.893 -1.6159 -1.5654 -1.6307
12345TIP3   OH258449   4.795   1.007  14.154 -0.1970 -0.0527 -0.6613
12345TIP3    H158450   4.857   0.974  14.088  1.2030  0.3149  0.4232
12345TIP3    H258451   4.847   1.064  14.210 -1.4779  0.0942  0.4410
12346TIP3   OH258452   6.268   1.529   5.171  0.6331  0.2395  0.1592
12346TIP3    H158453   6.293   1.446   5.130 -1.5983 -0.0964 -0.6495
12346TIP3    H258454   6.302   1.596   5.112  1.9840 -0.0986  0.5345
12347TIP3   OH258455   6.779   3.576   3.265  0.3965  0.1786  0.0920
12347TIP3    H158456   6.845   3.579   3.334  0.8724  1.3538 -0.3769
12347TIP3    H258457   6.697   3.559   3.311  1.2181 -3.4739  0.4736
12348TIP3   OH258458   3.959   5.288   4.139 -0.2501  0.0794 -0.6912
12348TIP3    H158459   3.865   5.293   4.154 -0.0447 -1.5472  1.8845
12348TIP3    H258460   3.976   5.195   4.121  0.7504  0.5494 -2.4210
12349TIP3   OH258461   0.635   0.801   6.058 -0.0582 -0.2111  0.4814
12349TIP3    H158462   0.721   0.768   6.083  0.4476  0.7044  0.0193
12349TIP3    H258463   0.649   0.895   6.044 -1.4098  0.1929  1.6481
12350TIP3   OH258464   4.920   0.956   2.695  0.1366  0.1686  0.5019
12350TIP3    H158465   4.849   0.998   2.647  1.8014 -0.2379 -2.5606
12350TIP3    H258466   4.882   0.937   2.781 -3.1345  0.8064 -0.6343
12351TIP3   OH258467   4.118   2.704  16.805  0.4576 -0.1176  0.1451
12351TIP3    H158468   4.047   2.766  16.822  0.3856  0.2472 -1.3303
12351TIP3    H258469   4.196   2.746  16.840 -0.0151 -0.4950  1.7283
12352TIP3   OH258470   3.443   1.908   4.826  0.3413  0.5148  0.0571
12352TIP3    H158471   3.373   1.954   4.872 -1.9919 -1.2005 -1.5666
12352TIP3    H258472   3.477   1.846   4.890 -0.1046  0.8550  0.6339
12353TIP3   OH258473   4.322   6.327  10.462  0.1312 -0.0343 -1.0465
12353TIP3    H158474   4.345   6.366  10.378 -0.8209 -0.4807 -1.5315
12353TIP3    H258475   4.354   6.389  10.527 -1.2274  1.5193 -1.7976
12354TIP3   OH258476   4.408   5.205  13.275  0.4639 -0.3095  0.8162
12354TIP3    H158477   4.465   5.280  13.262  0.3100 -0.4379 -0.7903
12354TIP3    H258478   4.322   5.234  13.247  0.4865 -1.1954 -0.2325
12355TIP3   OH258479   1.710   3.130   2.552 -1.0098  0.1826 -0.1704
12355TIP3    H158480   1.779   3.151   2.615 -0.0249 -0.3504 -1.0621
12355TIP3    H258481   1.692   3.037   2.566 -1.9000  0.4178  0.3740
12356TIP3   OH258482   0.025   3.639  13.845  0.2542 -0.2722  0.0227
12356TIP3    H158483  -0.065   3.610  13.835  0.3922 -0.4399 -0.8177
12356TIP3    H258484   0.028   3.680  13.931 -0.9011  0.7148 -0.3703
12357TIP3   OH258485   3.595   2.587   5.465  0.0916 -0.1183 -0.8617
12357TIP3    H158486   3.500   2.582   5.472  0.1971  0.1657  1.7537
12357TIP3    H258487   3.614   2.680   5.453  0.0348 -0.1592 -1.2564
12358TIP3   OH258488   1.256   1.559  13.240 -0.1390  0.8689 -0.2951
12358TIP3    H158489   1.182   1.617  13.222  0.2081  1.5370  0.4035
12358TIP3    H258490   1.226   1.501  13.309 -0.9517 -0.7148 -1.8811
12359TIP3   OH258491   0.363   4.903  16.828 -0.0627  0.6462  0.1816
12359TIP3    H158492   0.453   4.906  16.860  0.6604 -0.8281 -1.5366
12359TIP3    H258493   0.327   4.989  16.849  1.5776  1.0879  1.3599
12360TIP3   OH258494   2.350   2.477   2.480  0.8681 -0.0801  0.1581
12360TIP3    H158495   2.391   2.439   2.558  1.0024  1.1222  0.7060
12360TIP3    H258496   2.411   2.458   2.409  1.2563 -0.2981  0.5449
12361TIP3   OH258497   2.700   2.774  16.671  0.1213  0.8949  0.0272
12361TIP3    H158498   2.769   2.742  16.730  0.4797  0.0912 -0.8152
12361TIP3    H258499   2.746   2.823  16.603 -0.2653  1.4945  0.1797
12362TIP3   OH258500   6.583   4.587   0.455  0.4475  0.3545 -0.1392
12362TIP3    H158501   6.544   4.508   0.417 -2.1594  1.9068 -0.9476
12362TIP3    H258502   6.678   4.572   0.450  0.1228 -1.4176 -3.1090
12363TIP3   OH258503   1.861   0.175   4.935  0.1153  0.0916  0.0239
12363TIP3    H158504   1.900   0.179   4.848  1.6534 -0.8960  0.6218
12363TIP3    H258505   1.872   0.263   4.970  0.7378  0.1391 -0.2807
12364TIP3   OH258506   1.358   5.901  12.899 -0.1114  0.0359 -0.4212
12364TIP3    H158507   1.411   5.912  12.820  1.4390 -0.8517  0.4400
12364TIP3    H258508   1.353   5.988  12.937 -0.7917  0.4555 -1.4165
12365TIP3   OH258509   6.766   3.140  10.345  0.6294 -0.2913  0.1951
12365TIP3    H158510   6.806   3.064  10.387  2.8307  0.9130  0.4173
12365TIP3    H258511   6.716   3.182  10.415 -0.7274 -1.5410  0.0346
12366TIP3   OH258512   0.458   6.777   2.981  0.3367  0.1460 -0.2505
12366TIP3    H158513   0.372   6.808   2.952 -0.1141 -0.3622  0.5070
12366TIP3    H258514   0.500   6.854   3.018  0.4763  0.5480 -1.1989
12367TIP3   OH258515   0.432   1.788   3.590  0.1212  0.0425  0.3790
12367TIP3    H158516   0.505   1.847   3.574 -0.3530  0.9487  1.3882
12367TIP3    H258517   0.369   1.840   3.640 -1.3222 -0.6398 -0.6344
12368TIP3   OH258518   5.956   5.724   4.272 -0.8734 -0.6442  0.4257
12368TIP3    H158519   6.032   5.773   4.240 -0.6315 -0.2171  1.5821
12368TIP3    H258520   5.886   5.745   4.210  0.0071 -1.2664 -0.8278
12369TIP3   OH258521   5.316   5.788  15.613  0.3117 -0.2598  0.5496
12369TIP3    H158522   5.300   5.835  15.531 -0.6124 -1.7986 -0.2064
12369TIP3    H258523   5.394   5.830  15.650  1.7183 -0.4934 -1.9116
12370TIP3   OH258524   5.164   5.490   0.136  0.7509  0.0008 -0.0390
12370TIP3    H158525   5.209   5.453   0.060  3.0316  1.8607  0.2947
12370TIP3    H258526   5.159   5.584   0.117 -2.7725 -0.0229  0.1454
12371TIP3   OH258527   4.174   4.803  11.182 -0.0126  0.2811  0.5224
12371TIP3    H158528   4.095   4.752  11.163  1.0612 -1.2549 -0.0479
12371TIP3    H258529   4.246   4.740  11.172  1.3450  1.7997  0.3358
12372TIP3   OH258530   1.045   1.631   4.922 -0.2263 -0.0251  0.2478
12372TIP3    H158531   0.958   1.667   4.901 -0.5767  0.2194  1.9374
12372TIP3    H258532   1.106   1.700   4.896 -0.7003  0.6343  0.8185
12373TIP3   OH258533   1.546   5.439  16.445 -0.1548 -0.4471 -0.1254
12373TIP3    H158534   1.564   5.363  16.500 -0.5594 -1.6288 -1.5664
12373TIP3    H258535   1.454   5.459  16.462  0.5991  1.4808  2.2786
12374TIP3   OH258536   1.553   2.738   0.950  0.1612  0.4365  0.0984
12374TIP3    H158537   1.623   2.734   0.886 -0.7154  0.6657 -0.9092
12374TIP3    H258538   1.533   2.647   0.969  2.0116  0.3403  1.8902
12375TIP3   OH258539   2.691   6.564   2.689  0.5189 -0.1280  0.3088
12375TIP3    H158540   2.754   6.631   2.662 -0.5976  0.7797 -0.1019
12375TIP3    H258541   2.746   6.492   2.721  1.7712  1.8074  2.9236
12376TIP3   OH258542   3.147   1.532  12.755 -0.3698 -0.1608 -0.3265
12376TIP3    H158543   3.087   1.473  12.709 -1.0940 -1.2764  1.8756
12376TIP3    H258544   3.097   1.613  12.765 -0.5656 -0.2389 -0.6540
12377TIP3   OH258545   5.464   5.826  11.733 -0.1448 -0.7223  0.2137
12377TIP3    H158546   5.433   5.735  11.735  0.6533 -1.0808 -1.4233
12377TIP3    H258547   5.560   5.819  11.740  0.0409 -0.1452 -1.3125
12378TIP3   OH258548   2.973   3.020  15.154  0.4339  0.2914  0.2996
12378TIP3    H158549   2.911   2.968  15.204 -0.7139  1.2996 -0.0404
12378TIP3    H258550   2.922   3.057  15.082  1.3210  1.4951  0.2556
12379TIP3   OH258551   3.875   3.149   0.683 -0.0469  0.3370 -0.0414
12379TIP3    H158552   3.922   3.232   0.673  0.9102 -0.2040 -0.1943
12379TIP3    H258553   3.810   3.149   0.613  1.2864  0.0890 -1.3058
12380TIP3   OH258554   3.652   5.405  16.698 -0.1868  0.9925  0.0468
12380TIP3    H158555   3.593   5.331  16.713  1.2999 -0.0576  1.0476
12380TIP3    H258556   3.672   5.437  16.786 -0.5592  2.4369 -0.3558
12381TIP3   OH258557   0.008   5.691  13.792 -0.8344  0.5506 -0.1342
12381TIP3    H158558  -0.003   5.749  13.867 -0.4797 -0.5304  0.7709
12381TIP3    H258559   0.096   5.710  13.760 -0.4989  0.1168  0.5149
12382TIP3   OH258560   3.246   0.807  13.334 -0.6288 -0.4718  0.0552
12382TIP3    H158561   3.209   0.765  13.411 -1.4185  0.0570 -0.0252
12382TIP3    H258562   3.175   0.862  13.300  0.3286  0.8122  0.0763
12383TIP3   OH258563   1.410   5.233  13.282  0.5470  0.2037  0.8510
12383TIP3    H158564   1.427   5.170  13.212 -1.5690  0.5588 -0.0577
12383TIP3    H258565   1.390   5.179  13.359  1.7729 -0.1878  0.9138
12384TIP3   OH258566   0.882   2.941   0.357 -0.4002 -0.2393  0.2651
12384TIP3    H158567   0.943   2.943   0.431 -0.3780 -1.3126  0.2984
12384TIP3    H258568   0.903   2.859   0.312 -0.9704  0.0026 -0.4595
12385TIP3   OH258569   5.165   4.155   0.433 -0.0932  0.1195 -0.1842
12385TIP3    H158570   5.242   4.147   0.489 -1.4582 -1.8597  1.5771
12385TIP3    H258571   5.196   4.200   0.355  2.7540 -0.3037  0.6121
12386TIP3   OH258572   0.071   1.235  14.236  0.4861 -0.2462  0.0369
12386TIP3    H158573  -0.006   1.275  14.196 -0.7534 -2.1797  0.3223
12386TIP3    H258574   0.048   1.223  14.328  1.6505  0.3152  0.4262
12387TIP3   OH258575   2.619   0.016   5.140 -0.1405  0.1263 -0.2058
12387TIP3    H158576   2.524   0.020   5.139 -0.1041  0.9504 -0.6307
12387TIP3    H258577   2.645   0.075   5.211  0.0998  0.9076 -0.9393
12388TIP3   OH258578   4.421   2.290   2.089  0.8189 -0.7661 -0.1055
12388TIP3    H158579   4.371   2.370   2.075  0.1245 -1.5254 -2.5323
12388TIP3    H258580   4.402   2.265   2.180 -3.1444 -0.8848 -0.7860
12389TIP3   OH258581   5.502   5.629  11.167 -0.4939 -0.7712  0.4837
12389TIP3    H158582   5.464   5.677  11.094 -1.1209  0.6488  1.6915
12389TIP3    H258583   5.436   5.564  11.190 -1.3874  0.3937  1.3156
12390TIP3   OH258584   1.745   3.763   4.502  0.2455 -0.0503 -1.1091
12390TIP3    H158585   1.670   3.823   4.505 -0.1706 -0.3602 -3.3186
12390TIP3    H258586   1.773   3.766   4.410  2.1788 -0.8901 -0.5854
12391TIP3   OH258587   0.391   0.763  12.398  0.0280  0.5095 -0.3785
12391TIP3    H158588   0.453   0.812  12.345  1.5055 -0.4770  0.3813
12391TIP3    H258589   0.413   0.786  12.488 -1.8650  1.4685 -0.1046
12392TIP3   OH258590   1.663   3.129   5.265 -0.2587 -0.1221  0.1651
12392TIP3    H158591   1.629   3.127   5.176  2.3405 -1.6949 -0.9212
12392TIP3    H258592   1.703   3.216   5.274 -0.4246 -0.0035 -0.2326
12393TIP3   OH258593   5.671   2.255  16.614  0.6342  0.3440  0.1819
12393TIP3    H158594   5.697   2.341  16.648 -0.4118  0.3254  1.0694
12393TIP3    H258595   5.753   2.214  16.587  1.0008  2.5668 -2.6422
12394TIP3   OH258596   1.841   6.651  15.090 -0.4545 -0.6765 -0.1916
12394TIP3    H158597   1.762   6.599  15.078 -1.1699  0.3918 -0.2034
12394TIP3    H258598   1.810   6.742  15.093  0.5886 -0.3324  1.3120
12395TIP3   OH258599   1.198   1.305  14.894  0.4462 -0.3255  0.2561
12395TIP3    H158600   1.115   1.277  14.931  0.2434 -0.6570 -0.4284
12395TIP3    H258601   1.195   1.401  14.896 -0.1673 -0.3278 -0.2172
12396TIP3   OH258602   1.845   5.191  10.863 -0.4966  0.1726  0.0924
12396TIP3    H158603   1.813   5.101  10.860  0.4902 -0.1836 -0.9466
12396TIP3    H258604   1.861   5.213  10.771 -2.0232  1.9172  0.2073
12397TIP3   OH258605   6.460   0.705  13.660 -0.3733 -0.6174 -0.4801
12397TIP3    H158606   6.435   0.784  13.612  0.6527 -0.1733 -0.3106
12397TIP3    H258607   6.556   0.708  13.664 -0.3563 -1.4860  0.1744
12398TIP3   OH258608   3.365   4.239  11.972  0.3530 -0.2314  0.2552
12398TIP3    H158609   3.338   4.318  12.020 -0.5826 -0.1445 -0.3759
12398TIP3    H258610   3.397   4.179  12.039 -1.0669 -0.1669  1.0306
12399TIP3   OH258611   5.003   0.436   3.235  0.0217  0.1808  0.1811
12399TIP3    H158612   5.089   0.394   3.236  0.1633  0.3906 -1.1220
12399TIP3    H258613   4.976   0.438   3.327  0.9501 -0.8130  0.4965
12400TIP3   OH258614   6.392   5.303   0.296  0.5739 -0.5480 -0.4316
12400TIP3    H158615   6.448   5.307   0.218  0.4282 -0.9629 -0.5609
12400TIP3    H258616   6.417   5.221   0.340  1.0147 -0.0650  0.2356
12401TIP3   OH258617   1.780   2.991  10.492 -0.3729  0.1454  0.4573
12401TIP3    H158618   1.737   3.058  10.547 -0.4369  0.2370  0.2949
12401TIP3    H258619   1.783   3.029  10.405 -0.6060 -0.1515  0.3170
12402TIP3   OH258620   4.968   6.633  13.613  0.1695  0.1723  0.4192
12402TIP3    H158621   4.938   6.669  13.530 -0.0056  0.6191  0.6711
12402TIP3    H258622   4.944   6.541  13.610 -0.6761  0.3913  0.3626
12403TIP3   OH258623   1.250   4.306  11.327 -0.0435  0.2897  0.0866
12403TIP3    H158624   1.208   4.328  11.244  1.0440  1.2902 -0.2219
12403TIP3    H258625   1.260   4.390  11.371 -1.0451 -0.2768  1.4772
12404TIP3   OH258626   2.168   5.960   2.349  0.4047  0.4605 -0.3276
12404TIP3    H158627   2.233   6.026   2.326  0.3815  1.0443  1.1371
12404TIP3    H258628   2.086   6.009   2.355 -0.0526 -0.1446 -1.5024
12405TIP3   OH258629   0.053   1.650   0.159  0.2373 -0.4541 -0.3193
12405TIP3    H158630   0.077   1.580   0.219 -0.1297  0.0163  0.3969
12405TIP3    H258631  -0.029   1.684   0.194  0.3777  0.2895 -0.6924
12406TIP3   OH258632   2.398   0.075  14.110 -0.7914 -0.5325  0.6651
12406TIP3    H158633   2.428   0.032  14.190 -1.0318 -2.2292 -0.1223
12406TIP3    H258634   2.450   0.035  14.040 -2.0572 -0.6285 -0.2657
12407TIP3   OH258635   5.264   0.021  16.355 -0.7605  0.2528 -0.5916
12407TIP3    H158636   5.228   0.029  16.267 -1.5361  1.2773 -0.1965
12407TIP3    H258637   5.202   0.067  16.411 -1.5450 -2.3816  0.8545
12408TIP3   OH258638   6.487   3.539   3.761 -0.5117 -0.0815 -0.3517
12408TIP3    H158639   6.458   3.467   3.817 -1.5644  1.7893  1.6510
12408TIP3    H258640   6.559   3.579   3.810 -2.2194  2.3197  0.3285
12409TIP3   OH258641   3.342   4.110   3.113  0.8598 -0.7363  0.3074
12409TIP3    H158642   3.429   4.117   3.151  0.5394 -0.9893  1.0997
12409TIP3    H258643   3.337   4.184   3.052  1.7868 -0.9841 -0.0925
12410TIP3   OH258644   3.113   4.640  15.519 -0.4038 -0.1910 -0.5355
12410TIP3    H158645   3.039   4.600  15.475 -1.2492 -1.3390  1.7738
12410TIP3    H258646   3.103   4.734  15.504 -1.0991 -0.4892 -2.0244
12411TIP3   OH258647   3.322   1.232   3.018 -0.5815 -0.1750  0.2650
12411TIP3    H158648   3.348   1.242   2.926 -0.7139  1.8330  0.4066
12411TIP3    H258649   3.235   1.191   3.013 -1.2364  1.2344 -0.6015
12412TIP3   OH258650   5.447   1.721  11.676 -0.4769 -0.1155  0.2004
12412TIP3    H158651   5.412   1.709  11.587 -0.4546  1.1382  0.0044
12412TIP3    H258652   5.378   1.765  11.724  1.0642  3.4293 -0.4979
12413TIP3   OH258653   6.239   3.542  11.250 -0.2799 -0.3273 -0.5256
12413TIP3    H158654   6.307   3.481  11.280  0.1422  1.0197  1.4966
12413TIP3    H258655   6.287   3.618  11.219 -0.8068  0.8163  1.3276
12414TIP3   OH258656   3.214   2.765  16.580  0.3141 -0.3626 -0.2677
12414TIP3    H158657   3.223   2.691  16.521 -0.4884 -0.8573  0.2128
12414TIP3    H258658   3.212   2.842  16.522  1.0996 -0.7113 -0.7678
12415TIP3   OH258659   1.072   2.650  16.031 -0.2334 -0.4555  0.0761
12415TIP3    H158660   1.117   2.729  16.000  1.2305 -0.2718  2.4748
12415TIP3    H258661   0.995   2.644  15.974  0.8085  1.3791 -1.6882
12416TIP3   OH258662   3.546   3.673  16.793 -0.1015  0.0237  0.0407
12416TIP3    H158663   3.570   3.760  16.759 -0.6423  0.0585 -0.2597
12416TIP3    H258664   3.566   3.678  16.886  1.4022 -0.0607 -0.2402
12417TIP3   OH258665   5.093   0.272   6.451  0.3963 -0.0474 -0.4103
12417TIP3    H158666   5.020   0.211   6.442 -0.2832  0.2372  2.3397
12417TIP3    H258667   5.051   0.358   6.460  1.0676  0.2091  0.4440
12418TIP3   OH258668   4.584   2.302   3.840 -0.2230 -0.2291  0.1645
12418TIP3    H158669   4.677   2.286   3.821 -0.3150  0.0526 -0.5400
12418TIP3    H258670   4.538   2.230   3.797 -0.4298  0.4024 -0.6993
12419TIP3   OH258671   1.222   3.604  11.091 -0.3702 -0.0399  0.0733
12419TIP3    H158672   1.189   3.575  11.006  0.9301 -2.8108  0.3865
12419TIP3    H258673   1.317   3.610  11.078 -0.3207  1.2772  0.8927
12420TIP3   OH258674   4.653   6.499   4.912  0.1332  0.1301 -0.5633
12420TIP3    H158675   4.696   6.580   4.938  0.2389  0.4941 -1.8220
12420TIP3    H258676   4.652   6.446   4.992 -1.7082  2.1012  0.8180
12421TIP3   OH258677   5.914   1.881   4.085 -0.0516  0.1474 -0.1071
12421TIP3    H158678   5.949   1.890   4.174  0.8524 -0.5175 -0.3825
12421TIP3    H258679   5.956   1.802   4.051  0.1688  0.7974 -1.3882
12422TIP3   OH258680   2.245   1.968  12.727 -0.0943 -0.2142  0.1162
12422TIP3    H158681   2.206   2.054  12.736 -0.1448 -0.3875  1.8712
12422TIP3    H258682   2.325   1.983  12.676  0.2293  0.9667  0.9468
12423TIP3   OH258683   2.564   6.539  10.617  0.4756  0.4235  0.3590
12423TIP3    H158684   2.646   6.558  10.572  0.0914  1.0530 -0.0932
12423TIP3    H258685   2.519   6.623  10.622 -0.4281 -0.0205  0.0022
12424TIP3   OH258686   1.310   2.552  10.801  1.1110  0.1747  0.1960
12424TIP3    H158687   1.382   2.536  10.862 -0.4519 -0.2023  2.0687
12424TIP3    H258688   1.314   2.646  10.783  0.5558  0.6852  2.4146
12425TIP3   OH258689   4.017   6.254   4.789  0.2171  0.0866  0.0923
12425TIP3    H158690   3.959   6.238   4.714 -0.4061  2.0125  0.1110
12425TIP3    H258691   4.105   6.246   4.753 -0.0519 -1.1100 -0.3460
12426TIP3   OH258692   2.197   0.360   4.379 -0.3407 -0.1977 -0.0871
12426TIP3    H158693   2.131   0.359   4.449  2.5032 -1.0705  2.8291
12426TIP3    H258694   2.268   0.413   4.414  0.6588  0.5590 -3.0119
12427TIP3   OH258695   2.711   4.215  16.155 -0.6274  0.1515 -0.5190
12427TIP3    H158696   2.741   4.197  16.244  1.2042 -1.3397 -1.3885
12427TIP3    H258697   2.735   4.306  16.140  2.3836 -0.5903 -0.6885
12428TIP3   OH258698   5.341   0.231  10.989 -0.7140 -0.1027  0.1676
12428TIP3    H158699   5.307   0.162  10.932  0.2661  0.1167 -0.7257
12428TIP3    H258700   5.435   0.234  10.969 -0.3339 -0.0068  1.7945
12429TIP3   OH258701   0.584   1.235   5.355  0.7438  0.3842  0.1194
12429TIP3    H158702   0.551   1.252   5.267  2.8314  2.5689 -0.3360
12429TIP3    H258703   0.508   1.243   5.412 -0.7021 -1.3336 -1.4370
12430TIP3   OH258704   1.297   4.794   4.000 -0.1325 -0.2676 -0.0945
12430TIP3    H158705   1.296   4.718   3.942  0.3067  0.1919 -0.7179
12430TIP3    H258706   1.388   4.822   4.001 -0.5088  1.0942 -1.0116
12431TIP3   OH258707   4.820   6.502   1.380  0.3506 -0.6021  0.6105
12431TIP3    H158708   4.782   6.579   1.423  1.1871 -0.2299  0.7009
12431TIP3    H258709   4.781   6.500   1.293 -0.8578 -0.9772  1.1436
12432TIP3   OH258710   1.308   1.787   1.593  0.3309  0.1575  0.0329
12432TIP3    H158711   1.235   1.741   1.551  1.0644 -0.9273 -0.0869
12432TIP3    H258712   1.297   1.878   1.565 -0.3473 -0.1824 -0.8809
12433TIP3   OH258713   2.846   6.497   0.008 -0.4656  0.2777  0.6000
12433TIP3    H158714   2.811   6.579  -0.024  1.4505  0.0501 -2.4101
12433TIP3    H258715   2.932   6.520   0.044 -0.4166 -0.2356  0.8181
12434TIP3   OH258716   1.594   0.618  12.332 -0.1645 -0.0938 -0.0611
12434TIP3    H158717   1.542   0.539  12.318 -1.0683  0.4330  0.2580
12434TIP3    H258718   1.576   0.672  12.255 -0.0529  0.0752  0.0315
12435TIP3   OH258719   6.167   0.933  11.118 -0.0644  0.3496  0.2326
12435TIP3    H158720   6.159   0.851  11.071 -3.2560  0.0077  1.1594
12435TIP3    H258721   6.173   1.000  11.049 -0.6220 -0.4394 -0.6048
12436TIP3   OH258722   1.001   3.266   0.061  0.2607  0.1431 -0.2173
12436TIP3    H158723   1.090   3.241   0.085  1.5344  4.2340 -0.0309
12436TIP3    H258724   0.948   3.234   0.134  1.8459 -0.7720  0.5974
12437TIP3   OH258725   3.066   6.535  11.895  0.2186  0.0572  0.8106
12437TIP3    H158726   2.972   6.556  11.896  0.3032  0.6500 -0.8555
12437TIP3    H258727   3.100   6.576  11.974 -0.7466  0.7680  0.8823
12438TIP3   OH258728   3.584   6.258  12.396 -0.0051  0.2855  0.1505
12438TIP3    H158729   3.667   6.215  12.375  1.2578  1.6854  1.9964
12438TIP3    H258730   3.531   6.248  12.316  1.4039 -1.7982 -0.6032
12439TIP3   OH258731   6.247   2.357   5.301  0.6825  0.8282  0.3880
12439TIP3    H158732   6.181   2.318   5.243  1.4873  0.2766 -0.1910
12439TIP3    H258733   6.198   2.419   5.355 -0.3467  0.2537  0.1509
12440TIP3   OH258734   0.701   1.208   4.936 -0.2570 -0.2717  0.0680
12440TIP3    H158735   0.686   1.137   4.999 -0.3398 -0.6273 -0.3443
12440TIP3    H258736   0.641   1.277   4.963 -1.8106 -1.2125 -0.8411
12441TIP3   OH258737   1.550   5.708   0.053 -0.6817  0.3085  0.0731
12441TIP3    H158738   1.528   5.785   0.105  1.3310  1.0982 -0.1743
12441TIP3    H258739   1.588   5.646   0.116 -1.6105 -0.2182  0.1396
12442TIP3   OH258740   4.894   5.937  12.381 -0.5191  0.4170  0.2556
12442TIP3    H158741   4.966   5.873  12.384 -0.4879  0.0412 -3.4610
12442TIP3    H258742   4.814   5.883  12.383 -0.5950  0.5331  0.3983
12443TIP3   OH258743   4.076   3.901   5.641 -0.3341  0.4134 -0.2440
12443TIP3    H158744   4.083   3.876   5.734  1.7732  1.9828  0.0926
12443TIP3    H258745   4.129   3.836   5.595 -1.9801 -0.8082 -0.4920
12444TIP3   OH258746   0.938   1.381  14.556  0.1524 -0.0431  0.2817
12444TIP3    H158747   0.909   1.385  14.465 -1.5601  0.9188  0.8222
12444TIP3    H258748   0.887   1.449  14.601  1.7142  0.2070  1.7675
12445TIP3   OH258749   1.547   1.791   4.983 -0.2787  0.2131 -1.0169
12445TIP3    H158750   1.479   1.826   4.924 -0.6432  0.9354 -0.1880
12445TIP3    H258751   1.501   1.726   5.036 -0.2693  0.5387 -0.6086
12446TIP3   OH258752   3.299   5.927   5.192  0.5091 -0.0818 -0.0300
12446TIP3    H158753   3.255   6.010   5.211  0.7905  0.5161 -1.7818
12446TIP3    H258754   3.238   5.860   5.224  0.0751  0.7841  1.0176
12447TIP3   OH258755   2.713   2.140   1.542 -0.2407 -0.2938 -0.6023
12447TIP3    H158756   2.686   2.132   1.633  0.4046 -0.4041 -0.4120
12447TIP3    H258757   2.773   2.215   1.542 -0.9894  0.3170 -1.1198
12448TIP3   OH258758   0.128   0.789   5.345 -0.6323 -0.0950 -0.0769
12448TIP3    H158759   0.191   0.828   5.284 -0.6139 -0.8630 -0.5616
12448TIP3    H258760   0.115   0.856   5.412  0.2438  0.3079 -0.2909
12449TIP3   OH258761   3.676   3.744   2.697  0.7660 -0.0685  0.2739
12449TIP3    H158762   3.661   3.833   2.729 -0.9585 -0.3103  0.2211
12449TIP3    H258763   3.625   3.738   2.616 -0.3782 -1.5374  1.0419
12450TIP3   OH258764   4.432   0.813  16.266 -0.0610  0.5451 -0.1118
12450TIP3    H158765   4.452   0.851  16.351  0.8556 -0.8834  0.3515
12450TIP3    H258766   4.350   0.765  16.280 -0.5235  1.2537 -0.3517
12451TIP3   OH258767   2.815   2.880  12.455 -0.3165 -0.7203  0.0193
12451TIP3    H158768   2.905   2.910  12.442 -1.0496  1.9280  0.4432
12451TIP3    H258769   2.818   2.829  12.536  1.1981 -2.7702 -1.2607
12452TIP3   OH258770   3.984   2.978   0.179 -0.0589  0.0507  0.4380
12452TIP3    H158771   3.962   2.947   0.091 -0.1668 -1.6204  1.0064
12452TIP3    H258772   3.927   2.927   0.237  0.3072  0.8151  1.5001
12453TIP3   OH258773   2.564   2.065   3.070 -0.1379 -0.1751  0.4117
12453TIP3    H158774   2.556   1.977   3.032  1.0320 -0.2842  0.3977
12453TIP3    H258775   2.486   2.074   3.125  1.3377 -2.5773  3.1495
12454TIP3   OH258776   6.563   1.436  16.585  0.5061 -0.1499 -0.4261
12454TIP3    H158777   6.634   1.482  16.629  0.2569  1.1585 -1.3544
12454TIP3    H258778   6.598   1.348  16.569  2.1342  0.6336 -1.3481
12455TIP3   OH258779   4.068   3.168   1.416  0.1698 -0.1019 -0.2362
12455TIP3    H158780   4.141   3.110   1.393  2.5239  2.7656 -0.5757
12455TIP3    H258781   4.094   3.208   1.499  0.1346  2.5637 -1.3995
12456TIP3   OH258782   6.127   6.431  13.408 -0.2792  0.3150 -0.2600
12456TIP3    H158783   6.149   6.340  13.430 -1.5823 -0.3363 -1.4382
12456TIP3    H258784   6.059   6.455  13.470  0.3237  0.6365  0.2902
12457TIP3   OH258785   2.331   2.376  16.151  0.0146 -0.0219  0.7858
12457TIP3    H158786   2.385   2.437  16.101  1.0453 -0.3301  1.5102
12457TIP3    H258787   2.392   2.329  16.208 -1.1551  0.6015  2.6586
12458TIP3   OH258788   0.601   0.042   5.613  0.4157 -0.3427  0.4204
12458TIP3    H158789   0.522   0.097   5.620 -0.4949 -1.2492 -1.7693
12458TIP3    H258790   0.671   0.104   5.594 -0.0342  0.3312  0.8861
12459TIP3   OH258791   6.777   3.004   5.865  0.1836  0.6343  0.1423
12459TIP3    H158792   6.817   3.089   5.885  2.9085 -0.5055 -0.0532
12459TIP3    H258793   6.846   2.956   5.819 -0.2084 -2.7114  2.7114
12460TIP3   OH258794   1.980   0.006   3.163 -0.2333  0.3106  0.0516
12460TIP3    H158795   1.904   0.064   3.168  0.5680  1.3577  0.2041
12460TIP3    H258796   2.052   0.062   3.136  0.7826 -0.3876  1.2186
12461TIP3   OH258797   6.022   5.530   0.632 -0.2953 -0.2170  0.1357
12461TIP3    H158798   6.082   5.516   0.705  0.1450  2.1862  0.3150
12461TIP3    H258799   5.939   5.491   0.661  0.9579 -3.3398 -0.0001
12462TIP3   OH258800   0.477   2.427  14.269 -0.3070 -0.0113 -0.1607
12462TIP3    H158801   0.543   2.378  14.318 -1.3240 -0.7076  0.5869
12462TIP3    H258802   0.482   2.516  14.302 -0.2214 -0.2269  0.4110
12463TIP3   OH258803   4.460   1.782   2.780  0.1938 -0.5835  0.2950
12463TIP3    H158804   4.507   1.798   2.862  0.9331  0.7493 -0.3579
12463TIP3    H258805   4.475   1.689   2.762  0.8379 -0.6654  1.1680
12464TIP3   OH258806   4.857   4.605   1.441 -0.0025 -0.2521  0.4195
12464TIP3    H158807   4.802   4.581   1.515  0.0041  1.1003  0.8817
12464TIP3    H258808   4.936   4.642   1.481 -0.0821  0.6769 -0.2525
12465TIP3   OH258809   2.735   5.724   1.284  0.4522 -0.4190 -0.4589
12465TIP3    H158810   2.812   5.761   1.327  0.1294 -0.9427  0.6148
12465TIP3    H258811   2.685   5.684   1.355  0.1726 -1.8120 -1.3870
12466TIP3   OH258812   1.230   3.713   0.799  0.1570  0.2655  0.6715
12466TIP3    H158813   1.137   3.729   0.785 -0.1260  0.5522  2.6467
12466TIP3    H258814   1.268   3.715   0.711 -1.8050 -0.7431 -0.2587
12467TIP3   OH258815   1.717   4.971  12.985  0.3320  0.0545  0.0169
12467TIP3    H158816   1.801   5.005  12.954  0.7376 -0.9619 -0.0325
12467TIP3    H258817   1.689   4.910  12.917 -0.1357 -0.1055  0.3460
12468TIP3   OH258818   5.946   1.402  16.155  0.7904  0.3217  0.0430
12468TIP3    H158819   5.988   1.439  16.077 -0.9173  2.0106 -0.1501
12468TIP3    H258820   5.946   1.308  16.140  2.8567  0.4097 -0.7446
12469TIP3   OH258821   4.672   6.621  11.136 -0.2374 -0.1429  0.6065
12469TIP3    H158822   4.665   6.528  11.160 -3.4693 -0.1889  0.0255
12469TIP3    H258823   4.699   6.620  11.044 -1.3601 -0.6111  0.2598
12470TIP3   OH258824   2.722   0.553   1.400 -0.3247 -0.3429 -0.3246
12470TIP3    H158825   2.683   0.634   1.432  1.8176  0.2008  1.1448
12470TIP3    H258826   2.690   0.486   1.461 -0.3937 -0.2156 -0.2185
12471TIP3   OH258827   5.753   2.974   3.400  0.1288  0.2689 -0.2412
12471TIP3    H158828   5.796   3.023   3.330 -1.0308  0.8710 -0.5576
12471TIP3    H258829   5.706   3.040   3.451 -0.5202 -0.3719  0.0124
12472TIP3   OH258830   6.493   3.450  14.319 -0.3801 -1.4069 -0.5694
12472TIP3    H158831   6.560   3.436  14.252  1.2488  1.9371  0.1551
12472TIP3    H258832   6.530   3.409  14.398  0.2686 -0.6893 -0.4831
12473TIP3   OH258833   5.630   5.254  11.640  0.1561 -0.6255  0.2395
12473TIP3    H158834   5.712   5.230  11.597  0.7636  1.1083  0.3773
12473TIP3    H258835   5.625   5.196  11.716  1.1466 -0.8824  0.1197
12474TIP3   OH258836   2.515   2.339   2.943 -0.0691  0.5711  0.2800
12474TIP3    H158837   2.547   2.260   2.986 -0.9395  0.5894  0.9805
12474TIP3    H258838   2.542   2.411   3.001  1.3970  0.8894 -0.7331
12475TIP3   OH258839   5.624   0.146  14.688 -0.5534  0.0102 -0.7251
12475TIP3    H158840   5.669   0.230  14.692  0.2879 -0.2974 -2.6264
12475TIP3    H258841   5.577   0.148  14.605 -3.3047 -0.1096  0.6935
12476TIP3   OH258842   1.273   3.120  14.082 -0.7872  0.2540  0.4793
12476TIP3    H158843   1.352   3.127  14.136  1.0631 -2.7067 -1.5161
12476TIP3    H258844   1.298   3.160  13.998 -1.6183 -0.1495  0.0283
12477TIP3   OH258845   4.934   0.038   4.771 -0.0440 -0.4731 -0.8616
12477TIP3    H158846   4.953  -0.043   4.724  2.0284 -0.1110 -0.7514
12477TIP3    H258847   4.984   0.105   4.724  0.2004  0.3008  0.4649
12478TIP3   OH258848   2.344   6.186   2.328  0.2617  0.0697  0.2048
12478TIP3    H158849   2.410   6.156   2.266  0.9358  1.7553  0.0414
12478TIP3    H258850   2.390   6.252   2.381 -0.7147 -0.2644  1.5145
12479TIP3   OH258851   5.294   1.166  14.043  0.1831 -0.7806 -0.0203
12479TIP3    H158852   5.276   1.074  14.022 -1.9039 -0.2491 -0.8471
12479TIP3    H258853   5.308   1.208  13.958 -0.0036 -0.1497  0.2499
12480TIP3   OH258854   2.883   1.887  15.640  0.1488  0.8741 -0.1557
12480TIP3    H158855   2.951   1.927  15.693 -0.2815 -0.2473  1.3027
12480TIP3    H258856   2.824   1.847  15.703  0.7549 -2.4089 -1.4737
12481TIP3   OH258857   4.652   0.294  13.018 -0.9058  0.0956 -0.2018
12481TIP3    H158858   4.602   0.363  12.973 -0.1062 -0.0124 -1.2926
12481TIP3    H258859   4.689   0.241  12.947  0.5891  0.0487  0.5824
12482TIP3   OH258860   6.738   0.927  14.202 -0.2023  0.1598  0.0747
12482TIP3    H158861   6.698   0.921  14.115 -1.2404  1.3011  0.4496
12482TIP3    H258862   6.829   0.948  14.185 -0.8957  2.9276 -0.7615
12483TIP3   OH258863   4.030   2.424   2.210 -0.3959 -0.3412  0.3709
12483TIP3    H158864   4.048   2.514   2.234  0.8413  0.0152 -1.5910
12483TIP3    H258865   3.968   2.430   2.137  0.3833 -0.9838 -0.3764
12484TIP3   OH258866   2.592   2.432   1.382 -0.4853 -0.5328  0.0619
12484TIP3    H158867   2.531   2.360   1.402 -2.3666  0.3866 -1.9734
12484TIP3    H258868   2.609   2.473   1.467 -1.2983 -1.8714  0.9175
12485TIP3   OH258869   4.419   3.752   2.394  0.5812 -0.0114  0.3513
12485TIP3    H158870   4.383   3.670   2.427  1.4217 -0.3318  0.5046
12485TIP3    H258871   4.343   3.801   2.364 -0.1179 -0.1290  1.8310
12486TIP3   OH258872   1.845   1.856  11.625 -0.5900  0.5624  0.0745
12486TIP3    H158873   1.821   1.775  11.671  0.2330  0.3539  0.1441
12486TIP3    H258874   1.894   1.826  11.548 -0.1707  1.0027  0.1712
12487TIP3   OH258875   3.216   3.642   6.118  0.2133 -0.3402 -0.2800
12487TIP3    H158876   3.280   3.586   6.073 -1.1939 -0.7304 -1.8939
12487TIP3    H258877   3.180   3.587   6.187  2.0224  0.0923  1.0914
12488TIP3   OH258878   1.150   4.676   2.860  0.4013 -0.7865  0.1238
12488TIP3    H158879   1.113   4.688   2.948 -0.9999 -2.4634 -0.1955
12488TIP3    H258880   1.232   4.726   2.862 -0.3889  0.5524  1.8460
12489TIP3   OH258881   0.901   2.296  11.471 -0.4613  0.0214  0.3510
12489TIP3    H158882   0.909   2.368  11.534  1.0010 -2.2780  2.9577
12489TIP3    H258883   0.946   2.329  11.392  1.3807  1.5002  1.9166
12490TIP3   OH258884   6.557   1.865  15.555 -0.4354  0.2419 -0.3358
12490TIP3    H158885   6.566   1.773  15.579  0.8199  0.5040  0.3301
12490TIP3    H258886   6.487   1.867  15.490  0.9765 -1.4603 -1.9907
12491TIP3   OH258887   2.816   2.320  10.951 -0.0586  0.0088 -0.5592
12491TIP3    H158888   2.785   2.410  10.948  0.1884  0.2700  2.0888
12491TIP3    H258889   2.737   2.267  10.945 -0.1394  0.3304 -2.9120
12492TIP3   OH258890   2.907   5.748  16.138 -0.0569  0.0146 -0.1568
12492TIP3    H158891   2.879   5.727  16.049 -0.8922 -2.5171  0.6140
12492TIP3    H258892   2.990   5.702  16.149 -0.4535 -0.5435  0.6602
12493TIP3   OH258893   3.702   1.113   1.230  0.2690 -0.1131 -0.0577
12493TIP3    H158894   3.705   1.017   1.241  0.8041 -0.4321 -2.4791
12493TIP3    H258895   3.752   1.129   1.150 -0.3745  2.1545 -0.0539
12494TIP3   OH258896   5.554   1.513   1.957 -0.2738  0.5283  0.0460
12494TIP3    H158897   5.613   1.523   1.882  0.6376 -1.3349  0.4456
12494TIP3    H258898   5.611   1.489   2.030 -1.3483  0.3167  0.8502
12495TIP3   OH258899   3.125   0.440  13.116  0.4227  0.2348  0.1160
12495TIP3    H158900   3.126   0.346  13.097 -0.8936  0.1969  0.0960
12495TIP3    H258901   3.156   0.447  13.206 -0.7978 -0.3826  0.6100
12496TIP3   OH258902   2.765   2.993   1.273  0.0382  0.1344  0.2959
12496TIP3    H158903   2.841   2.953   1.314 -0.1265 -1.1393 -0.5863
12496TIP3    H258904   2.799   3.027   1.190 -0.7036 -2.3565 -1.1356
12497TIP3   OH258905   3.992   0.394  16.742  0.3906  0.6316  0.1927
12497TIP3    H158906   4.063   0.362  16.798  1.3727  1.7783 -0.3664
12497TIP3    H258907   3.988   0.488  16.760 -0.1684  0.7842 -0.6952
12498TIP3   OH258908   4.295   5.886   5.530 -0.0460  0.2501 -0.3822
12498TIP3    H158909   4.335   5.800   5.538  2.0937  1.2287  0.0530
12498TIP3    H258910   4.309   5.911   5.439  0.4218  0.6256 -0.2120
12499TIP3   OH258911   0.647   2.848  11.645  0.1398 -0.3318 -0.2860
12499TIP3    H158912   0.667   2.777  11.706 -0.0096  0.3033  0.5315
12499TIP3    H258913   0.626   2.804  11.563  0.3568 -1.2135  0.1145
12500TIP3   OH258914   3.171   2.615   0.241  0.3516  0.1850  0.4422
12500TIP3    H158915   3.243   2.556   0.219  0.2702 -0.5034  1.8951
12500TIP3    H258916   3.213   2.698   0.262  0.6927 -0.0893  0.8610
12501TIP3   OH258917   2.759   1.297   1.822 -0.2103  0.1902  0.7861
12501TIP3    H158918   2.746   1.253   1.739 -0.7084  1.3969  0.1997
12501TIP3    H258919   2.682   1.275   1.874  0.5777 -1.4021  1.3440
12502TIP3   OH258920   3.848   1.956   2.300 -0.0211  0.2156  0.2595
12502TIP3    H158921   3.768   2.005   2.284 -0.2496 -0.3217 -0.2760
12502TIP3    H258922   3.914   1.999   2.245  0.5732  1.8913  2.1383
12503TIP3   OH258923   5.783   5.603   3.286  0.3634  0.5011  0.0183
12503TIP3    H158924   5.814   5.524   3.241 -2.1283  0.4840 -1.9134
12503TIP3    H258925   5.862   5.654   3.303  1.9899 -2.0758  0.7708
12504TIP3   OH258926   3.203   0.078  12.189 -0.0706  0.3981 -0.1671
12504TIP3    H158927   3.168   0.127  12.263 -0.7741 -0.1311 -0.1292
12504TIP3    H258928   3.125   0.045  12.143  0.3232 -2.3683  0.9473
12505TIP3   OH258929   1.517   5.413   5.433  0.7157  0.4310  0.9471
12505TIP3    H158930   1.442   5.387   5.379  2.1780  1.4040 -1.8032
12505TIP3    H258931   1.481   5.427   5.520 -1.7228 -1.8760  0.4239
12506TIP3   OH258932   3.921   2.320   0.556  1.0078 -0.4666 -0.0672
12506TIP3    H158933   3.918   2.380   0.482  0.7071  0.7377  0.8863
12506TIP3    H258934   3.981   2.360   0.619 -0.2150 -0.4498  1.1591
12507TIP3   OH258935   2.384   3.630   3.942 -0.1386  0.1052 -0.8207
12507TIP3    H158936   2.341   3.694   3.885 -0.3293  1.8552  1.1528
12507TIP3    H258937   2.478   3.647   3.930 -0.1417 -0.3029 -1.4378
12508TIP3   OH258938   1.497   4.504   5.440  0.4169 -0.3499  0.2245
12508TIP3    H158939   1.473   4.458   5.520 -3.3986  0.2320 -0.4104
12508TIP3    H258940   1.471   4.595   5.456 -0.7286 -0.2761 -1.7226
12509TIP3   OH258941   5.242   6.070  16.294  0.3581 -0.0507 -0.7375
12509TIP3    H158942   5.316   6.100  16.347 -0.2795  2.1162 -0.9746
12509TIP3    H258943   5.269   6.086  16.203 -0.0771  0.0472 -0.8556
12510TIP3   OH258944   2.799   5.628   4.396  0.6692 -0.0041 -0.6449
12510TIP3    H158945   2.774   5.597   4.309  1.0718  1.6329 -1.3853
12510TIP3    H258946   2.716   5.639   4.442  0.4639 -1.0754 -0.7403
12511TIP3   OH258947   5.705   0.825  12.324 -0.4522 -0.2677 -0.0991
12511TIP3    H158948   5.762   0.781  12.260 -0.1981 -2.0638  1.2890
12511TIP3    H258949   5.616   0.797  12.299 -0.3040 -1.5433  0.6858
12512TIP3   OH258950   1.414   3.377   4.594 -0.3519 -0.0435 -0.5314
12512TIP3    H158951   1.441   3.324   4.519 -1.1889 -0.8425 -0.2916
12512TIP3    H258952   1.465   3.344   4.668 -0.4894 -0.1620 -0.4883
12513TIP3   OH258953   1.167   5.881   2.442 -1.0978  0.0934  0.6041
12513TIP3    H158954   1.115   5.934   2.382 -1.2637  0.0873  0.7423
12513TIP3    H258955   1.196   5.943   2.509  1.7502  0.8388 -1.1276
12514TIP3   OH258956   6.696   2.548  13.841 -0.5646  0.0396 -0.0460
12514TIP3    H158957   6.631   2.485  13.871 -1.5320  0.4467 -1.1973
12514TIP3    H258958   6.653   2.633  13.854 -0.3104  0.3039 -0.9117
12515TIP3   OH258959   2.532   3.673   1.442 -0.3377 -0.5402 -0.5729
12515TIP3    H158960   2.581   3.596   1.471  0.7572  0.5488  0.5280
12515TIP3    H258961   2.441   3.651   1.461 -0.3381 -2.4574 -2.3510
12516TIP3   OH258962   6.425   0.660  12.473 -0.2264  0.1817  0.6091
12516TIP3    H158963   6.348   0.700  12.513  0.1713  2.4600 -0.7202
12516TIP3    H258964   6.471   0.733  12.431  0.8568 -1.5998 -1.5459
12517TIP3   OH258965   2.030   4.497  13.987  0.3651 -0.4879 -0.2144
12517TIP3    H158966   2.106   4.487  13.930  1.0042 -2.5551  0.8879
12517TIP3    H258967   1.966   4.434  13.954  0.7855 -1.8009  1.3243
12518TIP3   OH258968   0.096   1.230   6.514 -0.0867  0.4065 -0.0381
12518TIP3    H158969   0.175   1.267   6.552  0.1532  0.9511 -1.0368
12518TIP3    H258970   0.030   1.237   6.583 -0.1019  2.8338 -0.2272
12519TIP3   OH258971   0.023   1.849  16.166  0.3803 -0.0803 -0.2785
12519TIP3    H158972  -0.021   1.764  16.162 -0.3612 -0.1467  4.4346
12519TIP3    H258973   0.101   1.834  16.219 -0.4142  2.3323  1.7472
12520TIP3   OH258974   4.601   2.376  14.610 -0.2056 -0.2196  0.1062
12520TIP3    H158975   4.649   2.442  14.659  0.7427 -1.9487  1.6309
12520TIP3    H258976   4.512   2.410  14.605  0.2329  1.1319  0.8882
12521TIP3   OH258977   3.387   0.466  12.296 -0.1894  0.3650  0.3157
12521TIP3    H158978   3.323   0.409  12.254 -0.7630  2.8418 -2.4512
12521TIP3    H258979   3.450   0.406  12.336 -2.3988 -2.1432  0.2630
12522TIP3   OH258980   3.360   6.641  11.339  0.3117 -0.0334 -0.2136
12522TIP3    H158981   3.316   6.562  11.309  1.4337 -0.7712  0.0398
12522TIP3    H258982   3.363   6.633  11.434 -0.0835  0.6026 -0.1382
12523TIP3   OH258983   0.070   4.434  15.179 -0.3689  0.1248  0.2113
12523TIP3    H158984   0.138   4.367  15.172  0.7041  1.2963 -1.0735
12523TIP3    H258985   0.026   4.415  15.262  0.5383 -1.5620  0.3416
12524TIP3   OH258986   4.878   4.312  15.397 -0.0665 -0.2571  0.4100
12524TIP3    H158987   4.917   4.359  15.472  0.1129  0.2591  0.0018
12524TIP3    H258988   4.849   4.382  15.338 -0.5910 -0.6597  0.1926
12525TIP3   OH258989   1.329   3.722   3.129  0.2362  0.0459  0.0149
12525TIP3    H158990   1.284   3.777   3.193  1.6195  0.2818  0.8141
12525TIP3    H258991   1.323   3.770   3.047 -1.0366  0.0225  0.0657
12526TIP3   OH258992   6.397   1.004  11.805  0.3945  0.2138  0.5365
12526TIP3    H158993   6.366   0.923  11.766 -1.2891  1.8076 -1.6734
12526TIP3    H258994   6.462   0.976  11.870 -0.1326 -2.8520 -0.1063
12527TIP3   OH258995   2.670   6.343   5.161 -0.0309  0.1850  0.2723
12527TIP3    H158996   2.645   6.378   5.246  0.7488  2.0693 -0.2148
12527TIP3    H258997   2.655   6.415   5.100 -1.2733 -1.3440 -1.3458
12528TIP3   OH258998   3.249   0.861   6.648 -0.2052 -0.0812 -0.2319
12528TIP3    H158999   3.264   0.772   6.616 -3.1290 -0.5094 -0.7317
12528TIP3    H259000   3.191   0.850   6.723 -0.1636  1.3863  0.0490
12529TIP3   OH259001   6.210   4.616   4.342 -0.0351  0.6429 -0.6044
12529TIP3    H159002   6.125   4.588   4.309  0.9088 -1.6234 -1.2982
12529TIP3    H259003   6.240   4.681   4.278 -0.4965  0.1385 -1.3585
12530TIP3   OH259004   5.634   3.284  12.298 -0.1983 -0.1160 -0.5612
12530TIP3    H159005   5.648   3.346  12.226 -2.6345 -1.9433 -2.8269
12530TIP3    H259006   5.560   3.321  12.347 -0.4305 -0.2737 -0.7861
12531TIP3   OH259007   4.631   1.192   3.215 -0.3291  0.6190  0.2069
12531TIP3    H159008   4.721   1.168   3.195 -0.3048  0.1353  0.8551
12531TIP3    H259009   4.602   1.125   3.277 -0.8092  1.3386  0.7735
12532TIP3   OH259010   4.722   3.398  14.324 -0.0565  0.3770 -0.6991
12532TIP3    H159011   4.817   3.405  14.315  0.1868 -0.0668  1.1337
12532TIP3    H259012   4.705   3.412  14.417 -1.7245 -0.2040 -0.8698
12533TIP3   OH259013   4.821   4.544  15.265  0.1974  0.2788 -0.4892
12533TIP3    H159014   4.897   4.594  15.233  0.1049 -0.2161 -1.5254
12533TIP3    H259015   4.767   4.531  15.187  0.3314 -1.6447 -0.3070
12534TIP3   OH259016   3.124   3.722   4.899  0.2434 -0.0878 -0.3581
12534TIP3    H159017   3.123   3.759   4.810 -2.1351  2.4695  0.5926
12534TIP3    H259018   3.212   3.739   4.931  0.3395  1.4100 -1.3131
12535TIP3   OH259019   3.107   3.045   3.226 -0.1091 -0.1187  0.1232
12535TIP3    H159020   3.074   3.104   3.294 -1.1556 -2.0779  1.3863
12535TIP3    H259021   3.031   3.025   3.172  0.2362 -0.3632 -0.2770
12536TIP3   OH259022   3.712   2.504   2.445  0.4090  0.2692  0.9352
12536TIP3    H159023   3.672   2.492   2.531  2.3383  1.2752  2.0275
12536TIP3    H259024   3.796   2.459   2.451  0.0320 -0.7734 -0.8961
12537TIP3   OH259025   1.817   2.270   1.584 -0.2336 -0.1609  0.0801
12537TIP3    H159026   1.807   2.329   1.659 -0.2907  0.8197 -0.6706
12537TIP3    H259027   1.737   2.282   1.533 -0.6734 -1.6128  0.3765
12538TIP3   OH259028   5.359   3.713  11.804 -0.1127 -0.2359  0.2088
12538TIP3    H159029   5.344   3.747  11.892 -1.3460  1.2854 -0.5381
12538TIP3    H259030   5.318   3.626  11.805  0.3674 -0.4638  1.2774
12539TIP3   OH259031   0.624   1.338   0.703  0.1766 -0.3313 -0.2480
12539TIP3    H159032   0.586   1.407   0.757 -0.0850 -0.2888 -0.4862
12539TIP3    H259033   0.559   1.267   0.706 -1.4975  0.8968 -3.2351
12540TIP3   OH259034   3.623   4.162  15.975 -0.5387 -0.3261  0.4907
12540TIP3    H159035   3.646   4.150  15.883 -2.4111  2.5520 -0.5016
12540TIP3    H259036   3.694   4.214  16.011 -0.4545 -0.2785  0.2597
12541TIP3   OH259037   5.182   1.406  13.367 -0.1452  0.1245  0.5945
12541TIP3    H159038   5.179   1.388  13.273  2.2134  0.3549  0.4121
12541TIP3    H259039   5.169   1.501  13.373  1.1170  0.3366  0.3333
12542TIP3   OH259040   6.326   1.972  15.135  0.5703 -0.0015  0.3149
12542TIP3    H159041   6.298   2.047  15.187  0.2299 -0.9107  1.4844
12542TIP3    H259042   6.403   2.004  15.087  1.0391  0.8163  1.5541
12543TIP3   OH259043   6.489   1.164   0.996 -0.2544 -0.3019  0.1179
12543TIP3    H159044   6.424   1.208   0.942 -0.3601 -0.5379  0.0508
12543TIP3    H259045   6.493   1.216   1.076  0.8392  0.7935 -0.6095
12544TIP3   OH259046   5.136   2.238   0.981 -0.7512  0.1237  0.3274
12544TIP3    H159047   5.154   2.222   1.074  0.8978 -0.6638 -0.0860
12544TIP3    H259048   5.162   2.158   0.937 -0.6520  0.8089 -0.9139
12545TIP3   OH259049   4.744   6.022  14.746  0.4600 -0.1205 -0.5476
12545TIP3    H159050   4.755   5.984  14.658 -0.0947 -1.0433 -0.2310
12545TIP3    H259051   4.696   5.955  14.795  0.6029  0.4657  0.4107
12546TIP3   OH259052   6.674   6.763   5.162  0.5243  0.3354  0.5737
12546TIP3    H159053   6.599   6.823   5.168  1.5580  1.6624  0.8555
12546TIP3    H259054   6.748   6.815   5.193  1.5470 -0.9773  0.4048
12547TIP3   OH259055   6.352   1.925   1.679 -0.8941  0.4346 -0.1005
12547TIP3    H159056   6.320   1.840   1.710 -0.6415  0.5717  0.5575
12547TIP3    H259057   6.332   1.986   1.750  0.8024  0.5268  0.3369
12548TIP3   OH259058   2.480   2.667   2.742  0.1624 -0.1745  0.2118
12548TIP3    H159059   2.387   2.683   2.756  0.0915  0.1056 -0.5467
12548TIP3    H259060   2.484   2.583   2.698  0.1012  0.8119 -1.7902
12549TIP3   OH259061   1.426   5.063   1.962 -0.1035 -0.2142 -0.0690
12549TIP3    H159062   1.444   4.986   2.016  0.3585  1.4190  2.2832
12549TIP3    H259063   1.493   5.062   1.895 -1.2424 -2.8309 -1.3153
12550TIP3   OH259064   0.780   6.780  13.448  1.3116 -0.1139 -0.5438
12550TIP3    H159065   0.740   6.836  13.382  1.4088  2.2397  1.2814
12550TIP3    H259066   0.740   6.694  13.435  0.1919  0.6680 -2.6063
12551TIP3   OH259067   3.251   3.073   4.677  0.1650 -0.9828  0.7927
12551TIP3    H159068   3.222   2.982   4.678  0.7596 -1.2070 -0.3664
12551TIP3    H259069   3.338   3.070   4.638 -0.7701  0.3048 -1.6801
12552TIP3   OH259070   3.554   2.383  14.080 -0.3119  0.0752  0.0860
12552TIP3    H159071   3.640   2.394  14.039  0.4642 -0.6459  1.4400
12552TIP3    H259072   3.567   2.409  14.171 -0.9133 -2.1531  0.8788
12553TIP3   OH259073   4.209   6.373   4.273 -0.9070  0.0523  0.5851
12553TIP3    H159074   4.225   6.302   4.211 -1.4919  0.2394  0.2189
12553TIP3    H259075   4.210   6.452   4.220  0.6909  0.4312  1.1256
12554TIP3   OH259076   5.478   4.223  12.818  0.1092 -0.4832 -0.0561
12554TIP3    H159077   5.454   4.135  12.848 -1.3388  0.5907  2.1848
12554TIP3    H259078   5.569   4.233  12.847  0.7990 -1.7167 -1.6345
12555TIP3   OH259079   2.346   1.542   1.303  0.1325  0.0023 -0.1485
12555TIP3    H159080   2.309   1.572   1.220  1.0122  0.0923 -0.5247
12555TIP3    H259081   2.283   1.478   1.336  0.1281 -0.6009 -1.2680
12556TIP3   OH259082   4.321   0.114   2.691 -0.3447  0.3667 -0.5225
12556TIP3    H159083   4.280   0.037   2.653 -0.0711  0.0717 -0.2190
12556TIP3    H259084   4.358   0.160   2.615  0.7073 -0.5237 -0.5715
12557TIP3   OH259085   4.357   3.172  10.644 -0.4548 -0.2856 -0.0109
12557TIP3    H159086   4.301   3.145  10.571  0.7084 -1.0260 -0.6633
12557TIP3    H259087   4.400   3.091  10.672  0.4800  0.3000  0.2927
12558TIP3   OH259088   5.212   2.106   0.254  0.3908 -0.1384 -0.3153
12558TIP3    H159089   5.227   2.062   0.170 -2.3135 -0.3042 -0.8082
12558TIP3    H259090   5.236   2.041   0.319  1.8057 -0.2808 -0.9397
12559TIP3   OH259091   6.763   1.501   5.391  0.0077 -0.0369 -0.2832
12559TIP3    H159092   6.827   1.459   5.334 -0.1971  0.9188 -1.2598
12559TIP3    H259093   6.815   1.564   5.442 -0.1549  0.9518 -1.2866
12560TIP3   OH259094   5.747   2.388  12.103 -0.0097  0.3243 -0.4393
12560TIP3    H159095   5.817   2.343  12.055 -1.1705 -1.9759 -0.1498
12560TIP3    H259096   5.691   2.426  12.036 -0.6238 -1.3086 -0.9073
12561TIP3   OH259097   3.576   5.456  13.460  0.6887 -0.1096  0.4143
12561TIP3    H159098   3.528   5.511  13.399  0.4745 -0.4659  0.2572
12561TIP3    H259099   3.538   5.475  13.546  0.7403  0.1215  0.3854
12562TIP3   OH259100   4.260   0.944  15.666 -0.3134 -0.4323  0.3183
12562TIP3    H159101   4.324   0.966  15.733 -0.1639  1.9713 -0.4914
12562TIP3    H259102   4.297   0.979  15.585 -1.6726 -0.9228 -0.5556
12563TIP3   OH259103   3.868   4.060   3.130 -0.3729  0.7143 -0.0013
12563TIP3    H159104   3.872   3.964   3.128 -0.3685  0.7173 -0.1708
12563TIP3    H259105   3.907   4.087   3.046 -0.7293  0.8527 -0.1227
12564TIP3   OH259106   3.058   1.374   1.750  0.6607  0.1351 -0.3755
12564TIP3    H159107   3.014   1.412   1.674  2.7733  3.3892 -0.1667
12564TIP3    H259108   3.105   1.447   1.790  2.6336 -2.1865  1.9529
12565TIP3   OH259109   3.663   1.461   1.325 -0.3485 -0.5491  0.2638
12565TIP3    H159110   3.622   1.536   1.369 -0.0288 -0.5359  0.5427
12565TIP3    H259111   3.590   1.404   1.302 -0.7220  0.4349 -1.0837
12566TIP3   OH259112   2.664   3.294   1.814 -0.5435 -0.4163  0.3993
12566TIP3    H159113   2.627   3.254   1.735 -1.2792 -0.5955  0.8248
12566TIP3    H259114   2.758   3.293   1.800 -0.6933  0.0329 -0.7073
12567TIP3   OH259115   5.653   5.746   0.837 -0.4598 -0.5939  0.2753
12567TIP3    H159116   5.587   5.696   0.791 -1.3627  0.4282  0.4202
12567TIP3    H259117   5.709   5.680   0.879 -0.6462 -1.4937 -0.8397
12568TIP3   OH259118   1.442   3.695  11.673  0.1838  0.1684 -0.1825
12568TIP3    H159119   1.537   3.700  11.662  0.0868 -1.3728 -2.4682
12568TIP3    H259120   1.407   3.688  11.584 -1.9467 -0.9841  0.6532
12569TIP3   OH259121   6.110   1.939   5.155  0.3858 -0.2267 -0.2481
12569TIP3    H159122   6.202   1.959   5.174  0.2383  0.7106 -0.4697
12569TIP3    H259123   6.077   2.018   5.114 -0.0157 -1.2539 -1.9778
12570TIP3   OH259124   6.747   5.836  12.544 -0.2289  0.0385 -0.0708
12570TIP3    H159125   6.681   5.796  12.488 -1.7447 -0.3296  1.8663
12570TIP3    H259126   6.735   5.930  12.532  1.1979  0.0139 -2.2189
12571TIP3   OH259127   0.492   2.013   3.914  0.2737  0.0612 -0.2719
12571TIP3    H159128   0.571   1.999   3.863  0.4263 -0.9397  0.2148
12571TIP3    H259129   0.429   1.951   3.879 -0.5905  1.4243 -1.2149
12572TIP3   OH259130   3.704   0.298  13.248 -0.2216  0.1888  0.1997
12572TIP3    H159131   3.673   0.261  13.330 -0.0124 -1.3749 -0.3985
12572TIP3    H259132   3.672   0.239  13.181  3.0472 -0.9487 -0.5458
12573TIP3   OH259133   4.022   1.418   0.217  0.3215  0.5475 -0.3310
12573TIP3    H159134   3.957   1.349   0.203  0.8350 -0.1160  0.4376
12573TIP3    H259135   3.976   1.499   0.196  0.1672 -0.0984 -2.8111
12574TIP3   OH259136   1.710   0.056  13.011  0.0126 -0.4674  0.1546
12574TIP3    H159137   1.713   0.072  13.105 -0.0476  1.1389 -0.0861
12574TIP3    H259138   1.763   0.127  12.973  1.3430 -1.9762 -0.9424
12575TIP3   OH259139   3.722   0.432  16.633  0.2832  0.2100  0.5934
12575TIP3    H159140   3.675   0.371  16.689  0.8144  0.4528  1.3173
12575TIP3    H259141   3.806   0.446  16.678 -0.4525  2.7577  1.3267
12576TIP3   OH259142   3.382   3.905  15.508 -0.4348 -0.2839 -0.5820
12576TIP3    H159143   3.443   3.943  15.571 -1.6777  0.9961 -0.1015
12576TIP3    H259144   3.423   3.822  15.482  1.5569  0.5943 -0.3990
12577TIP3   OH259145   0.715   0.966   5.047 -0.3598 -0.7462 -1.0660
12577TIP3    H159146   0.809   0.983   5.040 -0.5544  0.2481 -1.4491
12577TIP3    H259147   0.709   0.888   5.102  0.6644 -0.4811 -0.5520
12578TIP3   OH259148   1.817   4.957   3.565  0.1199 -0.0265  0.3511
12578TIP3    H159149   1.821   4.923   3.476  0.2824 -3.0455  1.4218
12578TIP3    H259150   1.784   5.046   3.554  1.6474  0.3184 -2.8243
12579TIP3   OH259151   0.398   2.579  14.995  0.0649  0.0500  0.1624
12579TIP3    H159152   0.364   2.490  14.986  0.7057 -0.0667 -1.3645
12579TIP3    H259153   0.328   2.627  15.039 -1.0978 -0.7704 -0.7201
12580TIP3   OH259154   3.090   4.565   3.013 -0.1597 -0.0947 -0.2006
12580TIP3    H159155   3.140   4.559   3.094  0.4831 -1.1801 -0.6459
12580TIP3    H259156   3.127   4.641   2.968  0.6163 -0.4474 -0.1890
12581TIP3   OH259157   1.694   4.226   1.709 -0.2779 -0.5934  0.1801
12581TIP3    H159158   1.743   4.305   1.687 -2.4850  0.8666  0.1257
12581TIP3    H259159   1.728   4.158   1.651  1.2463  0.4730 -0.2159
12582TIP3   OH259160   2.082   1.348   4.725 -0.5359  0.0235 -0.8372
12582TIP3    H159161   2.177   1.359   4.724 -0.3073 -1.0510  1.8503
12582TIP3    H259162   2.066   1.282   4.658  0.3912  1.2508 -2.3482
12583TIP3   OH259163   5.794   0.474   4.435 -0.2927  0.5402  0.0271
12583TIP3    H159164   5.756   0.443   4.352  0.1219  0.4501 -0.1318
12583TIP3    H259165   5.886   0.489   4.415 -0.2218  0.6635  0.4370
12584TIP3   OH259166   3.403   0.269   1.429  0.0058  0.1989  0.5274
12584TIP3    H159167   3.490   0.309   1.434  0.6376 -1.1993  1.2250
12584TIP3    H259168   3.344   0.336   1.462  1.0023  0.6490  1.4476
12585TIP3   OH259169   3.816   0.988   2.704  0.5108 -0.1637  0.0365
12585TIP3    H159170   3.818   0.954   2.614 -0.9049 -0.3585  0.0488
12585TIP3    H259171   3.739   1.044   2.706  0.0813 -0.7629  1.3273
12586TIP3   OH259172   1.053   3.746  10.619 -0.1234 -0.4058  0.4806
12586TIP3    H159173   1.020   3.669  10.666  0.1907 -0.6664  0.2798
12586TIP3    H259174   0.987   3.813  10.634 -1.9434 -1.5368 -1.7143
12587TIP3   OH259175   3.309   3.486  14.468  0.3403  0.1461  0.9631
12587TIP3    H159176   3.373   3.497  14.538  2.2247  1.1683 -0.8255
12587TIP3    H259177   3.281   3.575  14.446  1.0985  0.0134 -0.7008
12588TIP3   OH259178   4.745   4.296   0.812  0.8758  0.2245  0.2231
12588TIP3    H159179   4.809   4.239   0.767  1.4588 -1.5812  3.0910
12588TIP3    H259180   4.660   4.266   0.778  1.3106 -0.6853 -0.1228
12589TIP3   OH259181   3.781   4.852   0.710 -0.8845  0.6866  0.0340
12589TIP3    H159182   3.729   4.775   0.735  0.2471 -0.1425 -0.1020
12589TIP3    H259183   3.833   4.822   0.636 -0.6388  1.6865 -0.2035
12590TIP3   OH259184   2.962   2.703   4.790 -0.3871 -0.3699  0.4919
12590TIP3    H159185   2.957   2.740   4.702  0.1188 -2.0420 -0.2634
12590TIP3    H259186   2.976   2.779   4.847 -0.3637  0.6956 -0.8915
12591TIP3   OH259187   0.857   3.678   0.037  0.2065  0.1196 -0.4351
12591TIP3    H159188   0.787   3.683  -0.028  0.3273 -0.3876 -0.6091
12591TIP3    H259189   0.929   3.634  -0.009  0.0034 -1.0067  0.2899
12592TIP3   OH259190   1.937   1.980   6.264 -0.2161  0.1366 -0.8659
12592TIP3    H159191   1.902   1.945   6.182 -1.3705 -3.7060  1.0306
12592TIP3    H259192   1.864   2.029   6.303 -0.2971  0.3320 -1.2645
12593TIP3   OH259193   0.928   4.492   0.361  0.0853  0.1743  0.2302
12593TIP3    H159194   0.977   4.423   0.317 -1.0909  0.3470 -1.4190
12593TIP3    H259195   0.890   4.449   0.438 -0.9774 -1.1915 -0.9911
12594TIP3   OH259196   1.026   2.657   3.241  0.0952  0.0832 -0.4479
12594TIP3    H159197   0.947   2.677   3.291 -1.3996 -5.7292  0.2399
12594TIP3    H259198   1.097   2.693   3.295 -1.8390  2.1246  0.9377
12595TIP3   OH259199   5.615   4.253   3.244  0.4535  0.3970  0.2669
12595TIP3    H159200   5.550   4.298   3.188 -2.1778 -0.4393  2.4270
12595TIP3    H259201   5.606   4.161   3.221  0.9539  0.2813  0.5409
12596TIP3   OH259202   4.993   3.321  14.097  0.1108 -0.2641 -0.3634
12596TIP3    H159203   5.004   3.275  14.014  0.7406  1.8015 -1.4740
12596TIP3    H259204   5.081   3.346  14.123 -0.1132 -0.6209  0.7970
12597TIP3   OH259205   0.881   1.799   2.132 -0.6802  0.4812  0.3279
12597TIP3    H159206   0.845   1.726   2.182  0.2401  0.5308  1.0863
12597TIP3    H259207   0.970   1.773   2.110 -0.3123  1.3772  0.6639
12598TIP3   OH259208   4.451   6.163   6.137  0.0650  0.3228 -0.2510
12598TIP3    H159209   4.500   6.240   6.166 -1.0735  1.0461 -0.1696
12598TIP3    H259210   4.456   6.167   6.041 -1.7355  1.7295 -0.3418
12599TIP3   OH259211   2.917   5.263   5.263 -0.5570  0.3380  0.7124
12599TIP3    H159212   2.893   5.262   5.171 -1.2767 -1.8085  0.8556
12599TIP3    H259213   2.942   5.353   5.281  0.6019  0.6120 -1.8200
12600TIP3   OH259214   4.556   3.802  11.701 -0.3657 -0.6296 -0.1154
12600TIP3    H159215   4.641   3.825  11.664 -0.8818 -0.3161 -1.1518
12600TIP3    H259216   4.550   3.852  11.782 -0.2884  0.7450 -0.9242
12601TIP3   OH259217   3.217   1.372   3.511  0.4447  0.1126  0.1714
12601TIP3    H159218   3.232   1.286   3.472  0.7812  0.0413  0.4606
12601TIP3    H259219   3.225   1.433   3.438 -1.2715 -0.2195 -0.3344
12602TIP3   OH259220   0.342   5.742  13.518 -0.1424  0.5319 -0.1229
12602TIP3    H159221   0.425   5.700  13.539 -1.2556 -1.8116 -0.0789
12602TIP3    H259222   0.287   5.671  13.484 -2.2425  1.9208  0.1797
12603TIP3   OH259223   1.193   1.615  14.330 -0.0278  0.5880  0.5217
12603TIP3    H159224   1.182   1.700  14.287  0.3702 -0.1247 -1.1036
12603TIP3    H259225   1.279   1.619  14.371 -0.0860  1.0428  0.5953
12604TIP3   OH259226   5.739   5.367  12.152 -0.6233  0.2099 -0.4621
12604TIP3    H159227   5.662   5.315  12.174  1.1927 -3.1487 -1.3984
12604TIP3    H259228   5.795   5.361  12.230  0.4601 -1.0446 -1.3031
12605TIP3   OH259229   5.868   5.744  14.838  0.1324 -0.0270 -0.3169
12605TIP3    H159230   5.799   5.690  14.799 -1.0992  1.1271  0.1781
12605TIP3    H259231   5.928   5.681  14.878 -1.8417 -1.0627  1.2345
12606TIP3   OH259232   0.396   5.523  14.062  0.3417  0.2058 -0.5333
12606TIP3    H159233   0.421   5.538  13.971 -0.5608  0.8245 -0.6923
12606TIP3    H259234   0.439   5.593  14.111  0.0506  0.4458 -0.6185
12607TIP3   OH259235   4.134   1.394  14.709 -0.2757  0.4871 -0.3133
12607TIP3    H159236   4.155   1.409  14.617  1.1187 -1.3625 -0.3623
12607TIP3    H259237   4.210   1.429  14.757 -0.2207 -0.0740  0.0126
12608TIP3   OH259238   0.697   2.876   2.637  0.8014  0.0003  0.0644
12608TIP3    H159239   0.703   2.915   2.724 -1.8266  0.7040  0.0262
12608TIP3    H259240   0.766   2.810   2.635  1.9390  1.0421  2.0751
12609TIP3   OH259241   1.603   0.543   4.941 -0.1487 -0.0038  0.1258
12609TIP3    H159242   1.562   0.481   5.000  0.2010 -0.6396 -0.2830
12609TIP3    H259243   1.530   0.588   4.899 -0.3979  0.4344  1.0052
12610TIP3   OH259244   4.316   5.928  15.335 -0.0237 -0.1880 -0.3925
12610TIP3    H159245   4.315   6.023  15.325 -0.0209 -0.1214  0.2158
12610TIP3    H259246   4.359   5.913  15.419 -0.5310 -0.7055 -0.2174
12611TIP3   OH259247   4.691   2.163   4.211  0.0502  0.5445 -0.6734
12611TIP3    H159248   4.695   2.211   4.293 -0.5482  0.0563 -0.3524
12611TIP3    H259249   4.601   2.177   4.179 -0.4863 -1.2321 -0.0259
12612TIP3   OH259250   3.710   1.636   0.683 -0.1944 -0.1225  0.0691
12612TIP3    H159251   3.668   1.701   0.740  1.7457 -0.2797  1.7864
12612TIP3    H259252   3.741   1.568   0.743  3.3915  0.5000 -0.8769
12613TIP3   OH259253   5.652   1.892   1.390  0.1023 -0.1792  0.7384
12613TIP3    H159254   5.708   1.840   1.448 -1.1124 -2.1894  0.2162
12613TIP3    H259255   5.698   1.975   1.380  0.9711 -0.2307  3.5387
12614TIP3   OH259256   1.695   5.265   5.923  0.4898 -0.5404 -0.8116
12614TIP3    H159257   1.768   5.320   5.952  0.8526 -0.8496 -1.1292
12614TIP3    H259258   1.634   5.266   5.997  0.5991  0.0911 -0.7231
12615TIP3   OH259259   6.645   4.315  10.892 -0.1063  0.2232 -0.0770
12615TIP3    H159260   6.601   4.307  10.807 -0.5704 -1.1739  0.2628
12615TIP3    H259261   6.702   4.391  10.883  0.3949 -0.3296 -1.8794
12616TIP3   OH259262   1.452   2.600  14.754 -0.4783 -0.0648 -0.3796
12616TIP3    H159263   1.395   2.524  14.767 -0.6005 -0.2442 -1.7450
12616TIP3    H259264   1.431   2.660  14.826 -0.0429 -1.5028  0.9950
12617TIP3   OH259265   3.002   3.891   1.559  0.1987 -0.2038  0.4626
12617TIP3    H159266   2.920   3.919   1.602  2.0885  3.8643  1.9023
12617TIP3    H259267   2.989   3.914   1.467 -0.9475 -1.5219  0.2524
12618TIP3   OH259268   0.163   6.724  15.117 -0.4330 -0.6212  0.4257
12618TIP3    H159269   0.189   6.634  15.133 -2.4894 -1.2483  0.5004
12618TIP3    H259270   0.201   6.774  15.190  0.6469 -1.4059  0.4276
12619TIP3   OH259271   2.635   6.253   6.069  0.0697 -0.2089 -0.7816
12619TIP3    H159272   2.569   6.300   6.120 -0.6083  0.4846 -2.2492
12619TIP3    H259273   2.661   6.181   6.126 -0.2375  0.8495  0.7706
12620TIP3   OH259274   1.932   4.676   1.422 -0.2885  0.4762  0.5542
12620TIP3    H159275   1.843   4.695   1.392 -0.8705 -1.1076  1.1536
12620TIP3    H259276   1.964   4.609   1.361  0.1559  0.3954  0.8717
12621TIP3   OH259277   4.195   4.997  16.998  0.2844  0.1344  0.0240
12621TIP3    H159278   4.138   5.016  17.073  1.1007 -0.4154  0.8193
12621TIP3    H259279   4.185   4.902  16.985 -1.3709  0.5218 -1.8697
12622TIP3   OH259280   0.016   1.467   5.802  0.6557  0.4979  0.5058
12622TIP3    H159281  -0.026   1.542   5.761  1.4923  0.2348 -0.9179
12622TIP3    H259282  -0.040   1.445   5.876 -1.2639  0.6670 -0.8173
12623TIP3   OH259283   1.076   6.509  13.615  0.3523 -0.4094 -0.0936
12623TIP3    H159284   1.126   6.497  13.696  1.3024  0.6911 -0.4862
12623TIP3    H259285   0.987   6.485  13.638  0.6909 -0.5221  1.1628
12624TIP3   OH259286   3.553   0.302  16.389 -0.2711  0.5566 -0.4722
12624TIP3    H159287   3.462   0.328  16.403 -0.5773 -0.5945 -0.2429
12624TIP3    H259288   3.549   0.236  16.320  0.5595  1.5342 -1.5080
12625TIP3   OH259289   2.484   2.888  11.603 -0.1013  0.3063  0.1457
12625TIP3    H159290   2.526   2.961  11.649 -0.3940 -0.1539  1.1740
12625TIP3    H259291   2.398   2.881  11.643 -0.7474  0.5063 -1.1699
12626TIP3   OH259292   5.993   4.700  14.102  0.0844  0.3743 -0.0937
12626TIP3    H159293   6.032   4.621  14.062 -1.0653  0.4857 -1.5172
12626TIP3    H259294   6.025   4.772  14.047  1.2821  0.9611  1.3156
12627TIP3   OH259295   6.450   0.418  13.680  0.1255  0.3929  0.1056
12627TIP3    H159296   6.465   0.452  13.592 -1.1851 -0.1692 -0.3679
12627TIP3    H259297   6.407   0.490  13.727 -1.3407 -0.0755 -0.4607
12628TIP3   OH259298   2.574   1.135   2.763  0.5612 -0.3144 -0.2379
12628TIP3    H159299   2.582   1.230   2.777  0.5933 -0.5042  1.2043
12628TIP3    H259300   2.574   1.125   2.668 -0.1326  1.1907 -0.4327
12629TIP3   OH259301   4.103   3.629  16.324  0.3118  0.5404  0.1980
12629TIP3    H159302   4.014   3.664  16.322 -0.1583 -0.6276 -0.3486
12629TIP3    H259303   4.094   3.539  16.292  1.4835 -0.0640  1.4926
12630TIP3   OH259304   6.484   2.908   3.216 -0.3374 -0.5203  0.3237
12630TIP3    H159305   6.531   2.919   3.133 -0.1990 -0.9172  0.3467
12630TIP3    H259306   6.548   2.930   3.283  0.1140 -1.9412  0.3936
12631TIP3   OH259307   3.401   0.471  15.948 -0.0994 -0.1511 -0.1524
12631TIP3    H159308   3.318   0.495  15.990 -0.1239  0.2793 -0.4370
12631TIP3    H259309   3.462   0.539  15.975  0.2026 -0.5434  0.1707
12632TIP3   OH259310   0.794   4.270  16.244 -0.3696 -0.1860 -0.5508
12632TIP3    H159311   0.815   4.311  16.328 -2.8386 -0.9005  0.5045
12632TIP3    H259312   0.826   4.333  16.178  0.7859  0.8225  0.9079
12633TIP3   OH259313   4.132   3.662   3.183  0.7869 -0.1828  0.0454
12633TIP3    H159314   4.192   3.686   3.113  1.4723 -0.3095  0.5702
12633TIP3    H259315   4.173   3.585   3.225 -0.3444 -1.0140 -0.3283
12634TIP3   OH259316   4.724   4.555   2.412  0.1524  0.3982  0.2688
12634TIP3    H159317   4.655   4.525   2.471 -0.5847  1.1107 -0.2175
12634TIP3    H259318   4.778   4.614   2.466 -1.1367  1.8970 -0.0081
12635TIP3   OH259319   4.372   0.448  16.503  0.0613 -0.4100 -0.0532
12635TIP3    H159320   4.316   0.373  16.483 -2.4077  1.5017 -0.7358
12635TIP3    H259321   4.371   0.454  16.598  0.9095 -1.6485  0.0555
12636TIP3   OH259322   3.514   1.206  16.260  0.1180 -0.2255 -0.1109
12636TIP3    H159323   3.470   1.220  16.176  0.6748 -0.6859 -0.4805
12636TIP3    H259324   3.467   1.132  16.300 -0.2540  0.0997  0.0675
12637TIP3   OH259325   3.738   2.798   0.060 -0.2549  0.0578 -0.2304
12637TIP3    H159326   3.758   2.707   0.083 -3.7105 -0.5654  0.9536
12637TIP3    H259327   3.695   2.792  -0.026 -1.1395  0.4384  0.1724
12638TIP3   OH259328   6.036   6.794  13.576  0.1613  0.6519  0.5080
12638TIP3    H159329   6.031   6.877  13.623  0.1591  2.0473 -1.7987
12638TIP3    H259330   6.122   6.759  13.598 -0.0032  1.0258  1.8372
12639TIP3   OH259331   2.923   5.274   4.977  0.5531 -0.1580  0.1125
12639TIP3    H159332   2.966   5.360   4.981 -2.3711  1.5483 -1.0969
12639TIP3    H259333   2.913   5.257   4.884  0.6061 -1.5736  0.3487
12640TIP3   OH259334   4.281   6.801  14.871  0.1016 -0.4823 -0.1689
12640TIP3    H159335   4.284   6.715  14.829 -1.2251 -0.0486 -1.1933
12640TIP3    H259336   4.337   6.791  14.948  0.0408 -2.2346 -0.3074
12641TIP3   OH259337   3.364   4.306  13.627  0.4324 -0.2585  0.5550
12641TIP3    H159338   3.302   4.235  13.642 -0.4391  0.4812  0.5606
12641TIP3    H259339   3.312   4.386  13.639  1.3238  0.3777  0.2832
12642TIP3   OH259340   2.619   0.638  14.742 -0.1639 -0.5653  0.0117
12642TIP3    H159341   2.614   0.558  14.794  1.1907  0.1790  1.3799
12642TIP3    H259342   2.603   0.708  14.805  1.2883  0.3501 -0.5971
12643TIP3   OH259343   2.562   0.236  16.966 -0.1007  0.2472  0.9662
12643TIP3    H159344   2.481   0.283  16.946  0.0563  0.1448  0.0752
12643TIP3    H259345   2.597   0.281  17.043 -0.1486  1.3570  0.3589
12644TIP3   OH259346   2.210   1.774  15.589  0.5208 -0.6224 -0.2560
12644TIP3    H159347   2.219   1.859  15.632 -0.8463 -0.5271 -0.0931
12644TIP3    H259348   2.145   1.728  15.642  1.7729 -2.0755  0.0999
12645TIP3   OH259349   6.212   1.062  16.385 -0.0862 -0.0396 -0.0979
12645TIP3    H159350   6.231   1.017  16.303 -2.6367  0.2605 -0.9262
12645TIP3    H259351   6.161   0.998  16.435 -0.5782  0.6191  0.2527
12646TIP3   OH259352   5.625   6.782   3.367 -0.0403  0.1671  0.7612
12646TIP3    H159353   5.628   6.877   3.361  2.0047  0.0622 -0.9475
12646TIP3    H259354   5.678   6.761   3.444 -1.8463  0.4002  2.1466
12647TIP3   OH259355   0.482   6.469  16.622  0.1211 -0.4928  0.2401
12647TIP3    H159356   0.478   6.495  16.530 -0.4557  1.1174  0.6800
12647TIP3    H259357   0.411   6.404  16.631 -0.4902  0.0906 -0.2389
12648TIP3   OH259358   3.244   5.939  10.965  0.1024 -0.2495  0.3105
12648TIP3    H159359   3.225   5.934  10.871  1.3266 -1.0147  0.0744
12648TIP3    H259360   3.300   6.016  10.974  1.5669 -1.2388  0.0788
12649TIP3   OH259361   0.389   2.425   1.570 -0.6913 -0.1474 -0.2152
12649TIP3    H159362   0.426   2.353   1.520 -0.3799  0.8339 -1.4456
12649TIP3    H259363   0.304   2.441   1.530 -1.5341 -0.9206  1.1630
12650TIP3   OH259364   2.783   1.996  11.820  0.4330  0.1408 -0.5261
12650TIP3    H159365   2.732   1.968  11.896 -1.5086  0.0313 -1.7886
12650TIP3    H259366   2.793   1.917  11.767  1.0931  0.3743 -0.7607
12651TIP3   OH259367   4.020   5.545   5.649  0.3934  0.1755  0.1171
12651TIP3    H159368   4.107   5.549   5.689  0.4411 -0.2769  0.0699
12651TIP3    H259369   3.990   5.456   5.668  0.3154  0.0358 -0.6389
12652TIP3   OH259370   3.817   2.153   4.306  0.4693 -0.2663  0.8406
12652TIP3    H159371   3.748   2.193   4.251  0.9478 -1.3017 -0.5637
12652TIP3    H259372   3.884   2.221   4.312 -0.0350  0.2282  1.0091
12653TIP3   OH259373   4.068   3.231  12.417 -0.0760  0.3090 -0.4708
12653TIP3    H159374   4.041   3.184  12.497 -0.5396 -1.1842 -1.4612
12653TIP3    H259375   4.137   3.290  12.447 -0.5589  0.1346  1.1232
12654TIP3   OH259376   5.800   1.068   4.638 -1.0101  0.4399  0.0231
12654TIP3    H159377   5.843   1.050   4.555 -0.8631 -0.0839  0.2079
12654TIP3    H259378   5.837   1.152   4.667 -0.0464 -0.0395  0.2133
12655TIP3   OH259379   0.382   4.277   6.520  0.4143  0.0497 -0.0365
12655TIP3    H159380   0.346   4.317   6.441  1.2865 -0.8015 -0.8884
12655TIP3    H259381   0.325   4.202   6.537  0.9898 -0.5316 -0.6271
12656TIP3   OH259382   4.512   4.704   3.276 -0.2864  0.6434  0.6303
12656TIP3    H159383   4.459   4.631   3.245  1.0869 -0.6571  1.1823
12656TIP3    H259384   4.449   4.770   3.304 -1.6608 -1.0955  1.9064
12657TIP3   OH259385   3.777   6.117  14.660 -0.2638  0.4149  0.3880
12657TIP3    H159386   3.694   6.159  14.680 -0.2914  1.2083 -1.1679
12657TIP3    H259387   3.784   6.123  14.564  1.8078  0.8531  0.5089
12658TIP3   OH259388   4.467   6.101   1.038 -0.3297  0.4468 -0.0343
12658TIP3    H159389   4.392   6.122   1.095  0.9219 -0.2736  1.9909
12658TIP3    H259390   4.496   6.185   1.005 -0.0609  1.1298  1.8087
12659TIP3   OH259391   4.928   6.275   2.595  0.0223 -0.2289  0.3180
12659TIP3    H159392   4.940   6.181   2.580 -1.9263 -0.4057 -0.3925
12659TIP3    H259393   4.900   6.282   2.686 -2.4013 -0.6620 -0.3260
12660TIP3   OH259394   0.209   4.260  14.985 -0.1802  0.2001  0.6134
12660TIP3    H159395   0.137   4.262  14.923  2.8517  0.8089 -3.2934
12660TIP3    H259396   0.262   4.337  14.963  2.4194 -0.9689  2.2469
12661TIP3   OH259397   3.587   4.437   6.809  0.5530  0.5159 -0.1509
12661TIP3    H159398   3.569   4.371   6.742  2.6226  0.4298 -0.6900
12661TIP3    H259399   3.661   4.401   6.858  0.4163  1.5386  0.8423
12662TIP3   OH259400   5.671   5.398   5.591 -0.1267  0.2596 -0.3683
12662TIP3    H159401   5.611   5.451   5.643 -0.1111 -0.5048  0.4442
12662TIP3    H259402   5.614   5.343   5.537 -0.1671 -0.4861  0.4236
12663TIP3   OH259403   0.731   4.868  11.788  0.6084  0.4219 -0.2703
12663TIP3    H159404   0.801   4.932  11.774  0.7475  0.8913  2.0943
12663TIP3    H259405   0.651   4.921  11.792  0.4198  0.1616 -0.5635
12664TIP3   OH259406   5.000   5.477  12.013 -0.0706  0.2485 -0.0594
12664TIP3    H159407   5.012   5.412  11.944 -0.5563 -0.2739  0.3453
12664TIP3    H259408   4.926   5.530  11.982  1.2747  1.5975 -1.1225
12665TIP3   OH259409   5.666   5.908  15.422  0.1158  0.4721  0.1380
12665TIP3    H159410   5.739   5.867  15.376 -0.0209  1.1669 -0.7018
12665TIP3    H259411   5.705   5.978  15.473 -0.1470  2.0392 -1.7197
12666TIP3   OH259412   4.666   3.026   3.290 -0.4149 -0.1048 -0.2605
12666TIP3    H159413   4.731   3.095   3.302 -0.1040 -0.6339  1.3548
12666TIP3    H259414   4.585   3.072   3.267 -0.0382  0.7404  0.0796
12667TIP3   OH259415   0.728   6.788   4.231 -0.2149  0.2685  0.7160
12667TIP3    H159416   0.753   6.835   4.151  1.3271 -0.6515  0.6183
12667TIP3    H259417   0.726   6.696   4.204  0.3948 -0.0563  1.7386
12668TIP3   OH259418   1.833   4.058   2.088  0.5658  0.1177 -0.0603
12668TIP3    H159419   1.853   3.979   2.139  0.6588  0.6390  0.7163
12668TIP3    H259420   1.739   4.053   2.072  0.5523 -0.0915  0.0743
12669TIP3   OH259421   4.195   6.099   0.003  0.0253  0.4688  0.3324
12669TIP3    H159422   4.236   6.020  -0.032  0.3220  0.4513  0.7050
12669TIP3    H259423   4.128   6.067   0.064  0.4421  0.4963  0.8183
12670TIP3   OH259424   3.298   5.271   5.927 -0.2392  0.1659 -0.2569
12670TIP3    H159425   3.360   5.337   5.897 -0.7984  1.1502  0.7146
12670TIP3    H259426   3.282   5.292   6.019 -1.3531 -0.5888 -0.2554
12671TIP3   OH259427   3.351   1.606  11.925 -0.3316  0.0415 -0.2144
12671TIP3    H159428   3.273   1.569  11.967 -0.1840 -0.4600 -0.3832
12671TIP3    H259429   3.396   1.653  11.995 -1.0375  0.7420 -0.2222
12672TIP3   OH259430   4.916   4.000   1.459 -0.0174 -0.1617 -0.4056
12672TIP3    H159431   4.881   3.915   1.485 -1.1585 -0.1063 -1.6464
12672TIP3    H259432   4.839   4.056   1.451  0.6128  0.6731 -0.7700
12673TIP3   OH259433   5.752   5.031   3.165  0.4320 -0.2346 -0.4374
12673TIP3    H159434   5.676   5.087   3.149 -0.1526 -0.8532  0.1392
12673TIP3    H259435   5.820   5.067   3.107 -0.3206  0.2612 -1.0405
12674TIP3   OH259436   5.437   2.227  16.033  0.4250  0.0672 -0.1452
12674TIP3    H159437   5.470   2.198  15.948 -0.0825 -0.9713  0.0018
12674TIP3    H259438   5.371   2.162  16.057  1.0421 -0.0421  1.3644
12675TIP3   OH259439   1.157   2.313  15.187 -0.5252  0.2569  0.3548
12675TIP3    H159440   1.170   2.219  15.171 -1.1654  0.5491 -2.2454
12675TIP3    H259441   1.079   2.316  15.242  0.2879 -0.7453  1.6468
12676TIP3   OH259442   2.367   0.375  11.499 -0.3868  0.1523  0.7942
12676TIP3    H159443   2.451   0.348  11.462 -1.0234 -1.3728  0.3863
12676TIP3    H259444   2.317   0.408  11.424 -0.1630  1.0878  1.0413
12677TIP3   OH259445   2.551   5.886   0.337 -0.1065  0.5677  0.8167
12677TIP3    H159446   2.484   5.929   0.391 -0.5922 -0.3002  0.9152
12677TIP3    H259447   2.554   5.796   0.370 -0.6725 -0.0968 -0.8388
12678TIP3   OH259448   0.215   4.925   4.116  0.2292 -0.2186  0.4452
12678TIP3    H159449   0.246   4.904   4.204  0.0129  0.1097  0.6027
12678TIP3    H259450   0.294   4.922   4.062  0.3020 -0.7850  0.5781
12679TIP3   OH259451   6.267   3.476  15.184  0.4290 -0.3638  0.0670
12679TIP3    H159452   6.258   3.453  15.092 -2.5129 -0.1184  0.2121
12679TIP3    H259453   6.216   3.410  15.231  0.4524  0.5052  1.3672
12680TIP3   OH259454   5.421   6.550   2.415  0.0680  0.2618 -0.0812
12680TIP3    H159455   5.335   6.551   2.456 -1.1998 -0.1265 -2.5097
12680TIP3    H259456   5.403   6.568   2.322  2.7460  1.5104 -0.4575
12681TIP3   OH259457   3.264   1.536  16.861  0.0044  0.1370 -0.0574
12681TIP3    H159458   3.196   1.600  16.844  0.0309 -0.2050 -1.5898
12681TIP3    H259459   3.223   1.472  16.919  0.1669  1.7827  2.0113
12682TIP3   OH259460   5.098   1.206  11.920 -0.1914  0.4107  0.3215
12682TIP3    H159461   5.077   1.114  11.903  0.9476  0.1922  0.0162
12682TIP3    H259462   5.079   1.251  11.838 -1.5210  0.6125  0.7096
12683TIP3   OH259463   4.591   2.020   1.787  0.0163 -0.2562  0.1623
12683TIP3    H159464   4.649   2.026   1.711  1.6422 -1.6429  1.2328
12683TIP3    H259465   4.569   2.111   1.807 -1.9520  0.1111 -2.9900
12684TIP3   OH259466   3.896   0.132   3.977  0.4601  0.1286 -0.0538
12684TIP3    H159467   3.952   0.118   3.900  1.2736 -0.2555  0.5957
12684TIP3    H259468   3.943   0.194   4.031  0.0532  0.1373  0.2996
12685TIP3   OH259469   1.067   4.645  12.580 -0.0692 -0.6463  0.5975
12685TIP3    H159470   1.124   4.599  12.642  1.3977  1.1804  0.6590
12685TIP3    H259471   0.988   4.664  12.631  0.6989 -0.0774  1.6157
12686TIP3   OH259472   0.283   6.292   3.154 -0.0847  0.1057 -0.1358
12686TIP3    H159473   0.283   6.241   3.235 -2.1970  0.3489  0.0979
12686TIP3    H259474   0.236   6.373   3.177 -0.4225  0.3251 -1.5064
12687TIP3   OH259475   2.726   3.681  16.227  0.3551  0.6791  0.0716
12687TIP3    H159476   2.694   3.610  16.171 -1.6065  1.6431 -0.1016
12687TIP3    H259477   2.797   3.720  16.176  0.3106 -0.0739 -0.5894
12688TIP3   OH259478   0.459   0.799  12.645  0.0914 -0.5481 -0.0530
12688TIP3    H159479   0.548   0.833  12.657 -0.0689 -0.9259  3.5486
12688TIP3    H259480   0.451   0.731  12.713 -2.9548 -0.4661 -0.1979
12689TIP3   OH259481   1.947   0.148   1.156  0.0289  0.6159 -0.3186
12689TIP3    H159482   1.938   0.213   1.227  0.0454  0.5352 -0.2424
12689TIP3    H259483   1.880   0.082   1.175  2.1416 -1.1758  1.5181
12690TIP3   OH259484   2.132   4.614   5.104  0.5762  0.0480 -0.1606
12690TIP3    H159485   2.203   4.554   5.079  0.0323 -0.5852 -0.2202
12690TIP3    H259486   2.131   4.611   5.200 -0.2180 -0.9774 -0.1835
12691TIP3   OH259487   1.302   1.674   1.844 -0.9358 -0.0794  0.6359
12691TIP3    H159488   1.310   1.593   1.794  0.4281  0.2028  0.3562
12691TIP3    H259489   1.319   1.743   1.779  2.0392  0.2583  1.6629
12692TIP3   OH259490   0.037   1.488   3.840 -0.3144  0.4919  0.1076
12692TIP3    H159491  -0.026   1.476   3.911 -0.2526 -1.1330 -0.0864
12692TIP3    H259492   0.004   1.434   3.769 -0.2039  1.8623 -1.0165
12693TIP3   OH259493   0.969   0.188  14.301  0.3352 -0.4901 -0.1711
12693TIP3    H159494   0.959   0.276  14.265  0.5644  1.5603  4.1401
12693TIP3    H259495   0.901   0.136  14.258 -1.6950  2.5160 -0.8830
12694TIP3   OH259496   0.416   4.023  13.590  0.6618 -0.1391  0.0382
12694TIP3    H159497   0.390   4.115  13.581 -0.4211 -0.2697  1.4904
12694TIP3    H259498   0.414   4.006  13.684  0.7448 -1.6800 -0.2120
12695TIP3   OH259499   2.929   1.419   1.507 -0.0765 -0.2268 -0.3790
12695TIP3    H159500   2.922   1.460   1.420  2.1742  0.7284 -0.1794
12695TIP3    H259501   2.842   1.382   1.523 -1.6399  2.7092 -1.4661
12696TIP3   OH259502   4.489   4.030  14.121  0.5206 -0.1403  0.7415
12696TIP3    H159503   4.552   3.976  14.169  2.1492  1.6100  0.7291
12696TIP3    H259504   4.538   4.060  14.044 -0.6201  0.5911  0.2878
12697TIP3   OH259505   4.860   6.563   5.689 -0.2615  0.2100 -0.1328
12697TIP3    H159506   4.839   6.624   5.759  0.4013 -0.6117  0.8026
12697TIP3    H259507   4.899   6.617   5.621 -2.1467  1.2335 -0.4700
12698TIP3   OH259508   4.857   2.326   3.827 -0.2132  0.1002 -0.2244
12698TIP3    H159509   4.883   2.410   3.864 -2.6018  0.4348  0.8394
12698TIP3    H259510   4.872   2.263   3.897 -1.4745  0.1882  0.1474
12699TIP3   OH259511   6.620   5.105  12.024 -0.0544 -0.0715 -0.5713
12699TIP3    H159512   6.617   5.133  11.932  0.9223  0.9802 -0.3039
12699TIP3    H259513   6.565   5.168  12.070 -1.6205 -1.3567 -0.5716
12700TIP3   OH259514   0.822   5.638  10.807 -0.4309  0.8095 -0.2949
12700TIP3    H159515   0.895   5.580  10.828 -0.9395  0.8187  1.6342
12700TIP3    H259516   0.805   5.622  10.714 -0.5427 -2.1191  0.1428
12701TIP3   OH259517   3.984   5.798   3.508 -0.2171  0.3466 -0.2100
12701TIP3    H159518   3.924   5.755   3.447  0.1823  1.1981 -1.2437
12701TIP3    H259519   4.033   5.727   3.548 -0.2589 -0.2228 -1.1488
12702TIP3   OH259520   1.932   1.688  15.514  0.1058  0.2056  0.7011
12702TIP3    H159521   1.956   1.696  15.607 -0.7183  1.4325  0.8428
12702TIP3    H259522   1.968   1.767  15.474 -0.7452  0.3884  0.2718
12703TIP3   OH259523   4.404   6.449  11.988  0.2245  0.7139 -0.5028
12703TIP3    H159524   4.374   6.459  12.078 -1.4963  1.0888 -1.0837
12703TIP3    H259525   4.497   6.427  11.996  0.1015  0.7209  1.3499
12704TIP3   OH259526   3.618   2.513   1.588 -0.2323 -0.1797 -0.4606
12704TIP3    H159527   3.548   2.551   1.641  1.4996 -0.1030  1.9220
12704TIP3    H259528   3.625   2.572   1.513 -2.4834 -0.0422 -0.6472
12705TIP3   OH259529   0.799   4.829   0.757 -0.4670 -0.5711 -0.3580
12705TIP3    H159530   0.814   4.838   0.663  0.1067  1.8365 -0.0835
12705TIP3    H259531   0.882   4.795   0.791  0.1506  0.8204 -0.4380
12706TIP3   OH259532   3.064   1.837  16.157  0.0573 -0.1577 -0.5584
12706TIP3    H159533   3.062   1.742  16.146 -5.1517 -0.5377  0.8594
12706TIP3    H259534   3.053   1.873  16.069  0.0679 -0.9611 -0.8886
12707TIP3   OH259535   4.000   3.206  14.958 -0.1392 -0.3121  0.1791
12707TIP3    H159536   4.034   3.146  15.024 -0.6045  0.7923  1.4564
12707TIP3    H259537   4.074   3.223  14.900  0.3789 -1.0006  0.6337
12708TIP3   OH259538   5.602   1.292  10.993  0.3277 -0.0912 -0.3856
12708TIP3    H159539   5.589   1.385  11.009  0.6755 -0.3987  2.1467
12708TIP3    H259540   5.678   1.288  10.935  0.8490  1.1817  0.1734
12709TIP3   OH259541   2.890   5.777  15.494 -0.1855 -0.0969  0.5887
12709TIP3    H159542   2.936   5.697  15.465  0.4165  0.0600  1.0863
12709TIP3    H259543   2.805   5.745  15.524 -0.2458 -0.4526  0.0663
12710TIP3   OH259544   5.856   3.476   0.616 -0.3375 -0.4895 -0.3802
12710TIP3    H159545   5.852   3.394   0.665  0.5760  0.4115  1.3253
12710TIP3    H259546   5.790   3.532   0.657 -1.1960 -0.4578 -1.7552
12711TIP3   OH259547   3.000   2.636  11.866  0.4909  0.3532  0.0364
12711TIP3    H159548   2.921   2.668  11.909 -0.8502  1.1371 -2.8301
12711TIP3    H259549   2.980   2.545  11.843  0.4741  0.4983 -0.5356
12712TIP3   OH259550   2.153   1.360   5.355  0.6766 -0.1660 -0.6336
12712TIP3    H159551   2.123   1.394   5.439  2.1091 -2.0206  0.7130
12712TIP3    H259552   2.083   1.301   5.327  0.0037  0.7745 -1.0021
12713TIP3   OH259553   4.360   1.273   4.397  0.3259  0.3950 -0.2490
12713TIP3    H159554   4.302   1.308   4.464 -0.0276  0.1154 -0.4011
12713TIP3    H259555   4.322   1.302   4.314 -0.1063 -0.5235 -0.3873
12714TIP3   OH259556   4.498   0.801   6.003 -0.0207  0.5510 -0.1068
12714TIP3    H159557   4.479   0.750   5.923 -1.3645  0.5660  0.1874
12714TIP3    H259558   4.487   0.892   5.976  0.5175  0.6091 -0.1461
12715TIP3   OH259559   6.222   4.406  14.500 -0.2108  0.2529  0.3161
12715TIP3    H159560   6.167   4.450  14.434 -0.4846  0.2803  0.5576
12715TIP3    H259561   6.232   4.472  14.569 -1.0498 -0.2258  0.9183
12716TIP3   OH259562   6.704   1.510  15.912 -0.6703 -0.1032 -0.1272
12716TIP3    H159563   6.726   1.418  15.900 -1.1963 -0.3318  0.6348
12716TIP3    H259564   6.703   1.524  16.006  1.0310  1.0990 -0.2372
12717TIP3   OH259565   6.044   4.952  14.903 -0.0115 -0.2976 -0.7491
12717TIP3    H159566   5.992   4.900  14.965 -0.3471 -0.3931 -1.1058
12717TIP3    H259567   6.036   4.904  14.820 -0.0970  0.1765 -1.0154
12718TIP3   OH259568   1.732   1.233  12.165 -0.0631 -0.3050  0.5424
12718TIP3    H159569   1.678   1.208  12.239  0.1262  0.5396  0.9860
12718TIP3    H259570   1.708   1.325  12.148 -0.7547 -0.7346 -1.0170
12719TIP3   OH259571   3.767   0.838   1.136  0.4930  0.1254 -0.3256
12719TIP3    H159572   3.689   0.826   1.190  0.5400  0.3667 -0.2020
12719TIP3    H259573   3.733   0.851   1.048  0.3622  0.7861 -0.1848
12720TIP3   OH259574   5.588   6.034  11.051  0.2085 -0.1671  0.8422
12720TIP3    H159575   5.599   6.129  11.049  0.6503 -0.2205  0.7119
12720TIP3    H259576   5.676   5.999  11.040  0.0617 -0.5929  1.0020
12721TIP3   OH259577   4.012   3.962  13.355 -0.9545 -0.3562  0.1674
12721TIP3    H159578   4.026   3.902  13.282 -1.1063 -1.9846  1.4189
12721TIP3    H259579   3.980   3.906  13.426 -0.9040  1.1845  1.4523
12722TIP3   OH259580   3.426   6.456   5.543 -0.3183  0.2596  0.1804
12722TIP3    H159581   3.461   6.545   5.546 -2.3613  1.1234 -0.1751
12722TIP3    H259582   3.393   6.445   5.454  0.0035 -0.9056  0.1845
12723TIP3   OH259583   1.254   3.210   2.279 -0.1770 -0.5532 -0.7510
12723TIP3    H159584   1.178   3.154   2.293  0.3183 -1.0784 -0.0849
12723TIP3    H259585   1.327   3.162   2.319 -0.0376  1.4318  1.5357
12724TIP3   OH259586   2.094   0.618  11.627 -0.0704  0.2620 -0.5913
12724TIP3    H159587   2.058   0.655  11.546 -0.7628 -0.7288 -0.7568
12724TIP3    H259588   2.186   0.644  11.626 -0.7797  2.9799 -0.0879
12725TIP3   OH259589   0.362   5.024  15.598 -0.1236  0.1591  0.2696
12725TIP3    H159590   0.290   5.016  15.536 -1.6484  1.9899  1.6628
12725TIP3    H259591   0.357   4.944  15.650 -0.4479 -0.2360 -0.3527
12726TIP3   OH259592   1.542   2.517  13.726  0.6997  0.4525 -0.2053
12726TIP3    H159593   1.557   2.435  13.679 -0.5985  0.4967 -0.7361
12726TIP3    H259594   1.585   2.583  13.672 -1.9162  0.7050 -2.1963
12727TIP3   OH259595   4.842   5.253  12.621  0.3646 -0.2558  0.0371
12727TIP3    H159596   4.842   5.324  12.556 -0.3881 -0.4375 -0.1707
12727TIP3    H259597   4.759   5.208  12.607  0.7858 -1.1219  0.2324
12728TIP3   OH259598   0.036   4.411   4.434 -0.2762  0.0643  0.7014
12728TIP3    H159599   0.006   4.497   4.462 -1.0131  0.6544 -1.6412
12728TIP3    H259600   0.063   4.423   4.343 -2.5395 -2.5584 -0.4937
12729TIP3   OH259601   5.657   2.710  11.307 -0.1487  0.1496 -0.2394
12729TIP3    H159602   5.674   2.803  11.324  0.1512  0.5796 -2.5726
12729TIP3    H259603   5.737   2.665  11.335  0.9109  0.9771 -1.8028
12730TIP3   OH259604   3.361   6.228  13.371  0.4700 -0.3380 -0.3069
12730TIP3    H159605   3.286   6.254  13.317 -1.8426 -0.7528  2.4676
12730TIP3    H259606   3.403   6.311  13.395 -1.2862  0.2472  0.9517
12731TIP3   OH259607   5.598   2.086   5.952 -0.4356  0.2242  0.1554
12731TIP3    H159608   5.526   2.079   5.889 -1.0842 -1.6568  1.0399
12731TIP3    H259609   5.560   2.135   6.026 -1.4402 -2.1964  1.3542
12732TIP3   OH259610   3.730   4.886  15.338 -0.6879  0.1700 -0.1542
12732TIP3    H159611   3.718   4.932  15.256  1.1878 -2.1637 -1.8991
12732TIP3    H259612   3.785   4.811  15.315 -2.4726 -2.2207  2.6750
12733TIP3   OH259613   0.993   5.445   2.549 -0.4977  0.7924 -0.3017
12733TIP3    H159614   0.932   5.498   2.498 -0.0754 -0.4395 -2.1553
12733TIP3    H259615   1.065   5.504   2.570  0.8144  0.6332 -3.8117
12734TIP3   OH259616   5.417   1.343  14.230  0.3210  0.2178  0.5494
12734TIP3    H159617   5.424   1.280  14.301  0.8094 -0.3701 -0.0031
12734TIP3    H259618   5.358   1.302  14.167 -0.1544  0.7569  0.6334
12735TIP3   OH259619   1.787   5.294   0.906  0.4524  0.7301 -0.2324
12735TIP3    H159620   1.787   5.345   0.987  0.7294  0.3941 -0.0217
12735TIP3    H259621   1.875   5.256   0.902  0.4339  0.7361 -0.6833
12736TIP3   OH259622   5.296   3.125   4.444  0.4052 -0.2536 -0.2420
12736TIP3    H159623   5.318   3.123   4.351 -0.5650 -2.1487 -0.4792
12736TIP3    H259624   5.217   3.071   4.451 -0.3243  0.9378  1.5031
12737TIP3   OH259625   6.386   5.313  12.658  0.1184  0.1561  0.4035
12737TIP3    H159626   6.388   5.368  12.736 -2.5847  2.0081 -0.6726
12737TIP3    H259627   6.458   5.251  12.670  2.0659  2.6362  2.6336
12738TIP3   OH259628   4.008   6.421   5.011  0.0510  0.3658 -0.4472
12738TIP3    H159629   4.090   6.392   5.051  0.2944  1.9732  0.2931
12738TIP3    H259630   4.003   6.373   4.929  2.4836  1.2601 -1.1956
12739TIP3   OH259631   3.030   4.919   2.499  0.1302  0.0745  0.4302
12739TIP3    H159632   2.992   4.985   2.556  1.5684  0.5956  0.8431
12739TIP3    H259633   2.965   4.905   2.430 -1.3857 -0.1508  1.8721
12740TIP3   OH259634   0.013   2.388  14.101  0.3169  0.3330  0.1473
12740TIP3    H159635  -0.024   2.445  14.168  0.0668  0.6374 -0.2403
12740TIP3    H259636  -0.060   2.374  14.040  0.1594 -0.9863  0.6048
12741TIP3   OH259637   3.405   3.825  11.882 -0.1034  0.3537 -0.1576
12741TIP3    H159638   3.403   3.775  11.800 -2.5867 -0.5917  0.3939
12741TIP3    H259639   3.354   3.904  11.864 -0.1943  0.4080  0.3125
12742TIP3   OH259640   0.762   4.756   6.597  0.0473 -0.6458 -0.3384
12742TIP3    H159641   0.818   4.803   6.534  0.7209  3.7825  3.0489
12742TIP3    H259642   0.820   4.693   6.639  0.4516 -1.2476 -1.7342
12743TIP3   OH259643   1.880   2.816  16.280 -0.2453  0.5086  0.0343
12743TIP3    H159644   1.818   2.745  16.271  0.8045 -0.9969  3.1927
12743TIP3    H259645   1.966   2.776  16.268  0.3220  1.4681  0.6717
12744TIP3   OH259646   2.401   1.987   2.379 -0.2375  0.0657 -0.0927
12744TIP3    H159647   2.439   1.909   2.341 -1.4285 -0.4146 -0.3537
12744TIP3    H259648   2.306   1.975   2.370 -0.4524  2.1934 -1.4781
12745TIP3   OH259649   3.300   6.285  10.679 -0.0150 -0.0586 -0.4906
12745TIP3    H159650   3.389   6.253  10.690  1.1239  2.3439 -1.8452
12745TIP3    H259651   3.252   6.211  10.642  1.9790 -0.8019 -1.7677
12746TIP3   OH259652   3.650   5.718  15.843  0.2428  0.3371  0.0820
12746TIP3    H159653   3.567   5.764  15.835 -0.0095  0.3094  2.0042
12746TIP3    H259654   3.652   5.689  15.934  1.8300 -0.6953 -0.2449
12747TIP3   OH259655   3.335   3.480   5.161 -0.3985  0.0794 -0.2868
12747TIP3    H159656   3.392   3.468   5.085 -1.0929  2.5738 -1.3038
12747TIP3    H259657   3.364   3.563   5.200 -1.7684  0.1749  0.5960
12748TIP3   OH259658   1.239   2.894  16.954  0.6504  0.0478  0.2476
12748TIP3    H159659   1.164   2.835  16.950  1.7457 -1.3186 -1.3133
12748TIP3    H259660   1.256   2.905  17.048  0.3676 -2.0731  0.5899
12749TIP3   OH259661   0.972   1.084   4.770 -0.3155  0.7836  0.2440
12749TIP3    H159662   0.953   1.091   4.863  0.1833  0.1875  0.3967
12749TIP3    H259663   0.890   1.053   4.731 -0.7859  1.8493  0.3569
12750TIP3   OH259664   3.174   0.200  15.412  0.0846 -0.6700 -0.0734
12750TIP3    H159665   3.233   0.129  15.438 -0.3574 -0.8224  0.5582
12750TIP3    H259666   3.131   0.225  15.494 -2.2748 -1.9991 -0.8182
12751TIP3   OH259667   5.783   6.332   1.428 -0.0879 -0.0640 -0.0033
12751TIP3    H159668   5.864   6.285   1.407 -1.3690 -2.0001 -0.9519
12751TIP3    H259669   5.760   6.300   1.515 -0.9629 -1.2979 -0.6515
12752TIP3   OH259670   4.166   2.736  12.836 -0.4372  0.3474 -0.4581
12752TIP3    H159671   4.170   2.642  12.820 -0.2296  0.3190 -0.2400
12752TIP3    H259672   4.149   2.744  12.929 -0.3447  0.5274 -0.4558
12753TIP3   OH259673   4.166   1.812  11.973  0.2730 -0.5287 -0.6017
12753TIP3    H159674   4.249   1.763  11.968  0.5388 -0.2472  0.5657
12753TIP3    H259675   4.193   1.903  11.981 -0.0898 -0.5080  0.7532
12754TIP3   OH259676   3.684   2.985   4.251  0.1820  0.0431  0.0690
12754TIP3    H159677   3.602   2.995   4.204  0.5540  1.2759 -0.3580
12754TIP3    H259678   3.750   2.973   4.182  0.6820  1.5086  0.2514
12755TIP3   OH259679   6.799   6.035  14.854  0.3000  0.1924  0.6253
12755TIP3    H159680   6.811   6.049  14.948 -0.9669 -0.0452  0.8523
12755TIP3    H259681   6.750   5.952  14.849  0.9022 -0.1215 -0.2809
12756TIP3   OH259682   2.550   4.561   5.628 -0.2149 -0.0379 -0.4358
12756TIP3    H159683   2.589   4.487   5.676  0.0251  0.0401 -0.5098
12756TIP3    H259684   2.457   4.555   5.648 -0.1599 -0.1940 -0.2106
12757TIP3   OH259685   1.951   1.830   4.747  0.5527 -0.0808  0.5215
12757TIP3    H159686   1.940   1.747   4.701  2.6591 -0.3178  0.3354
12757TIP3    H259687   1.965   1.805   4.839 -0.6764  0.2091  0.8033
12758TIP3   OH259688   2.405   2.722   1.561  0.3411 -0.0248  0.5611
12758TIP3    H159689   2.314   2.745   1.544  0.0924  0.1335  1.9826
12758TIP3    H259690   2.454   2.760   1.488 -0.2018  3.9543  2.0330
12759TIP3   OH259691   3.638   0.376  14.628  0.0193  0.4127  0.1194
12759TIP3    H159692   3.675   0.331  14.704  1.3692  2.0968  0.5149
12759TIP3    H259693   3.617   0.305  14.566  1.6678 -0.7922  0.8703
12760TIP3   OH259694   1.878   1.511   0.142  0.1474  0.2094  0.2471
12760TIP3    H159695   1.860   1.535   0.051 -0.3823  1.9952  0.7694
12760TIP3    H259696   1.967   1.541   0.157  0.2542 -0.1360  0.3123
12761TIP3   OH259697   6.027   3.447  11.941  0.3949  0.3830  0.1043
12761TIP3    H159698   5.979   3.520  11.980 -2.2150  0.3372 -2.6528
12761TIP3    H259699   5.977   3.370  11.966  0.5347  0.0399 -0.6561
12762TIP3   OH259700   5.958   4.988   0.206  0.1643  0.2976  0.0751
12762TIP3    H159701   6.020   5.062   0.208 -3.1054  3.3062  1.7861
12762TIP3    H259702   5.901   5.007   0.131 -0.3333 -0.9268  0.1284
12763TIP3   OH259703   4.099   0.839  14.818 -0.5924 -0.4780  1.1377
12763TIP3    H159704   4.180   0.846  14.870 -1.3750  1.3522  2.1723
12763TIP3    H259705   4.128   0.803  14.734  0.9955 -1.7065  2.1369
12764TIP3   OH259706   2.084   3.394   1.183  0.3301  0.8286  0.5791
12764TIP3    H159707   2.071   3.367   1.274 -0.5070 -0.1880  0.1879
12764TIP3    H259708   2.152   3.335   1.150 -0.6639 -0.0824  0.0575
12765TIP3   OH259709   0.707   3.637   3.349  0.7668 -0.5742 -0.1163
12765TIP3    H159710   0.681   3.591   3.269  0.9346 -1.7140  0.4525
12765TIP3    H259711   0.707   3.729   3.325 -0.0725 -0.8234 -1.1764
12766TIP3   OH259712   3.951   2.537   3.472  0.1271 -0.4478 -0.1429
12766TIP3    H159713   3.991   2.504   3.391 -0.7072  2.6863 -1.9658
12766TIP3    H259714   4.014   2.601   3.505 -0.7074  0.1857  0.2489
12767TIP3   OH259715   2.385   1.230  16.422 -0.5770 -0.0193 -0.0685
12767TIP3    H159716   2.380   1.183  16.339 -0.5178  1.3844 -0.9063
12767TIP3    H259717   2.418   1.166  16.484 -0.6310 -1.1106 -1.1231
12768TIP3   OH259718   1.878   1.649  13.454  0.7264 -0.2765 -0.0307
12768TIP3    H159719   1.879   1.577  13.516 -0.0403 -1.5796 -1.4582
12768TIP3    H259720   1.793   1.692  13.468  0.2154 -1.0496 -0.6736
12769TIP3   OH259721   2.293   1.335   1.862  0.2254 -0.0223 -0.0074
12769TIP3    H159722   2.275   1.248   1.826 -2.2850  0.8546 -1.1667
12769TIP3    H259723   2.250   1.395   1.801  1.5782  2.0397  0.9386
12770TIP3   OH259724   2.141   0.428   5.627 -0.2046 -0.0500 -0.1116
12770TIP3    H159725   2.187   0.470   5.700 -1.1851  1.4751 -0.3351
12770TIP3    H259726   2.078   0.370   5.670  0.1514 -0.2017  0.2202
12771TIP3   OH259727   3.259   5.832   2.462 -0.5068 -0.2078 -0.3728
12771TIP3    H159728   3.264   5.900   2.395 -1.0321 -0.5117 -0.7257
12771TIP3    H259729   3.241   5.752   2.414  0.5354 -0.6822 -0.0001
12772TIP3   OH259730   1.721   0.093  14.601 -0.6624  0.1761  0.0790
12772TIP3    H159731   1.758   0.033  14.666  0.7071  1.5152  0.5999
12772TIP3    H259732   1.750   0.180  14.629 -1.3272  0.9444 -1.4781
12773TIP3   OH259733   4.896   1.144   2.141  0.1452 -0.1805 -0.2585
12773TIP3    H159734   4.853   1.191   2.070 -0.4820  0.9726  0.8559
12773TIP3    H259735   4.962   1.090   2.097 -1.0614 -0.4600 -1.8197
12774TIP3   OH259736   0.050   5.571  12.641  0.4723 -0.0246  0.2256
12774TIP3    H159737   0.078   5.661  12.655 -2.3146  0.8627  0.8184
12774TIP3    H259738   0.026   5.539  12.728 -0.7346 -0.4928 -0.2500
12775TIP3   OH259739   1.814   6.709   0.850 -0.2816 -0.6027 -0.1884
12775TIP3    H159740   1.780   6.621   0.865  0.2967 -0.5776  1.5327
12775TIP3    H259741   1.807   6.752   0.935 -0.2018  0.8978 -0.9126
12776TIP3   OH259742   3.582   6.372   2.225 -0.0102 -0.4377 -0.1924
12776TIP3    H159743   3.489   6.366   2.204 -0.6066 -4.6996  2.3996
12776TIP3    H259744   3.584   6.392   2.319  1.4530 -2.9454  0.4031
12777TIP3   OH259745   0.107   3.094   0.365 -0.0203  0.4558 -0.4924
12777TIP3    H159746   0.062   3.052   0.438 -0.3352 -1.3967 -1.6712
12777TIP3    H259747   0.200   3.093   0.390 -0.3415  2.2228  0.9605
12778TIP3   OH259748   6.268   4.006   2.259 -0.6608 -0.7430 -0.5015
12778TIP3    H159749   6.326   4.052   2.198  2.2565  1.1651  3.3056
12778TIP3    H259750   6.295   3.914   2.254  1.3945 -0.2027 -0.2621
12779TIP3   OH259751   1.302   6.614  16.475  0.7017  0.4317 -0.3645
12779TIP3    H159752   1.302   6.689  16.416 -0.4096 -0.3798 -1.4366
12779TIP3    H259753   1.263   6.648  16.556 -0.3612  0.8772 -1.0441
12780TIP3   OH259754   3.347   1.098  15.545 -0.2474 -0.2848  0.3106
12780TIP3    H159755   3.372   1.183  15.510 -1.1379 -0.4034 -0.6597
12780TIP3    H259756   3.422   1.070  15.597  0.3449  0.7612  0.0375
12781TIP3   OH259757   3.369   5.061   5.241 -0.2595 -0.0952 -0.6340
12781TIP3    H159758   3.403   4.992   5.184 -1.3113 -1.8579  0.7622
12781TIP3    H259759   3.426   5.059   5.318 -0.7862  0.0181 -0.2316
12782TIP3   OH259760   5.695   5.918   0.378  0.0129  0.1392 -0.1074
12782TIP3    H159761   5.719   5.993   0.431  2.4565 -0.7847  0.2198
12782TIP3    H259762   5.609   5.892   0.411 -1.9817  3.9478 -1.6583
12783TIP3   OH259763   0.343   2.294   1.012  0.0540  0.9517  0.1386
12783TIP3    H159764   0.425   2.271   1.054  0.3899  1.9540  0.0678
12783TIP3    H259765   0.345   2.251   0.927  1.2964  2.3143 -0.5704
12784TIP3   OH259766   2.250   3.628   3.418 -0.3449  0.1883 -0.5136
12784TIP3    H159767   2.255   3.557   3.353  0.0371 -0.0234 -0.2589
12784TIP3    H259768   2.328   3.616   3.471 -0.4157  0.6496 -0.3075
12785TIP3   OH259769   6.448   4.465  14.816  0.5143 -0.5292  0.0857
12785TIP3    H159770   6.523   4.524  14.824  0.7234 -0.1508 -3.4165
12785TIP3    H259771   6.380   4.517  14.774 -1.4194 -1.2003  2.1751
12786TIP3   OH259772   0.135   1.921  15.422 -0.1792  0.2375  0.9730
12786TIP3    H159773   0.088   1.920  15.506  1.9804  0.3466  2.2489
12786TIP3    H259774   0.169   1.832  15.413  3.2426  1.2456  2.4728
12787TIP3   OH259775   1.090   4.386   1.608 -0.3565 -0.3514 -0.5654
12787TIP3    H159776   1.092   4.299   1.647  0.1051  0.3501  1.0438
12787TIP3    H259777   1.115   4.445   1.679  1.2897  0.9329 -2.1346
12788TIP3   OH259778   5.936   6.133  12.057  0.4423  0.6273 -0.2261
12788TIP3    H159779   5.868   6.066  12.050 -0.8905  1.8537  0.6381
12788TIP3    H259780   5.916   6.196  11.988  1.2005  0.5797 -0.4991
12789TIP3   OH259781   4.296   1.384  13.821 -0.1716  0.2783 -0.0764
12789TIP3    H159782   4.235   1.435  13.874  0.6783 -0.0178  1.2381
12789TIP3    H259783   4.378   1.432  13.825  0.0767 -0.0952 -0.5757
12790TIP3   OH259784   4.377   6.713   2.284  0.0413  0.4168 -0.3998
12790TIP3    H159785   4.391   6.639   2.224 -0.4358  0.7622 -0.9445
12790TIP3    H259786   4.283   6.714   2.299 -0.1493  1.7468 -1.4948
12791TIP3   OH259787   5.398   5.937  14.846 -0.1418  0.3591  0.5529
12791TIP3    H159788   5.490   5.959  14.833  0.0288 -0.1750  0.8209
12791TIP3    H259789   5.364   5.921  14.758  0.3956 -0.8783  0.5534
12792TIP3   OH259790   0.014   1.197  11.726 -0.0462  0.2594 -0.2722
12792TIP3    H159791  -0.060   1.170  11.671  0.2806 -1.0584 -0.0867
12792TIP3    H259792  -0.024   1.206  11.813 -0.3009  1.1244 -0.4612
12793TIP3   OH259793   4.041   4.793   2.460  0.0873  0.6303 -0.1897
12793TIP3    H159794   4.077   4.881   2.448 -0.5994  1.0263  0.6136
12793TIP3    H259795   4.117   4.735   2.450  0.1034  1.0507 -3.5876
12794TIP3   OH259796   4.665   3.177  12.899  0.3324 -0.7921 -0.2172
12794TIP3    H159797   4.751   3.152  12.933  1.3621  2.1830 -0.3654
12794TIP3    H259798   4.632   3.241  12.962 -2.6301 -3.0014  0.7304
12795TIP3   OH259799   3.428   5.123   3.428  0.1834  0.6593  0.1424
12795TIP3    H159800   3.470   5.037   3.430 -1.1629 -0.0340  0.0441
12795TIP3    H259801   3.366   5.121   3.501  0.0230  1.4922  0.0404
12796TIP3   OH259802   1.142   5.753  12.892  0.3745  0.0805  0.0778
12796TIP3    H159803   1.218   5.810  12.907 -1.0570  2.0559  0.1613
12796TIP3    H259804   1.066   5.809  12.909 -1.1298 -2.0962  0.9235
12797TIP3   OH259805   1.296   1.983   5.444  0.4028 -0.4444 -0.4609
12797TIP3    H159806   1.369   2.002   5.385  0.4152  0.8658 -0.0509
12797TIP3    H259807   1.238   2.059   5.436 -0.8358 -1.3658 -0.6284
12798TIP3   OH259808   6.401   6.035   2.001 -0.0539 -0.3840  0.5524
12798TIP3    H159809   6.412   6.025   1.906 -0.7905  0.1788  0.3994
12798TIP3    H259810   6.380   5.946   2.032  1.1906 -0.7686  0.3485
12799TIP3   OH259811   3.143   6.604   4.050  0.1341 -0.2154 -0.1109
12799TIP3    H159812   3.071   6.604   3.987 -0.4305  0.9399  0.4974
12799TIP3    H259813   3.204   6.538   4.017  1.6427  2.7111 -3.9370
12800TIP3   OH259814   2.881   6.093  16.053  0.6442 -0.6191 -0.6312
12800TIP3    H159815   2.844   6.006  16.067 -0.0854 -0.0088  1.6537
12800TIP3    H259816   2.839   6.124  15.972 -0.7159 -1.5819 -0.3332
12801TIP3   OH259817   3.237   2.543   5.924 -0.5160  0.1155 -0.4544
12801TIP3    H159818   3.158   2.595   5.911 -0.4892  0.5221  0.8353
12801TIP3    H259819   3.293   2.598   5.979  0.4782 -0.3482 -0.9891
12802TIP3   OH259820   2.157   3.460   3.909  0.5882  0.0726  0.2985
12802TIP3    H159821   2.146   3.463   3.814  1.2343 -1.9500  0.1021
12802TIP3    H259822   2.217   3.531   3.928 -0.7449  1.4929 -0.5732
12803TIP3   OH259823   0.714   2.412  10.860 -0.0759  0.4331  0.1911
12803TIP3    H159824   0.688   2.381  10.947  0.6922 -0.1921  0.2064
12803TIP3    H259825   0.651   2.371  10.800  0.9607 -1.2739  0.1994
12804TIP3   OH259826   0.101   0.708   1.302  0.9774 -0.3121  0.6301
12804TIP3    H159827   0.086   0.628   1.352 -0.0840  1.9670  4.2795
12804TIP3    H259828   0.013   0.744   1.288  1.5550  1.5090  1.4574
12805TIP3   OH259829   6.593   2.654   1.638 -0.2737 -0.8471  0.4373
12805TIP3    H159830   6.576   2.620   1.550 -0.3107  0.9036 -0.2761
12805TIP3    H259831   6.534   2.605   1.695  0.1293 -2.3827 -0.4169
12806TIP3   OH259832   1.825   5.466  10.958 -0.3398 -0.1441  0.3278
12806TIP3    H159833   1.729   5.468  10.950 -0.6481 -0.7987  2.9227
12806TIP3    H259834   1.848   5.375  10.940 -0.1563  0.0685 -0.5444
12807TIP3   OH259835   1.395   4.764  11.906  0.2320 -0.5167 -0.0720
12807TIP3    H159836   1.432   4.765  11.818  1.2968  0.4406  0.3735
12807TIP3    H259837   1.467   4.736  11.962 -0.3726 -0.8767  0.5352
12808TIP3   OH259838   3.969   6.270   3.158 -0.2579  0.3559 -0.6707
12808TIP3    H159839   3.988   6.176   3.152  1.6878  0.4878  1.8116
12808TIP3    H259840   4.053   6.311   3.173 -1.4340  2.0866  1.8480
12809TIP3   OH259841   0.767   3.753  12.221  0.2021  0.3482 -0.5434
12809TIP3    H159842   0.737   3.838  12.189 -1.3039  0.5721  1.2992
12809TIP3    H259843   0.689   3.713  12.258  1.2662 -1.0878  0.2430
12810TIP3   OH259844   2.446   6.788   0.757 -0.1367  0.1565 -0.5616
12810TIP3    H159845   2.383   6.860   0.759 -1.0732 -0.6542  1.4570
12810TIP3    H259846   2.531   6.830   0.775 -0.7912  0.6909  1.5311
12811TIP3   OH259847   5.685   0.753   2.806 -0.0526 -0.2221  0.2740
12811TIP3    H159848   5.717   0.760   2.716 -1.3443 -0.8369 -0.2683
12811TIP3    H259849   5.727   0.824   2.853 -1.4876  1.9185 -1.4839
12812TIP3   OH259850   6.427   2.725   5.232  0.3826  0.0961 -0.7379
12812TIP3    H159851   6.375   2.705   5.310 -0.0836 -2.0511 -1.5369
12812TIP3    H259852   6.471   2.807   5.254  0.8513 -0.7726  2.1118
12813TIP3   OH259853   3.215   3.840   0.038  0.0733  0.1018  0.5648
12813TIP3    H159854   3.177   3.763   0.081  0.9676 -0.0703  1.0928
12813TIP3    H259855   3.142   3.899   0.024 -0.3375 -0.0816  1.8350
12814TIP3   OH259856   2.190   1.121   1.196 -0.6919  0.6232  0.8798
12814TIP3    H159857   2.094   1.117   1.192 -0.6334 -0.3558 -1.9191
12814TIP3    H259858   2.218   1.097   1.108  2.1614  0.8175  1.6498
12815TIP3   OH259859   5.221   5.337   3.354 -0.1501 -0.3675  0.0775
12815TIP3    H159860   5.222   5.371   3.443  1.3593 -0.4903  0.1290
12815TIP3    H259861   5.218   5.242   3.364  0.5559 -0.4001  0.0143
12816TIP3   OH259862   3.893   4.658  10.048 -0.5240  0.3082 -0.2759
12816TIP3    H159863   3.854   4.645  10.135 -1.0785  0.7798 -0.4475
12816TIP3    H259864   3.916   4.750  10.046 -0.9024  0.3939 -0.7882
12817TIP3   OH259865   2.229   5.642   0.438 -0.1832  0.0782 -0.4779
12817TIP3    H159866   2.257   5.646   0.347  0.0912  1.9745 -0.3675
12817TIP3    H259867   2.300   5.599   0.484  0.0263 -0.1843 -1.0452
12818TIP3   OH259868   5.339   5.370  14.955 -0.1040 -0.1697 -0.4302
12818TIP3    H159869   5.285   5.324  14.891 -1.6254 -1.9929  1.9644
12818TIP3    H259870   5.287   5.446  14.981  0.1473  0.1128 -0.7397
12819TIP3   OH259871   2.421   2.972  11.189 -0.0120 -0.1880  0.8331
12819TIP3    H159872   2.391   3.006  11.274  0.8951  0.7532  0.7974
12819TIP3    H259873   2.441   3.050  11.138  0.8017 -0.7658  0.2500
12820TIP3   OH259874   4.246   3.930   2.686  0.4106 -0.7347 -0.1462
12820TIP3    H159875   4.219   3.883   2.607  1.0426 -1.9913  0.3557
12820TIP3    H259876   4.232   3.868   2.757  0.5651  0.1152  0.6496
12821TIP3   OH259877   3.635   3.699   1.724  0.1033 -0.4995 -0.6004
12821TIP3    H159878   3.701   3.766   1.705 -1.8944  1.5467 -0.7551
12821TIP3    H259879   3.680   3.638   1.783  1.9526  1.0865 -0.2419
12822TIP3   OH259880   0.923   0.412  12.256 -0.2570 -0.1905  0.4190
12822TIP3    H159881   0.944   0.500  12.226  0.1566 -0.8067 -1.1777
12822TIP3    H259882   0.850   0.424  12.316  0.4895  1.3394  1.0671
12823TIP3   OH259883   3.995   5.937   1.037 -0.3348  0.2866  0.1499
12823TIP3    H159884   3.996   5.975   1.125  2.0194 -0.2255  0.4128
12823TIP3    H259885   4.060   5.988   0.989  1.3352 -1.9310 -0.1031
12824TIP3   OH259886   2.740   0.007  11.403 -0.1982 -0.0790 -0.0138
12824TIP3    H159887   2.736  -0.044  11.323 -0.6522  0.2971 -0.2384
12824TIP3    H259888   2.832   0.004  11.430  0.0636  0.2463 -0.8473
12825TIP3   OH259889   0.182   6.126   4.980  0.8573  0.6679  0.4853
12825TIP3    H159890   0.241   6.132   5.055  1.2222  0.5470  0.2076
12825TIP3    H259891   0.236   6.148   4.904  0.5755  0.4533  0.2199
12826TIP3   OH259892   3.298   1.534   0.421 -0.1496 -0.2629 -0.6515
12826TIP3    H159893   3.361   1.488   0.477  2.1135  1.2899 -1.7385
12826TIP3    H259894   3.297   1.623   0.455 -3.8454 -0.7406  0.9235
12827TIP3   OH259895   5.510   0.853  14.923  0.1787  0.4087 -0.2910
12827TIP3    H159896   5.589   0.880  14.876  0.5478  0.6320  0.4480
12827TIP3    H259897   5.542   0.818  15.006 -0.4591 -0.0651 -0.2389
12828TIP3   OH259898   2.532   5.856  12.467  0.1590  0.4963 -0.6143
12828TIP3    H159899   2.615   5.889  12.431  2.1440 -2.0037  1.2306
12828TIP3    H259900   2.547   5.854  12.562 -1.3072 -1.6493 -0.3515
12829TIP3   OH259901   0.102   4.180  16.414  0.1336  0.0902 -0.8925
12829TIP3    H159902   0.121   4.218  16.329 -0.6207 -1.6749 -1.8958
12829TIP3    H259903   0.062   4.096  16.395  0.9407 -0.8593  1.2134
12830TIP3   OH259904   4.870   4.007  11.357  0.9581  0.0858  0.9411
12830TIP3    H159905   4.914   4.014  11.442  1.7667 -0.1648  0.5578
12830TIP3    H259906   4.939   3.979  11.297  0.4108  0.3264  0.1852
12831TIP3   OH259907   3.487   0.619   5.812 -0.3533 -0.2811 -0.5763
12831TIP3    H159908   3.575   0.642   5.844 -0.3352  0.6596 -1.2581
12831TIP3    H259909   3.431   0.686   5.850 -0.5695 -0.0921 -1.2215
12832TIP3   OH259910   6.583   2.305  13.969 -0.3471 -0.5357  0.8284
12832TIP3    H159911   6.499   2.294  13.926 -0.2125  0.0113  0.4144
12832TIP3    H259912   6.639   2.236  13.932 -1.1741 -2.2689  2.6262
12833TIP3   OH259913   0.907   1.818   2.911  0.3287 -0.5492  0.1082
12833TIP3    H159914   0.985   1.828   2.856  1.0011 -1.0067  0.9490
12833TIP3    H259915   0.834   1.821   2.850  0.9827  0.2431 -0.6644
12834TIP3   OH259916   0.019   5.125   1.918 -0.2248  0.2450 -0.1102
12834TIP3    H159917   0.106   5.159   1.936 -0.1328 -0.6142  1.1392
12834TIP3    H259918   0.034   5.035   1.887 -0.6318  0.3748 -0.7131
12835TIP3   OH259919   4.046   3.478  12.862  0.5658 -0.0995 -0.1953
12835TIP3    H159920   4.089   3.554  12.823 -1.0654  1.3200  0.6535
12835TIP3    H259921   3.953   3.501  12.865  0.3244 -1.0653  2.3666
12836TIP3   OH259922   4.633   4.365   5.250 -0.0993  0.0984 -0.0833
12836TIP3    H159923   4.614   4.314   5.329  0.1383  2.7173  1.8106
12836TIP3    H259924   4.725   4.348   5.232  0.0200 -0.0054  0.6166
12837TIP3   OH259925   3.504   2.982  14.804 -0.1595  0.2371  0.3299
12837TIP3    H159926   3.563   2.938  14.743  0.5407  0.4561  0.8390
12837TIP3    H259927   3.501   2.926  14.881  0.8040  1.0911  1.0172
12838TIP3   OH259928   6.272   2.978  15.409  0.4289  0.4276 -0.5136
12838TIP3    H159929   6.280   2.931  15.326 -2.6818 -1.4699  0.0890
12838TIP3    H259930   6.297   2.913  15.475 -1.2399  0.4829  0.2012
12839TIP3   OH259931   1.627   4.080   2.341 -0.0070  0.4633  0.0392
12839TIP3    H159932   1.532   4.078   2.346  0.0662 -0.2573  2.0131
12839TIP3    H259933   1.655   4.124   2.422  1.3306  0.3287 -0.3231
12840TIP3   OH259934   3.755   2.253  10.743 -0.2232 -0.0217  0.4871
12840TIP3    H159935   3.666   2.273  10.714  0.0275  2.8519  1.3761
12840TIP3    H259936   3.801   2.228  10.663 -0.8333  2.6736 -0.8413
12841TIP3   OH259937   0.323   3.484  14.421  0.0831  0.4339 -0.1609
12841TIP3    H159938   0.294   3.540  14.493  0.4500  0.6370 -0.1649
12841TIP3    H259939   0.325   3.396  14.458 -2.9601 -0.0315 -0.8401
12842TIP3   OH259940   5.440   2.294  15.448 -0.2852  0.0313 -0.2667
12842TIP3    H159941   5.438   2.362  15.515  1.2574 -0.2536  0.1075
12842TIP3    H259942   5.462   2.340  15.368 -1.4915  0.2760 -0.4822
12843TIP3   OH259943   6.473   6.618  16.211 -0.5424  0.5665 -0.1219
12843TIP3    H159944   6.446   6.526  16.209 -2.2708  1.0436 -1.6833
12843TIP3    H259945   6.569   6.614  16.213 -0.5548 -1.2242  2.1092
12844TIP3   OH259946   2.435   2.634   5.658 -0.6728 -0.3310 -0.3554
12844TIP3    H159947   2.361   2.669   5.707 -0.7903  0.2043 -0.9041
12844TIP3    H259948   2.475   2.710   5.616  0.0205 -0.6483 -0.2971
12845TIP3   OH259949   3.137   6.631  10.707 -0.3541 -0.1239  0.1616
12845TIP3    H159950   3.132   6.723  10.681  0.8043 -0.0594  0.1170
12845TIP3    H259951   3.183   6.588  10.634  1.3692 -0.2619  1.2711
12846TIP3   OH259952   2.626   1.110   5.330  0.9601  0.3328  0.4259
12846TIP3    H159953   2.642   1.022   5.364  0.1588  0.1487  0.3644
12846TIP3    H259954   2.546   1.138   5.375  0.9349  0.8290  0.0787
12847TIP3   OH259955   3.957   2.377  12.865 -1.1285  0.5452 -0.2441
12847TIP3    H159956   3.958   2.419  12.951 -0.8488 -0.1251  0.0807
12847TIP3    H259957   4.042   2.398  12.827 -0.8421 -0.0329  0.0699
12848TIP3   OH259958   3.969   5.708  14.303  0.0263  0.0987 -0.6084
12848TIP3    H159959   3.912   5.786  14.301  0.4473  0.5509  1.7300
12848TIP3    H259960   4.037   5.731  14.366  1.3852 -1.3963 -1.4858
12849TIP3   OH259961   4.127   4.288  13.739  0.4901  0.0648 -0.1599
12849TIP3    H159962   4.084   4.205  13.717 -0.7203  0.6496 -0.0966
12849TIP3    H259963   4.065   4.333  13.797  1.4243  0.7308  0.3654
12850TIP3   OH259964   3.989   2.567  13.059  0.6356  0.3275  0.1629
12850TIP3    H159965   4.060   2.510  13.090  0.3307  0.0071  0.2811
12850TIP3    H259966   3.934   2.581  13.135 -0.5771 -1.1502 -0.3847
12851TIP3   OH259967   3.324   1.170   1.967 -0.3126 -0.4247 -0.5566
12851TIP3    H159968   3.241   1.145   1.926 -0.8046  0.9820 -0.4720
12851TIP3    H259969   3.373   1.212   1.896 -0.5297  0.6102 -0.1055
12852TIP3   OH259970   6.479   1.163  11.160  0.3971 -0.5658 -0.6130
12852TIP3    H159971   6.397   1.169  11.111  0.3086 -0.8350 -0.4975
12852TIP3    H259972   6.475   1.236  11.222 -0.3061 -1.3035  0.2205
12853TIP3   OH259973   5.163   3.210   4.787 -0.2529  0.0926 -0.3130
12853TIP3    H159974   5.238   3.201   4.845 -1.0910  0.3342  0.8451
12853TIP3    H259975   5.189   3.166   4.706  1.5496  1.1579 -0.3611
12854TIP3   OH259976   2.819   1.012  14.530 -0.6587  0.3781 -0.1089
12854TIP3    H159977   2.769   1.049  14.457 -1.5194 -0.0312  0.2558
12854TIP3    H259978   2.910   1.020  14.503 -0.9488  0.5027 -1.1037
12855TIP3   OH259979   0.943   3.751  10.969 -0.7642 -0.2710  0.1380
12855TIP3    H159980   0.964   3.815  10.901 -2.2752  1.1965  0.9875
12855TIP3    H259981   0.921   3.672  10.920 -0.9515  0.4792 -1.0405
12856TIP3   OH259982   5.762   3.819   0.418 -0.4180  0.0484  0.1700
12856TIP3    H159983   5.824   3.756   0.454 -1.4713 -0.8690  0.4431
12856TIP3    H259984   5.806   3.858   0.343 -0.0854 -1.7080 -0.5823
12857TIP3   OH259985   0.376   4.200  16.430 -0.2163 -0.5174  0.0721
12857TIP3    H159986   0.298   4.150  16.405 -0.6513 -1.0625  2.3256
12857TIP3    H259987   0.345   4.290  16.440 -0.2218 -0.4579 -0.4570
12858TIP3   OH259988   5.480   6.283  12.599  0.6570  0.7793 -0.2641
12858TIP3    H159989   5.446   6.197  12.576  1.6636  0.0384  0.8814
12858TIP3    H259990   5.461   6.339  12.524 -3.6855  0.6380  0.4830
12859TIP3   OH259991   5.580   2.661  10.865  0.1902 -0.2841  0.7858
12859TIP3    H159992   5.640   2.698  10.931 -0.7667 -0.0546  1.5584
12859TIP3    H259993   5.637   2.633  10.794  1.1932  0.1713  1.3815
12860TIP3   OH259994   5.502   2.020  14.208 -0.2612  0.2519 -0.0014
12860TIP3    H159995   5.444   2.069  14.266 -0.8267  0.0275 -0.3631
12860TIP3    H259996   5.443   1.978  14.145  0.2612 -0.3262 -0.1213
12861TIP3   OH259997   1.423   1.994  14.714  0.2853  0.1282 -0.4099
12861TIP3    H159998   1.384   1.908  14.697  0.7097  0.2839 -2.3541
12861TIP3    H259999   1.362   2.036  14.776 -0.7804 -0.9420 -0.6879
12862TIP3   OH260000   0.443   4.282  10.530 -0.0112 -0.3433 -0.1841
12862TIP3    H160001   0.456   4.187  10.536  2.7120 -0.1358 -1.4399
12862TIP3    H260002   0.484   4.307  10.447  0.7425  2.1077  0.8293
12863TIP3   OH260003   0.660   5.568  14.822 -0.5943 -0.4521 -0.1248
12863TIP3    H160004   0.591   5.605  14.877 -2.0430 -1.9525 -0.8303
12863TIP3    H260005   0.698   5.498  14.875  0.7218  0.6359  0.4201
12864TIP3   OH260006   6.306   2.569  11.752 -0.0418  0.0829  0.1553
12864TIP3    H160007   6.352   2.517  11.818  0.2279 -0.0837 -0.1637
12864TIP3    H260008   6.373   2.626  11.715 -0.4879  1.2081  1.0341
12865TIP3   OH260009   6.374   3.205   5.992  0.2278 -0.2149 -0.0179
12865TIP3    H160010   6.283   3.191   5.966  0.4116  1.6375 -1.9038
12865TIP3    H260011   6.401   3.121   6.029 -2.6981 -0.3405  2.2130
12866TIP3   OH260012   0.294   6.209  11.509 -0.3829  0.1412 -0.1083
12866TIP3    H160013   0.293   6.114  11.527 -1.2420  0.3099  0.8840
12866TIP3    H260014   0.281   6.216  11.415  0.9110 -0.7575 -0.3709
12867TIP3   OH260015   5.068   3.451  12.041  0.6110 -0.3826  0.0931
12867TIP3    H160016   5.099   3.416  12.125  0.1382 -0.4169  0.2579
12867TIP3    H260017   5.034   3.375  11.994 -1.7979 -0.0089  1.0493
12868TIP3   OH260018   6.286   4.619   6.388  0.3482 -0.1471 -0.4089
12868TIP3    H160019   6.242   4.535   6.402 -1.2532  0.1641 -2.8541
12868TIP3    H260020   6.246   4.678   6.451  0.0409 -0.7689 -0.0124
12869TIP3   OH260021   6.142   5.246   3.209  0.2224 -0.3949 -0.0039
12869TIP3    H160022   6.139   5.326   3.262  0.2369  0.1311 -0.7654
12869TIP3    H260023   6.189   5.183   3.262 -1.3076 -0.4638  1.3458
12870TIP3   OH260024   5.262   3.010   1.162  0.0964  0.0223  0.7400
12870TIP3    H160025   5.337   2.966   1.123 -0.5674  0.0165 -0.6038
12870TIP3    H260026   5.206   2.939   1.194 -0.3521 -0.0844 -0.2401
12871TIP3   OH260027   4.581   5.893   3.276 -0.0313  0.1172 -0.3929
12871TIP3    H160028   4.637   5.819   3.302 -1.9854 -1.7787 -1.2246
12871TIP3    H260029   4.528   5.911   3.353  1.1651  1.4546  0.1674
12872TIP3   OH260030   3.887   0.573  15.931 -0.1071  0.8843  0.2627
12872TIP3    H160031   3.976   0.539  15.927  0.1639  1.5984 -0.0551
12872TIP3    H260032   3.847   0.527  16.004  0.8208  1.2270  1.0134
12873TIP3   OH260033   0.419   4.041  11.221 -0.4377 -0.1498 -0.4534
12873TIP3    H160034   0.410   4.089  11.139  0.4975  1.6183  0.4373
12873TIP3    H260035   0.423   3.949  11.194 -1.1592  0.3099 -2.2911
12874TIP3   OH260036   2.747   4.148   1.537  0.2381  0.1307  0.0460
12874TIP3    H160037   2.736   4.054   1.523 -0.1990 -0.4923  3.5883
12874TIP3    H260038   2.660   4.186   1.521  0.4033 -0.0509 -1.3321
12875TIP3   OH260039   4.913   1.793   5.708  0.2860 -0.0977  0.1916
12875TIP3    H160040   4.940   1.745   5.786  1.0189 -0.9350 -0.5546
12875TIP3    H260041   4.952   1.745   5.635 -2.3090 -0.7524 -0.8948
12876TIP3   OH260042   2.036   5.545  10.761 -0.1138 -0.1679  0.1705
12876TIP3    H160043   1.960   5.510  10.808 -0.0367  0.8390  1.0765
12876TIP3    H260044   2.000   5.614  10.705  0.2481  1.1865  1.5318
12877TIP3   OH260045   0.498   0.774   2.742  0.4537  0.1726  0.0503
12877TIP3    H160046   0.551   0.755   2.819 -0.6739  3.2723  1.7719
12877TIP3    H260047   0.411   0.740   2.763  0.5968 -0.7114 -0.7347
12878TIP3   OH260048   1.705   1.258  14.784  0.0180 -0.6851 -0.2306
12878TIP3    H160049   1.769   1.324  14.813 -0.3789 -0.6959  0.7001
12878TIP3    H260050   1.620   1.296  14.805 -0.2520 -1.0815 -0.5910
12879TIP3   OH260051   4.711   1.608  12.943 -0.1101  0.4858 -0.1983
12879TIP3    H160052   4.622   1.640  12.951  0.0805  0.9083  0.3078
12879TIP3    H260053   4.709   1.521  12.982 -0.7524 -0.3862 -2.0733
12880TIP3   OH260054   1.849   6.323   3.631  0.0833 -0.0727 -0.0124
12880TIP3    H160055   1.911   6.297   3.562  0.2917  0.9173 -0.2072
12880TIP3    H260056   1.843   6.418   3.623 -1.2955 -0.1317  0.1477
12881TIP3   OH260057   1.626   1.070   5.227 -0.7158  0.2109  0.4141
12881TIP3    H160058   1.692   1.102   5.165  1.4425 -1.6993  1.5729
12881TIP3    H260059   1.605   1.146   5.281  0.9057  0.7812  0.2984
12882TIP3   OH260060   0.085   6.430  11.528  0.0738  0.0328  0.3052
12882TIP3    H160061   0.157   6.370  11.505 -0.8230 -0.2263 -2.1860
12882TIP3    H260062   0.123   6.489  11.593  1.7375 -1.6767  0.9917
12883TIP3   OH260063   2.981   0.434  13.572  0.4748 -0.3462  0.3401
12883TIP3    H160064   2.960   0.420  13.664  0.5570 -1.5558  0.1942
12883TIP3    H260065   2.938   0.362  13.526  0.3642  0.2933 -0.5810
12884TIP3   OH260066   2.926   2.763   3.122  0.7396  0.1892 -0.1474
12884TIP3    H160067   2.945   2.848   3.082 -0.4750  0.7188  0.3501
12884TIP3    H260068   2.873   2.717   3.057 -0.6092  0.7629  0.5000
12885TIP3   OH260069   3.497   0.791   1.314  0.0933 -0.2850  0.0652
12885TIP3    H160070   3.422   0.731   1.318 -0.0814 -0.1180 -0.6641
12885TIP3    H260071   3.491   0.832   1.228  0.4348  0.5019  0.4071
12886TIP3   OH260072   4.321   4.023   0.941 -0.0695  0.6889  0.2908
12886TIP3    H160073   4.244   4.079   0.945 -0.5760  0.0832 -0.6529
12886TIP3    H260074   4.368   4.041   1.023 -1.2092  1.0479  0.8854
12887TIP3   OH260075   0.455   5.504   5.793  0.4431  0.4012  0.0893
12887TIP3    H160076   0.373   5.506   5.843  0.6046  2.0109  0.3286
12887TIP3    H260077   0.516   5.457   5.850 -0.9681 -3.5567 -1.2861
12888TIP3   OH260078   3.161   1.367  15.454 -0.3480  0.0838  0.1845
12888TIP3    H160079   3.250   1.395  15.476 -0.1255 -0.5146  0.0826
12888TIP3    H260080   3.128   1.434  15.395  0.0626  0.2775  0.1735
12889TIP3   OH260081   5.411   1.309   5.164 -0.1888  0.2645  0.1694
12889TIP3    H160082   5.388   1.224   5.127 -0.9403  0.2399  0.6764
12889TIP3    H260083   5.501   1.325   5.133  0.5050 -1.3589  1.2348
12890TIP3   OH260084   1.954   0.972  10.782  0.0537 -0.3460  0.1416
12890TIP3    H160085   1.964   0.883  10.748  0.7003 -0.2183 -0.0126
12890TIP3    H260086   1.901   0.961  10.861 -0.5558 -0.7721 -0.3111
12891TIP3   OH260087   4.139   0.926   3.919 -0.1624 -0.4032 -0.4975
12891TIP3    H160088   4.105   0.962   3.836 -0.8491 -0.0083 -0.0597
12891TIP3    H260089   4.061   0.914   3.973  0.3313 -0.0848  0.3082
12892TIP3   OH260090   0.432   4.080   2.339  0.0107  0.4608  0.3093
12892TIP3    H160091   0.516   4.084   2.293  0.0005  0.8161  0.3126
12892TIP3    H260092   0.367   4.066   2.270  0.1478 -0.6699  0.3965
12893TIP3   OH260093   4.130   6.208   3.750  0.0701 -0.5344  0.4720
12893TIP3    H160094   4.076   6.287   3.740 -2.6216 -2.1099  1.5005
12893TIP3    H260095   4.205   6.237   3.802 -0.5626  1.4269  0.3873
12894TIP3   OH260096   2.034   5.522   5.564 -0.3026 -0.4978 -0.1403
12894TIP3    H160097   2.027   5.455   5.497 -0.4301 -2.6620  1.9133
12894TIP3    H260098   2.093   5.588   5.526 -0.9844 -1.2072 -2.6213
12895TIP3   OH260099   0.292   1.094  13.291  0.1603  0.1889 -0.2141
12895TIP3    H160100   0.355   1.157  13.328 -2.5426  1.8549  1.8962
12895TIP3    H260101   0.319   1.010  13.328  0.7269  0.9779  1.2884
12896TIP3   OH260102   1.514   2.409  14.422 -0.2991 -0.0131 -0.0090
12896TIP3    H160103   1.489   2.501  14.427 -0.8899 -0.1762  0.0655
12896TIP3    H260104   1.513   2.378  14.512  2.7400  0.6223  0.3709
12897TIP3   OH260105   2.162   1.238  13.585 -0.2313  0.1393 -0.2644
12897TIP3    H160106   2.202   1.186  13.654  0.1469  0.7042 -0.0508
12897TIP3    H260107   2.068   1.231  13.600 -0.1351  1.9853  1.6388
12898TIP3   OH260108   2.011   6.353   3.394  0.3322  0.1936 -0.2303
12898TIP3    H160109   2.084   6.327   3.337  1.8166 -0.0395  1.6843
12898TIP3    H260110   1.975   6.432   3.353  2.0684  0.6799 -0.8957
12899TIP3   OH260111   1.987   1.771   3.252  0.3851 -0.0912 -0.0889
12899TIP3    H160112   1.977   1.866   3.248  0.4782 -0.0587  0.3717
12899TIP3    H260113   1.960   1.747   3.341  1.6011 -0.3273  0.2508
12900TIP3   OH260114   0.566   4.783   1.810  0.1807 -0.4605 -0.4187
12900TIP3    H160115   0.618   4.722   1.756  0.1425 -0.4192 -0.5020
12900TIP3    H260116   0.630   4.822   1.870  0.3407 -0.0362 -0.8556
12901TIP3   OH260117   2.222   3.955  16.795  0.0783 -0.2267 -0.3033
12901TIP3    H160118   2.183   3.896  16.860  1.6739 -1.7612 -0.6602
12901TIP3    H260119   2.156   3.960  16.725  0.5373 -3.0705 -1.0654
12902TIP3   OH260120   0.890   3.346  12.672 -0.1573  0.1823 -0.4796
12902TIP3    H160121   0.929   3.270  12.713 -1.2568  0.1479  0.5615
12902TIP3    H260122   0.936   3.421  12.712 -1.0553  0.1414  0.6994
12903TIP3   OH260123   4.308   2.961  15.511  0.2005  0.1157 -0.5317
12903TIP3    H160124   4.285   3.046  15.473 -0.1581  0.2208 -0.0783
12903TIP3    H260125   4.367   2.921  15.446 -0.6784  0.1465 -1.3760
12904TIP3   OH260126   5.134   0.114   2.653 -0.2017 -0.8271 -0.1628
12904TIP3    H160127   5.194   0.183   2.684 -0.3369 -0.1163 -1.4279
12904TIP3    H260128   5.090   0.085   2.733 -0.3860  0.7997  0.3804
12905TIP3   OH260129   1.280   1.187   0.563 -0.1194 -0.6504  0.0220
12905TIP3    H160130   1.358   1.193   0.508 -0.1444  1.1370  0.1373
12905TIP3    H260131   1.243   1.275   0.561 -1.6189 -1.2434  0.7330
12906TIP3   OH260132   2.130   0.256  15.413 -0.0936 -0.3550  0.7506
12906TIP3    H160133   2.139   0.315  15.338  1.0342 -0.2192  0.9725
12906TIP3    H260134   2.216   0.258  15.456 -0.6344 -0.6299  1.9031
12907TIP3   OH260135   6.170   4.687  11.021  0.6895 -0.8598  0.8833
12907TIP3    H160136   6.232   4.739  11.072  0.7428 -0.8854  0.8461
12907TIP3    H260137   6.084   4.715  11.050  0.5353  2.2839 -2.0506
12908TIP3   OH260138   3.242   2.195  14.289  0.2240  0.4912  0.0206
12908TIP3    H160139   3.265   2.190  14.382 -1.0671 -2.0040  0.2711
12908TIP3    H260140   3.162   2.248  14.288 -0.8519 -1.0624  0.6041
12909TIP3   OH260141   3.376   6.553   5.259 -0.1262  0.6087  0.1688
12909TIP3    H160142   3.331   6.624   5.212  0.5316  0.6633 -0.4042
12909TIP3    H260143   3.468   6.564   5.236  0.0693 -0.0362  0.6103
12910TIP3   OH260144   4.046   5.813   0.632 -0.4474  0.3312 -0.2957
12910TIP3    H160145   3.988   5.876   0.675 -0.4702  0.1996 -0.1319
12910TIP3    H260146   4.015   5.727   0.662 -0.2581  0.2544 -0.3168
12911TIP3   OH260147   5.260   1.213  10.410 -0.3665  0.0948  0.1384
12911TIP3    H160148   5.284   1.122  10.423  0.3872 -0.0292 -1.8484
12911TIP3    H260149   5.317   1.244  10.340 -1.0890  1.8973  0.2828
12912TIP3   OH260150   0.307   4.379   1.693  0.1368  0.3455 -0.1872
12912TIP3    H160151   0.219   4.397   1.661  0.1085 -0.8439 -0.8567
12912TIP3    H260152   0.303   4.396   1.787 -0.6736  0.7513 -0.2910
12913TIP3   OH260153   2.736   1.767   5.472  0.1694 -0.0160  0.8395
12913TIP3    H160154   2.703   1.720   5.395 -2.1028  2.1406  0.3933
12913TIP3    H260155   2.670   1.754   5.539  0.2719  1.2068  1.2059
12914TIP3   OH260156   5.321   0.459   4.542  0.1504  0.8427  0.3428
12914TIP3    H160157   5.386   0.529   4.529  1.2520 -0.4106 -1.2148
12914TIP3    H260158   5.371   0.378   4.536 -1.7184 -0.2553 -2.6068
12915TIP3   OH260159   6.573   2.931  13.763 -0.2545  0.0650 -0.1558
12915TIP3    H160160   6.661   2.895  13.754 -0.5037 -0.4109 -0.7730
12915TIP3    H260161   6.541   2.896  13.847 -0.3740 -0.9246 -0.5912
12916TIP3   OH260162   5.310   5.043   2.751 -0.2738 -0.0314  0.1489
12916TIP3    H160163   5.312   5.085   2.665  0.1966  1.6745  0.9491
12916TIP3    H260164   5.242   5.090   2.799 -0.9993 -1.4108  0.5196
12917TIP3   OH260165   1.908   1.811   5.715  0.2572  0.2384 -0.5428
12917TIP3    H160166   1.970   1.782   5.648  0.9930 -0.0118  0.2310
12917TIP3    H260167   1.827   1.827   5.667 -0.3281 -3.3719 -1.0442
12918TIP3   OH260168   4.733   2.243  12.026  0.2538 -0.0446  0.1788
12918TIP3    H160169   4.760   2.321  11.978 -0.7371  0.4896  0.4710
12918TIP3    H260170   4.807   2.224  12.084  0.7342  0.3362 -0.3019
12919TIP3   OH260171   2.417   1.761  15.426  0.2009  0.2244 -0.5586
12919TIP3    H160172   2.483   1.826  15.449 -0.1589  0.0747  1.0162
12919TIP3    H260173   2.354   1.765  15.498 -0.6656 -0.7496 -1.2377
12920TIP3   OH260174   6.787   2.129  12.533 -0.1462  0.1533 -0.5379
12920TIP3    H160175   6.811   2.187  12.460  0.2317 -0.3878 -0.8521
12920TIP3    H260176   6.861   2.135  12.593 -0.5197  0.7068 -0.1217
12921TIP3   OH260177   1.958   5.649   0.512  0.1341  0.2735 -0.1366
12921TIP3    H160178   1.957   5.579   0.578 -2.1504  1.9850  1.8061
12921TIP3    H260179   2.051   5.667   0.497  0.7530 -2.1717  0.3458
12922TIP3   OH260180   2.771   2.428   1.643 -0.4747  0.5008 -0.1431
12922TIP3    H160181   2.860   2.462   1.647  0.1079 -0.9173 -0.4201
12922TIP3    H260182   2.719   2.489   1.695  0.5572  1.6405 -0.4127
12923TIP3   OH260183   4.118   4.225   0.997  0.3151 -1.3268  0.0614
12923TIP3    H160184   4.104   4.231   1.091  2.9309 -2.1224  0.5746
12923TIP3    H260185   4.182   4.294   0.977 -0.4808 -0.9177 -1.2210
12924TIP3   OH260186   5.861   3.164  10.868 -0.2337  0.0127  0.7599
12924TIP3    H160187   5.866   3.224  10.793 -2.0642  0.8853  1.2845
12924TIP3    H260188   5.898   3.082  10.835 -1.4904  0.2044 -1.3088
12925TIP3   OH260189   6.049   0.809   4.638 -0.2329  0.3328  0.5593
12925TIP3    H160190   6.003   0.869   4.696  0.9400  1.5999  0.2298
12925TIP3    H260191   6.137   0.801   4.675 -0.4148 -1.4207  0.7378
12926TIP3   OH260192   3.855   3.473   6.664 -0.4960  0.2201  0.2516
12926TIP3    H160193   3.942   3.452   6.631 -0.6388 -0.5920  0.3603
12926TIP3    H260194   3.865   3.558   6.708 -0.5037  1.8015 -2.6162
12927TIP3   OH260195   4.794   6.385   1.751  0.4165 -0.2866 -0.2709
12927TIP3    H160196   4.758   6.466   1.787 -1.3599 -0.3047 -1.8612
12927TIP3    H260197   4.855   6.354   1.818  0.5658  1.9466  0.7060
12928TIP3   OH260198   1.373   2.405   1.582 -0.3556 -0.1912  0.7454
12928TIP3    H160199   1.398   2.332   1.638 -0.3882 -0.7897  0.0006
12928TIP3    H260200   1.291   2.376   1.541 -0.0153 -0.0209 -0.0599
12929TIP3   OH260201   2.388   2.167  13.077  0.1839  0.2282 -0.2443
12929TIP3    H160202   2.460   2.211  13.122 -1.3866  1.0647  1.5528
12929TIP3    H260203   2.431   2.098  13.026  2.3453  1.4127 -0.1600
12930TIP3   OH260204   6.218   1.790   3.309  0.1194  0.0618 -0.3165
12930TIP3    H160205   6.209   1.697   3.326  1.4291 -0.3038 -1.4684
12930TIP3    H260206   6.253   1.795   3.220  0.4386  1.6380 -0.1308
12931TIP3   OH260207   4.593   3.553  14.147 -0.4101  0.1429 -0.3275
12931TIP3    H160208   4.640   3.500  14.210  0.3559  1.1617 -0.0256
12931TIP3    H260209   4.501   3.543  14.172 -0.3072 -1.1573 -0.3874
12932TIP3   OH260210   3.265   0.363  16.927 -0.2030 -0.0761  0.0401
12932TIP3    H160211   3.343   0.384  16.875 -0.2437  3.0038  1.0601
12932TIP3    H260212   3.283   0.398  17.014 -1.6877 -1.7344  1.0910
12933TIP3   OH260213   3.983   6.102  12.370 -0.0044  0.0868  0.2334
12933TIP3    H160214   3.953   6.129  12.457  0.0266 -1.5697  0.7920
12933TIP3    H260215   4.060   6.157  12.354  0.3393  0.0147  1.5174
12934TIP3   OH260216   4.635   0.798  14.004  0.2864  0.1438 -0.0924
12934TIP3    H160217   4.543   0.822  14.015  0.6583  1.6101  0.0745
12934TIP3    H260218   4.684   0.873  14.040  1.5430 -0.5592 -0.2727
12935TIP3   OH260219   6.256   4.595   1.795  0.2393  0.3015  0.3677
12935TIP3    H160220   6.348   4.577   1.774  0.4391  1.3824  0.2998
12935TIP3    H260221   6.232   4.526   1.857  1.5352  0.8360  1.5068
12936TIP3   OH260222   5.115   1.263  11.421 -0.2298  0.2297 -0.4891
12936TIP3    H160223   5.139   1.217  11.340 -1.0632 -0.9838 -0.0764
12936TIP3    H260224   5.195   1.264  11.473  0.1739  0.5419 -1.1090
12937TIP3   OH260225   3.742   4.641  11.685  0.2032  0.1019 -0.4748
12937TIP3    H160226   3.756   4.734  11.671  0.5851 -0.1577 -2.0391
12937TIP3    H260227   3.818   4.599  11.643 -0.7461 -0.9727 -1.1816
12938TIP3   OH260228   0.766   5.510   0.450  0.2607 -0.1027  0.1246
12938TIP3    H160229   0.760   5.501   0.545  2.2020  0.7794  0.3799
12938TIP3    H260230   0.762   5.421   0.416 -0.3784 -0.4266  1.0284
12939TIP3   OH260231   4.481   0.179   5.144 -0.1819 -0.0008  0.3511
12939TIP3    H160232   4.465   0.267   5.180 -2.8705  0.7794 -2.3107
12939TIP3    H260233   4.574   0.179   5.121 -0.2114  2.3512 -0.0215
12940TIP3   OH260234   2.745   5.270  10.927  0.0321  0.1971 -0.2727
12940TIP3    H160235   2.771   5.356  10.961 -0.2218  1.3174 -2.7309
12940TIP3    H260236   2.651   5.278  10.910 -0.2590 -1.0127  0.6321
12941TIP3   OH260237   2.124   1.473   4.980  0.0536 -0.1307  0.1896
12941TIP3    H160238   2.179   1.416   5.033 -1.4132 -1.5932  0.2047
12941TIP3    H260239   2.158   1.463   4.891 -0.3326 -1.2275  0.1570
12942TIP3   OH260240   0.742   3.139   3.970 -0.3441 -0.0050 -0.1317
12942TIP3    H160241   0.734   3.101   4.058  1.7669  0.2556  0.2118
12942TIP3    H260242   0.733   3.064   3.911 -1.1088 -0.2799  0.3172
12943TIP3   OH260243   3.514   3.884   5.616  0.3185 -1.0423 -0.3750
12943TIP3    H160244   3.608   3.905   5.616  0.7447 -2.7928 -0.1455
12943TIP3    H260245   3.498   3.847   5.703 -0.5553 -0.9196 -0.4794
12944TIP3   OH260246   2.358   1.312   5.069  0.6125 -0.1808  0.2571
12944TIP3    H160247   2.332   1.254   5.140  0.6736  0.2987  0.6689
12944TIP3    H260248   2.415   1.377   5.110  0.3216  0.3382 -0.1506
12945TIP3   OH260249   3.524   0.085  16.232  0.0375  0.1600  0.1905
12945TIP3    H160250   3.590   0.026  16.194 -0.6044 -0.0932 -0.5649
12945TIP3    H260251   3.477   0.031  16.295  0.3719  0.2670  0.5357
12946TIP3   OH260252   2.227   6.334   3.205 -0.6282  0.4221  0.1546
12946TIP3    H160253   2.252   6.306   3.117 -0.4106  0.1129  0.3137
12946TIP3    H260254   2.310   6.342   3.252 -0.8558 -3.5853  1.6113
12947TIP3   OH260255   6.017   2.635  15.305 -0.3925  0.4492  0.7813
12947TIP3    H160256   5.938   2.610  15.258 -0.2560 -1.8673  1.6316
12947TIP3    H260257   6.057   2.552  15.331  2.0382  1.5454  0.8840
12948TIP3   OH260258   5.942   4.619   0.183 -0.4529 -0.5653 -0.4683
12948TIP3    H160259   5.970   4.670   0.259 -1.6589 -2.4243  1.3417
12948TIP3    H260260   5.905   4.683   0.122 -1.2573  0.7974  1.3873
12949TIP3   OH260261   0.231   5.609   2.789  0.1698 -0.6255 -0.0765
12949TIP3    H160262   0.170   5.646   2.853  1.4226 -0.4971  1.0851
12949TIP3    H260263   0.248   5.520   2.820  1.9604 -0.0600  0.6714
12950TIP3   OH260264   6.439   4.827   2.609  0.2916 -0.1072  0.4449
12950TIP3    H160265   6.467   4.912   2.574  0.1212 -0.6239 -1.0015
12950TIP3    H260266   6.354   4.811   2.569  0.6699 -1.3048  0.0668
12951TIP3   OH260267   0.711   0.555  11.548 -0.1556 -0.2208  0.1838
12951TIP3    H160268   0.800   0.553  11.582  0.5571  1.9374 -1.3387
12951TIP3    H260269   0.684   0.463  11.546  2.3413 -1.0210 -0.0771
12952TIP3   OH260270   6.511   3.156  15.421  0.1630 -0.1899  0.3323
12952TIP3    H160271   6.423   3.123  15.401 -0.6940  2.0738  0.1468
12952TIP3    H260272   6.517   3.150  15.516 -0.1252 -0.4981  0.3355
12953TIP3   OH260273   3.119   6.308   1.023 -0.0280 -0.0299 -0.2135
12953TIP3    H160274   3.197   6.322   0.969  1.9174 -3.1760  1.4752
12953TIP3    H260275   3.084   6.224   0.992 -1.8050  0.5210  0.1953
12954TIP3   OH260276   5.572   0.366   3.078  0.4467  0.0937 -0.8538
12954TIP3    H160277   5.496   0.320   3.115  0.0882  1.6400  0.5040
12954TIP3    H260278   5.560   0.360   2.984 -1.5248  0.4867 -0.6737
12955TIP3   OH260279   4.760   6.648   0.926  0.7191  0.1984  0.6882
12955TIP3    H160280   4.688   6.705   0.899 -1.1733 -1.8582  1.1280
12955TIP3    H260281   4.810   6.633   0.846 -0.5990 -0.0200 -0.1199
12956TIP3   OH260282   2.765   2.582   5.333  0.2083  0.0313  0.3140
12956TIP3    H160283   2.811   2.635   5.268 -1.0991 -0.2582 -0.9139
12956TIP3    H260284   2.751   2.498   5.289 -1.6175  0.1781  0.5494
12957TIP3   OH260285   2.525   1.541  11.710  0.0303 -0.2806 -0.0994
12957TIP3    H160286   2.500   1.631  11.692  0.2256  0.2041  1.8326
12957TIP3    H260287   2.600   1.525  11.653 -1.5644 -0.1142 -2.3368
12958TIP3   OH260288   0.529   2.960  14.604 -0.1964  0.1897 -0.3224
12958TIP3    H160289   0.441   2.981  14.635 -0.2173 -1.1048  0.5938
12958TIP3    H260290   0.543   2.869  14.632  0.5604 -0.4145 -2.4181
12959TIP3   OH260291   6.700   6.053   1.302  0.1419  0.0827  0.0193
12959TIP3    H160292   6.660   6.122   1.355  0.0276  0.7171 -0.8808
12959TIP3    H260293   6.640   5.979   1.311 -0.3596  0.4831  0.0434
12960TIP3   OH260294   4.737   2.409  15.940 -0.3438  0.2969  0.3781
12960TIP3    H160295   4.790   2.471  15.891  0.4717  0.1037  1.0034
12960TIP3    H260296   4.676   2.374  15.875 -1.0579  1.9891  0.0870
12961TIP3   OH260297   0.050   0.209   3.637 -0.0574  0.5832  0.2846
12961TIP3    H160298   0.060   0.119   3.604  3.1258  0.5903  0.9487
12961TIP3    H260299   0.078   0.203   3.729 -2.4740  1.7906  1.1702
12962TIP3   OH260300   1.850   6.081  13.199 -0.0476 -0.6059  0.4638
12962TIP3    H160301   1.767   6.035  13.188 -0.1458 -0.2103 -0.6139
12962TIP3    H260302   1.826   6.167  13.231  0.1588 -1.3438  2.8147
12963TIP3   OH260303   0.809   2.789   2.181 -0.3592 -0.1222 -0.1665
12963TIP3    H160304   0.776   2.878   2.193 -0.1555 -0.1997  1.1285
12963TIP3    H260305   0.744   2.746   2.125 -0.3915  0.8692 -0.9026
12964TIP3   OH260306   3.816   1.159  15.822  0.5814  0.4408 -0.2543
12964TIP3    H160307   3.870   1.233  15.850 -1.2931  1.9579 -0.4275
12964TIP3    H260308   3.797   1.177  15.730 -1.6376  0.9465  0.2375
12965TIP3   OH260309   2.109   5.411   2.343  1.0272 -0.4572 -0.2864
12965TIP3    H160310   2.033   5.354   2.355 -1.2868  2.1953 -1.1750
12965TIP3    H260311   2.171   5.383   2.411 -2.5259 -0.0396  3.5981
12966TIP3   OH260312   4.644   2.946  13.182 -0.5080  0.0755 -0.0930
12966TIP3    H160313   4.595   3.027  13.191 -0.2691  0.2757 -0.5267
12966TIP3    H260314   4.594   2.881  13.231 -1.0774  0.3316 -0.3319
12967TIP3   OH260315   3.012   3.328  14.124  0.0304 -0.0555  0.4975
12967TIP3    H160316   3.062   3.410  14.130  1.4617 -0.8301 -0.2775
12967TIP3    H260317   3.047   3.274  14.195 -1.2053  0.1329  1.2782
12968TIP3   OH260318   5.359   3.293  11.989  0.1945  0.5878 -0.0250
12968TIP3    H160319   5.340   3.352  11.915  0.1911 -1.2943 -1.6205
12968TIP3    H260320   5.444   3.255  11.967 -1.1513 -2.2990 -0.7373
12969TIP3   OH260321   4.724   4.960  15.945  0.2455  0.3525  0.3449
12969TIP3    H160322   4.741   4.973  16.038  0.6431 -2.8173  0.8366
12969TIP3    H260323   4.788   5.014  15.900  0.6700  1.2045  1.9099
12970TIP3   OH260324   3.610   4.067   5.181 -0.0639 -0.2555  0.6180
12970TIP3    H160325   3.634   4.081   5.272  0.8500  3.2282  0.0007
12970TIP3    H260326   3.544   4.135   5.163  1.0788  0.3243 -1.7251
12971TIP3   OH260327   2.913   6.203  16.304 -0.3527  0.0328  0.7678
12971TIP3    H160328   2.943   6.292  16.285  1.3090 -0.8248 -0.9190
12971TIP3    H260329   2.886   6.168  16.219  0.9142 -1.7290  1.0438
12972TIP3   OH260330   2.075   3.803  13.074  0.6317  0.2719  0.6006
12972TIP3    H160331   2.143   3.833  13.014 -0.1878  0.6599 -0.1618
12972TIP3    H260332   2.054   3.880  13.127 -0.6270  0.7620 -0.5484
12973TIP3   OH260333   2.671   3.246  16.446  0.3220 -0.0318  0.1126
12973TIP3    H160334   2.647   3.338  16.448 -1.0592 -0.3604 -0.2065
12973TIP3    H260335   2.618   3.209  16.375 -0.8443 -1.5039  1.6705
12974TIP3   OH260336   3.747   5.435   4.416  0.8358  0.2660  0.0167
12974TIP3    H160337   3.807   5.509   4.419 -0.8064  1.6191  1.5158
12974TIP3    H260338   3.703   5.436   4.501 -1.6660 -0.3364 -1.1792
12975TIP3   OH260339   3.048   5.245  12.186 -0.5416  0.5431 -0.5703
12975TIP3    H160340   2.978   5.225  12.248  1.1203  0.6057  1.4368
12975TIP3    H260341   3.126   5.203  12.224  0.7395  1.4234 -2.1119
12976TIP3   OH260342   5.501   1.077   3.803  0.0183 -0.2481 -0.1287
12976TIP3    H160343   5.432   1.140   3.825 -0.1178  0.0244 -1.2596
12976TIP3    H260344   5.462   0.992   3.822  0.1363 -0.0105  1.2356
12977TIP3   OH260345   0.545   4.978  11.262 -0.2858  0.6141 -0.1296
12977TIP3    H160346   0.507   5.065  11.260  0.7667  1.0796 -1.1214
12977TIP3    H260347   0.604   4.979  11.338 -0.1394  0.8433 -0.2432
12978TIP3   OH260348   4.890   3.519   3.818  0.3131  0.0720  0.0886
12978TIP3    H160349   4.932   3.589   3.867 -0.0953 -0.0891  0.6750
12978TIP3    H260350   4.816   3.561   3.774 -0.2142 -0.0759  0.8187
12979TIP3   OH260351   1.557   3.370   0.266 -0.4828  0.3497 -0.0857
12979TIP3    H160352   1.486   3.397   0.323  0.4659  0.3451  1.1296
12979TIP3    H260353   1.543   3.276   0.252  1.0053 -0.4100  2.7885
12980TIP3   OH260354   0.434   0.963  14.672  0.3700 -0.0172  0.1271
12980TIP3    H160355   0.382   0.976  14.593 -1.9085 -1.6647  1.2406
12980TIP3    H260356   0.467   0.874  14.665  3.0526  0.9332 -0.4622
12981TIP3   OH260357   5.958   0.482  16.641  0.0450  0.1621  0.3320
12981TIP3    H160358   6.028   0.478  16.705  0.2749 -0.6726  0.0493
12981TIP3    H260359   5.938   0.390  16.621  0.1325  0.3964 -0.9523
12982TIP3   OH260360   3.204   3.467   4.807 -0.2845 -0.6402 -0.1890
12982TIP3    H160361   3.157   3.439   4.885 -1.8290  0.8921 -0.5130
12982TIP3    H260362   3.177   3.558   4.793  0.5970 -0.5991 -2.0203
12983TIP3   OH260363   2.261   0.239  13.859 -0.2620  0.3666 -0.1714
12983TIP3    H160364   2.176   0.208  13.890 -0.4714  1.1629  0.0884
12983TIP3    H260365   2.313   0.160  13.845 -0.7555 -0.0858  0.5172
12984TIP3   OH260366   5.118   3.930  11.250 -0.6893 -0.3396  0.4948
12984TIP3    H160367   5.088   3.874  11.178 -0.6876  1.1662 -0.7395
12984TIP3    H260368   5.208   3.903  11.265 -1.0026 -1.3605  0.6629
12985TIP3   OH260369   2.472   6.731   2.331  0.1222  0.1731 -0.3891
12985TIP3    H160370   2.553   6.769   2.365  0.3247 -1.0294  0.5639
12985TIP3    H260371   2.404   6.794   2.355  0.6905  0.8986 -0.6514
12986TIP3   OH260372   2.466   2.624  14.564 -0.1440  0.1047 -0.1807
12986TIP3    H160373   2.466   2.663  14.477 -1.4870 -0.2541 -0.3642
12986TIP3    H260374   2.373   2.620  14.588  0.2057  0.2124  1.2735
12987TIP3   OH260375   5.069   5.717  12.332 -0.5185 -0.1974  0.3571
12987TIP3    H160376   5.044   5.625  12.322 -0.0690 -0.3451  0.5387
12987TIP3    H260377   5.164   5.717  12.320 -0.4633  0.1811  0.7699
12988TIP3   OH260378   5.011   6.369   5.438  0.3338  0.0392  0.2628
12988TIP3    H160379   4.985   6.303   5.503 -1.1925  1.1480  0.8375
12988TIP3    H260380   5.087   6.412   5.476 -0.8049  0.9744  1.5770
12989TIP3   OH260381   0.621   5.218  15.666  0.3197  0.3970 -0.1766
12989TIP3    H160382   0.624   5.303  15.621 -0.8581  1.1281  1.0511
12989TIP3    H260383   0.629   5.240  15.759  4.1852 -1.1713  0.0658
12990TIP3   OH260384   0.698   5.012  15.189 -0.3229  0.6929  0.4841
12990TIP3    H160385   0.627   4.955  15.219 -0.7367  0.9903  0.0836
12990TIP3    H260386   0.679   5.097  15.229  1.0969  0.2261  2.2868
12991TIP3   OH260387   0.722   4.060   4.320  0.5387  0.1540  0.1377
12991TIP3    H160388   0.756   3.971   4.330 -0.0440 -0.2402 -1.2202
12991TIP3    H260389   0.629   4.052   4.344  0.0942  0.0298 -1.5174
12992TIP3   OH260390   3.990   6.269  16.962 -0.4663 -0.0319  0.0248
12992TIP3    H160391   4.065   6.209  16.962 -0.3167  0.1301  1.3421
12992TIP3    H260392   3.924   6.225  17.016 -0.6134  0.6638  0.4230
12993TIP3   OH260393   2.922   0.385   1.653 -1.3102  1.1043  0.1180
12993TIP3    H160394   2.918   0.480   1.660 -1.9755  1.0318  0.8358
12993TIP3    H260395   2.832   0.358   1.632 -1.2937  0.5776  0.6960
12994TIP3   OH260396   2.019   1.959  16.902 -0.0041 -0.2802  0.0751
12994TIP3    H160397   1.964   1.956  16.980  0.4815 -0.4263  0.4168
12994TIP3    H260398   2.099   2.003  16.930  0.0860 -0.1324 -0.3994
12995TIP3   OH260399   1.191   5.404  14.806  0.5822  0.0774 -0.0574
12995TIP3    H160400   1.163   5.318  14.839  0.6704  0.4793  1.1221
12995TIP3    H260401   1.114   5.459  14.815  0.3258 -0.0194 -1.4424
12996TIP3   OH260402   4.335   0.959   4.522 -0.1532 -0.4416  0.1533
12996TIP3    H160403   4.364   1.048   4.503 -0.9419 -0.2893 -0.3694
12996TIP3    H260404   4.248   0.969   4.561 -1.4776 -1.0502 -2.3571
12997TIP3   OH260405   3.359   1.684  12.754  0.4364  0.0248 -0.1789
12997TIP3    H160406   3.330   1.701  12.664 -0.1741 -1.6881 -0.3477
12997TIP3    H260407   3.297   1.619  12.787  0.7473  0.5056  1.4421
12998TIP3   OH260408   1.881   0.787  15.724 -0.0636 -0.1070 -0.2988
12998TIP3    H160409   1.797   0.742  15.713  0.3520 -0.6115 -1.5780
12998TIP3    H260410   1.889   0.842  15.646  0.2043  0.9300  0.4451
12999TIP3   OH260411   6.672   1.094   4.389  0.1808 -0.1403 -0.4978
12999TIP3    H160412   6.688   1.018   4.333 -0.2528 -0.5594 -0.0554
12999TIP3    H260413   6.590   1.131   4.356 -0.3812 -0.7268  0.2228
13000TIP3   OH260414   6.391   4.370  15.886  0.4589  0.0627 -0.2644
13000TIP3    H160415   6.317   4.400  15.939 -0.4472 -0.3057 -1.3017
13000TIP3    H260416   6.465   4.422  15.918  0.0742 -0.5451  1.7599
13001TIP3   OH260417   6.375   6.741  16.436  0.2446 -0.0630  0.0443
13001TIP3    H160418   6.417   6.691  16.366 -0.0707 -0.0670 -0.1434
13001TIP3    H260419   6.395   6.833  16.415  1.9738 -0.1301  1.1125
13002TIP3   OH260420   4.236   0.507  13.091 -1.0622  0.3446 -0.4021
13002TIP3    H160421   4.167   0.460  13.138 -1.4423  1.9510  0.7223
13002TIP3    H260422   4.236   0.595  13.129  2.5542  0.0347  0.6635
13003TIP3   OH260423   4.725   4.908  15.173  0.2220 -0.4888 -0.2369
13003TIP3    H160424   4.799   4.889  15.230  1.1299  1.3648 -0.7185
13003TIP3    H260425   4.746   4.992  15.133 -2.4068  0.4232  0.0681
13004TIP3   OH260426   4.292   6.280  11.561 -0.1347 -0.5824  0.3910
13004TIP3    H160427   4.382   6.247  11.558  0.7106  1.6042 -1.7063
13004TIP3    H260428   4.294   6.359  11.507 -3.0839  0.1859  1.2388
13005TIP3   OH260429   3.598   4.561  12.483  0.4187 -0.1137 -0.0840
13005TIP3    H160430   3.653   4.550  12.560 -1.4319  1.2583  1.5363
13005TIP3    H260431   3.634   4.637  12.438  0.4467  0.1647  0.4064
13006TIP3   OH260432   4.534   4.354  15.295  0.1399  0.5775 -0.1032
13006TIP3    H160433   4.577   4.408  15.230  0.1820  0.5350 -0.1104
13006TIP3    H260434   4.511   4.273  15.249 -0.4781  0.8328 -0.2618
13007TIP3   OH260435   2.199   6.018  13.577 -0.4490 -0.2142  0.7631
13007TIP3    H160436   2.104   6.016  13.590 -0.6644  1.9459 -0.0079
13007TIP3    H260437   2.235   6.005  13.665 -1.5180  0.6632  1.3654
13008TIP3   OH260438   0.045   1.281  15.545 -0.3607  0.0832 -0.1648
13008TIP3    H160439   0.007   1.314  15.626 -0.8952 -3.3475  1.1288
13008TIP3    H260440  -0.018   1.218  15.512  0.6671  0.0885 -2.3270
13009TIP3   OH260441   3.165   4.335   0.415 -0.0445  0.1432 -0.4046
13009TIP3    H160442   3.176   4.241   0.428  0.9499  0.3497  0.3843
13009TIP3    H260443   3.208   4.353   0.331 -0.0106 -0.0740 -0.4336
13010TIP3   OH260444   2.935   4.791   6.594 -0.2688  0.2519 -0.6609
13010TIP3    H160445   2.998   4.735   6.548  0.9286 -0.4575  1.7209
13010TIP3    H260446   2.972   4.879   6.588 -0.5507  0.3128 -1.7149
13011TIP3   OH260447   1.506   2.133  13.851 -0.2260 -0.0490  0.3237
13011TIP3    H160448   1.574   2.174  13.798 -0.5253  0.0721  0.0341
13011TIP3    H260449   1.439   2.106  13.788 -0.3724 -0.3175  0.5895
13012TIP3   OH260450   6.236   3.924  15.264 -0.1015  0.2809 -0.1754
13012TIP3    H160451   6.285   3.849  15.296  0.8165  0.3320 -1.3947
13012TIP3    H260452   6.302   3.984  15.230 -0.6940  2.2841  1.9764
13013TIP3   OH260453   6.225   4.935   4.535  0.3388 -0.0580  0.3461
13013TIP3    H160454   6.246   5.023   4.566  0.2361  0.1595 -0.1775
13013TIP3    H260455   6.275   4.926   4.454 -1.7378  0.5885 -1.1109
13014TIP3   OH260456   6.237   2.027  12.149 -0.2622 -0.0371  0.4085
13014TIP3    H160457   6.315   2.059  12.103 -1.5862  1.5940 -0.8203
13014TIP3    H260458   6.187   1.980  12.082 -0.3806 -1.0351  1.1732
13015TIP3   OH260459   2.792   2.987  10.471 -0.2311  0.3106  0.8030
13015TIP3    H160460   2.753   2.900  10.473 -1.7873  0.9738  0.5885
13015TIP3    H260461   2.795   3.015  10.563 -0.7951  0.4630  0.7827
13016TIP3   OH260462   0.567   4.046  12.129  0.0270  0.2850 -0.4429
13016TIP3    H160463   0.539   3.976  12.070  1.4060 -0.3335 -0.4155
13016TIP3    H260464   0.582   4.121  12.071  1.2791 -0.2899 -0.8984
13017TIP3   OH260465   3.037   1.024  11.283 -0.4793 -0.0305 -0.3407
13017TIP3    H160466   2.970   0.959  11.260 -1.1284  0.5287 -0.0887
13017TIP3    H260467   3.110   0.973  11.318 -1.4763 -0.5510  1.0679
13018TIP3   OH260468   3.428   2.451  12.222 -0.1505 -0.3554 -0.0289
13018TIP3    H160469   3.367   2.378  12.210 -1.7913  0.8976  0.3248
13018TIP3    H260470   3.382   2.512  12.279  1.4717  0.6404  0.2825
13019TIP3   OH260471   3.475   4.249   2.395  0.4445 -0.3118  0.5272
13019TIP3    H160472   3.422   4.265   2.473  0.4382  0.7558  0.3216
13019TIP3    H260473   3.457   4.158   2.372 -0.5453 -0.2572  1.0222
13020TIP3   OH260474   0.238   2.552   4.121 -0.2314 -0.3757 -0.0721
13020TIP3    H160475   0.328   2.544   4.153 -0.0308  1.4159 -0.0651
13020TIP3    H260476   0.214   2.464   4.093  1.6349 -0.8197 -0.3866
13021TIP3   OH260477   4.689   2.904   3.555  0.4855 -0.1367  0.1074
13021TIP3    H160478   4.716   2.944   3.472  3.0483  0.9082  1.3381
13021TIP3    H260479   4.596   2.927   3.563  0.0606 -0.5863 -2.5856
13022TIP3   OH260480   5.548   2.498   4.956  0.3508  0.1911  0.1531
13022TIP3    H160481   5.622   2.451   4.917 -1.4001 -1.7369 -1.0680
13022TIP3    H260482   5.520   2.559   4.888  0.4232  0.4738  0.3748
13023TIP3   OH260483   0.244   3.871  15.599  0.4083 -0.0398 -0.1129
13023TIP3    H160484   0.298   3.820  15.539 -2.0788  0.4691 -2.9473
13023TIP3    H260485   0.158   3.831  15.595 -1.0450  2.8681 -0.6396
13024TIP3   OH260486   5.315   0.492  11.101 -0.5113 -0.3870  0.8507
13024TIP3    H160487   5.313   0.401  11.071  3.0032  0.4117 -2.7324
13024TIP3    H260488   5.289   0.542  11.024  1.1697  1.6849  1.5453
13025TIP3   OH260489   6.513   0.262  12.673 -0.4518  0.4123  0.1609
13025TIP3    H160490   6.440   0.314  12.640 -0.4539  0.9804  1.0151
13025TIP3    H260491   6.497   0.174  12.639 -0.5943  0.9016 -1.0833
13026TIP3   OH260492   0.749   0.431  14.988  0.6484 -0.3770  0.1205
13026TIP3    H160493   0.803   0.471  15.055  1.3802  0.5079 -0.9542
13026TIP3    H260494   0.721   0.504  14.933  2.0070 -1.2691 -1.8948
13027TIP3   OH260495   4.609   4.453   3.933  0.0407  0.6740  0.2721
13027TIP3    H160496   4.638   4.474   3.844 -1.2472  0.1699 -0.2779
13027TIP3    H260497   4.583   4.538   3.970  1.4706  1.0308  0.5293
13028TIP3   OH260498   0.444   0.995  11.883  0.1521 -0.3746  0.0771
13028TIP3    H160499   0.444   1.087  11.858 -0.7664 -0.2103  0.6646
13028TIP3    H260500   0.357   0.963  11.860  0.4249 -1.0756 -0.0188
13029TIP3   OH260501   2.068   6.029  15.760  0.2456  0.0762 -0.2446
13029TIP3    H160502   1.985   5.983  15.771 -0.5727  1.3790 -0.6996
13029TIP3    H260503   2.047   6.101  15.701  2.0068 -0.3317 -1.4246
13030TIP3   OH260504   3.325   5.549   4.508  0.2393  0.1906  0.3140
13030TIP3    H160505   3.272   5.629   4.517  0.0961  0.0578  0.6921
13030TIP3    H260506   3.335   5.517   4.598  0.8868  0.1612  0.2393
13031TIP3   OH260507   3.805   1.219  12.269  0.3245  0.0530 -0.0375
13031TIP3    H160508   3.823   1.233  12.362  0.5463 -0.4508 -0.0031
13031TIP3    H260509   3.709   1.221  12.263  0.3228  0.7585  0.0871
13032TIP3   OH260510   5.900   2.389  16.893 -0.1721 -0.6485  0.5112
13032TIP3    H160511   5.948   2.406  16.812  2.1595 -0.5202  1.8216
13032TIP3    H260512   5.843   2.466  16.903  0.5136 -0.0055 -0.3232
13033TIP3   OH260513   4.450   1.106   5.996  0.3216 -0.0094  0.0567
13033TIP3    H160514   4.539   1.073   6.012  0.4359 -1.1643 -2.4079
13033TIP3    H260515   4.463   1.185   5.944 -0.0732  0.0563  0.0542
13034TIP3   OH260516   4.006   0.224  10.402 -0.2814 -0.2328  0.4676
13034TIP3    H160517   3.939   0.229  10.334 -0.5048  0.0883  0.7079
13034TIP3    H260518   4.088   0.216  10.354 -0.5484 -1.4323  0.1765
13035TIP3   OH260519   6.502   5.412  15.425  0.2909  0.2520 -0.0602
13035TIP3    H160520   6.560   5.422  15.501  0.9938 -0.6724 -0.4515
13035TIP3    H260521   6.553   5.361  15.362 -0.2432  1.1075 -1.2130
13036TIP3   OH260522   1.630   2.898   4.185 -0.4895 -0.4721  0.6516
13036TIP3    H160523   1.679   2.952   4.247 -0.5258  0.1727  0.1264
13036TIP3    H260524   1.621   2.813   4.229  1.3202 -0.7041  0.6582
13037TIP3   OH260525   5.982   2.366   0.255 -0.0369  0.2726 -0.0487
13037TIP3    H160526   5.979   2.290   0.314  1.6672  0.4055  0.2519
13037TIP3    H260527   5.959   2.331   0.169  0.4003 -0.5214  0.1500
13038TIP3   OH260528   2.641   5.325  10.304 -0.1317  0.2527  0.1268
13038TIP3    H160529   2.716   5.335  10.245  0.1920  0.7204  0.6188
13038TIP3    H260530   2.676   5.283  10.382 -0.2034  1.1912  0.6893
13039TIP3   OH260531   3.106   3.489   2.853 -0.4879  0.4799 -0.3691
13039TIP3    H160532   3.157   3.466   2.775 -0.8566 -1.2845 -0.1330
13039TIP3    H260533   3.169   3.529   2.913 -0.5421  3.6663 -2.2088
13040TIP3   OH260534   4.874   0.812   4.721  0.2254 -0.3101  0.0168
13040TIP3    H160535   4.866   0.726   4.763 -0.0830 -0.0924  0.4059
13040TIP3    H260536   4.810   0.810   4.650  0.5448 -0.5697 -0.2715
13041TIP3   OH260537   3.270   5.009   0.893  0.4553 -0.3562  0.0271
13041TIP3    H160538   3.308   5.014   0.981  0.6195 -0.3683 -0.0416
13041TIP3    H260539   3.303   5.088   0.849  1.5474 -1.0668 -0.4801
13042TIP3   OH260540   2.952   5.448   1.316 -0.3804 -0.7687  0.7010
13042TIP3    H160541   2.953   5.375   1.378 -2.5367 -0.7548  0.8178
13042TIP3    H260542   2.992   5.520   1.365 -2.0017 -0.7699  2.1326
13043TIP3   OH260543   6.101   6.071   0.571 -0.0564 -0.4035 -0.0775
13043TIP3    H160544   6.075   5.979   0.580 -0.7247 -0.5025 -2.3931
13043TIP3    H260545   6.170   6.082   0.636  0.4969 -2.7322 -0.1533
13044TIP3   OH260546   4.801   3.246   2.078  0.7105  0.1033  0.0693
13044TIP3    H160547   4.791   3.164   2.031 -1.5127  0.6574 -0.5156
13044TIP3    H260548   4.756   3.233   2.161 -0.0416  0.8500 -0.2079
13045TIP3   OH260549   0.213   5.437  13.751  0.0050  0.0605  0.0635
13045TIP3    H160550   0.253   5.453  13.665 -1.0360 -0.3338 -0.5176
13045TIP3    H260551   0.182   5.523  13.780  0.5214  0.2252  0.1361
13046TIP3   OH260552   3.177   5.448  11.172 -0.0175 -0.2612 -0.5931
13046TIP3    H160553   3.127   5.367  11.163 -1.7528  0.2552  2.7796
13046TIP3    H260554   3.268   5.422  11.158 -0.6502 -2.5150 -0.8543
13047TIP3   OH260555   2.820   3.971   4.393  0.3029 -0.4067 -0.0504
13047TIP3    H160556   2.843   3.967   4.300 -1.6333 -1.7875 -0.5277
13047TIP3    H260557   2.813   3.879   4.420 -0.2281 -0.0247  1.1793
13048TIP3   OH260558   3.155   4.636   0.729  0.0224  0.2802  0.0761
13048TIP3    H160559   3.106   4.558   0.753 -0.2039  0.7980  1.3511
13048TIP3    H260560   3.091   4.694   0.687 -0.1144  0.3160  0.3317
13049TIP3   OH260561   5.522   0.542  11.623  0.0161 -0.3770 -0.3507
13049TIP3    H160562   5.595   0.602  11.632 -0.4955 -0.0132  1.6799
13049TIP3    H260563   5.445   0.598  11.621 -0.3176 -0.8482 -0.8163
13050TIP3   OH260564   3.311   2.074  15.215 -0.2086 -0.6021 -0.7141
13050TIP3    H160565   3.298   1.992  15.262 -4.3097  0.0062 -0.4700
13050TIP3    H260566   3.320   2.047  15.123 -0.9251 -1.3657 -0.5744
13051TIP3   OH260567   5.125   4.248  14.806  0.6080 -0.2129  0.5202
13051TIP3    H160568   5.143   4.236  14.713  1.6766 -1.2382  0.8441
13051TIP3    H260569   5.075   4.330  14.810  2.1684  0.8510 -0.7812
13052TIP3   OH260570   5.269   6.384   3.494 -0.0879  0.2228 -0.4557
13052TIP3    H160571   5.362   6.404   3.498  0.0299 -0.5094  1.8354
13052TIP3    H260572   5.263   6.304   3.441  0.8334 -0.7601  0.8536
13053TIP3   OH260573   4.975   0.611   2.008  0.3345  0.1904  0.0886
13053TIP3    H160574   4.927   0.529   1.997  1.3513 -0.6604  1.6882
13053TIP3    H260575   5.033   0.615   1.932 -0.3786 -0.0726 -0.4864
13054TIP3   OH260576   0.299   4.722   3.345  0.3855  0.0426 -0.0182
13054TIP3    H160577   0.216   4.699   3.302  2.0451 -3.1183 -1.8587
13054TIP3    H260578   0.286   4.697   3.436 -1.3763  1.7538  0.2807
13055TIP3   OH260579   6.090   2.237  11.140 -0.6149 -0.5431 -0.0363
13055TIP3    H160580   6.119   2.228  11.231  1.0920 -0.2455 -0.5245
13055TIP3    H260581   6.072   2.147  11.113  3.0772 -1.2698 -0.6664
13056TIP3   OH260582   4.179   4.899   0.466 -0.4769 -0.0535 -0.0376
13056TIP3    H160583   4.268   4.866   0.454 -0.7215 -1.1386  0.9545
13056TIP3    H260584   4.139   4.838   0.527 -1.7938  0.6366 -0.1738
13057TIP3   OH260585   6.382   1.056  16.010  0.3297  0.2442  0.0044
13057TIP3    H160586   6.318   1.076  15.941 -0.2034 -1.8581 -0.1787
13057TIP3    H260587   6.441   0.992  15.971 -0.6113 -1.8129  1.7568
13058TIP3   OH260588   4.519   1.665  16.694 -0.3655 -0.3889  0.2409
13058TIP3    H160589   4.509   1.601  16.765 -1.0187 -1.1280 -0.4817
13058TIP3    H260590   4.518   1.611  16.614  0.0259  0.4521 -0.3414
13059TIP3   OH260591   4.769   5.702   3.372 -0.4523  0.1653  0.2601
13059TIP3    H160592   4.772   5.707   3.468  0.0654 -0.7157  0.3087
13059TIP3    H260593   4.841   5.643   3.349  0.8104  2.0323 -0.8348
13060TIP3   OH260594   3.375   5.347  14.308 -0.6102 -0.0997 -0.0386
13060TIP3    H160595   3.408   5.437  14.300 -0.8124  0.0700  0.8044
13060TIP3    H260596   3.389   5.325  14.401 -0.8192 -0.8350 -0.1750
13061TIP3   OH260597   1.048   2.747  15.013 -0.5000 -0.2552 -0.1555
13061TIP3    H160598   1.060   2.673  15.072  1.3055 -0.3436 -0.6015
13061TIP3    H260599   1.006   2.710  14.936 -0.9917 -0.5146  0.2280
13062TIP3   OH260600   2.971   1.826   0.341  0.2852  0.3666  0.2101
13062TIP3    H160601   2.989   1.838   0.434 -0.1189 -0.2944  0.3817
13062TIP3    H260602   3.058   1.823   0.300  0.7008 -2.9805  1.0577
13063TIP3   OH260603   3.234   4.572   3.275  0.0774  0.1225  0.2983
13063TIP3    H160604   3.311   4.574   3.218  0.4139  1.0631  0.7833
13063TIP3    H260605   3.261   4.520   3.351  0.2533  0.4878  0.4879
13064TIP3   OH260606   4.823   3.415   4.764  0.8077  0.5665  0.8420
13064TIP3    H160607   4.759   3.431   4.833 -0.0183  0.9384  0.0115
13064TIP3    H260608   4.798   3.331   4.726  1.4223  0.2315  1.1528
13065TIP3   OH260609   3.829   0.368  15.217  0.4047  0.3157 -0.2267
13065TIP3    H160610   3.735   0.360  15.233  0.2213 -0.4403 -1.5313
13065TIP3    H260611   3.867   0.378  15.304 -0.8604  0.4376  0.3395
13066TIP3   OH260612   3.090   5.583   3.456 -0.0200  0.0445 -0.1131
13066TIP3    H160613   3.083   5.492   3.427 -0.0760  0.0879 -0.2342
13066TIP3    H260614   3.000   5.617   3.452  0.0373  0.1733 -0.2864
13067TIP3   OH260615   1.391   3.553  14.562  0.6016  0.2445  0.2482
13067TIP3    H160616   1.388   3.567  14.656  2.0629 -1.4592  0.5940
13067TIP3    H260617   1.318   3.494  14.544 -0.5279  1.6312  0.0428
13068TIP3   OH260618   5.249   4.150  13.890  1.0998  0.5309 -0.0450
13068TIP3    H160619   5.224   4.242  13.891  1.6049  0.6748  1.1085
13068TIP3    H260620   5.276   4.133  13.800 -0.3451  1.1282 -0.6178
13069TIP3   OH260621   5.980   1.114   2.853  0.0077 -0.4573 -0.2975
13069TIP3    H160622   5.902   1.169   2.863  0.1353 -0.5477  1.6173
13069TIP3    H260623   6.030   1.156   2.783 -0.8516  0.6888 -0.2565
13070TIP3   OH260624   6.018   2.213  14.727  0.4057 -0.0221 -0.4173
13070TIP3    H160625   6.101   2.168  14.732  0.4643  0.1553  0.4459
13070TIP3    H260626   5.955   2.153  14.766  0.2979  0.2147 -0.2199
13071TIP3   OH260627   4.376   5.746  13.611 -0.1305 -0.1380  0.5820
13071TIP3    H160628   4.367   5.812  13.681 -1.1295 -0.4380  0.7469
13071TIP3    H260629   4.429   5.677  13.651  3.0145  1.5482 -0.3242
13072TIP3   OH260630   0.346   4.187   0.720  0.1729 -0.0812 -0.2685
13072TIP3    H160631   0.306   4.217   0.802 -1.9843  1.0794 -1.6625
13072TIP3    H260632   0.292   4.113   0.693  0.2335  0.1954 -1.1612
13073TIP3   OH260633   5.065   6.197   1.116 -0.2755  0.0564  0.3535
13073TIP3    H160634   4.976   6.231   1.116 -0.6047 -0.7718  0.3807
13073TIP3    H260635   5.118   6.266   1.076 -1.0711  0.1979 -0.4805
13074TIP3   OH260636   6.093   2.187   4.863  0.0881  0.5769 -0.0139
13074TIP3    H160637   6.162   2.241   4.903 -0.9772  1.2699  0.9694
13074TIP3    H260638   6.033   2.169   4.935 -0.5499 -0.3646 -0.7657
13075TIP3   OH260639   2.012   3.410  14.114  0.0205  0.3267  0.0256
13075TIP3    H160640   2.079   3.396  14.047 -0.9485 -2.6328 -0.4586
13075TIP3    H260641   1.978   3.497  14.095  0.9400  0.2673 -2.2895
13076TIP3   OH260642   5.268   1.712   3.753 -0.5447  0.2494 -0.2518
13076TIP3    H160643   5.288   1.678   3.666  0.2907 -0.4835  0.2079
13076TIP3    H260644   5.207   1.785   3.737  2.0632  2.3117 -1.7512
13077TIP3   OH260645   6.218   2.305  13.116  0.1415 -0.0819 -0.6153
13077TIP3    H160646   6.231   2.387  13.069  1.0758  0.0545 -0.1390
13077TIP3    H260647   6.300   2.257  13.106  0.5339  0.1262  1.1767
13078TIP3   OH260648   3.340   4.573  10.957 -0.0340  0.0836 -0.0539
13078TIP3    H160649   3.357   4.575  11.051 -0.9528  0.5705  0.1139
13078TIP3    H260650   3.321   4.482  10.937  0.3642 -0.0546  0.1869
13079TIP3   OH260651   1.456   6.420   3.240  0.2646  0.9110 -0.3992
13079TIP3    H160652   1.514   6.469   3.298  2.5569  0.3401 -2.0758
13079TIP3    H260653   1.484   6.444   3.152 -0.8641 -0.7481 -1.2681
13080TIP3   OH260654   1.052   3.799   4.452  0.6669 -0.0912 -0.1762
13080TIP3    H160655   1.131   3.786   4.503 -0.2088 -0.9439  1.0093
13080TIP3    H260656   1.083   3.810   4.362  2.0732 -1.3825  0.1112
13081TIP3   OH260657   3.242   2.775   0.563  0.1834 -0.6208  0.0609
13081TIP3    H160658   3.299   2.847   0.591  0.6869 -1.0803  0.2333
13081TIP3    H260659   3.296   2.696   0.572 -0.6122 -1.1206  0.6477
13082TIP3   OH260660   5.599   1.476  14.760 -0.1240  0.1387  0.1455
13082TIP3    H160661   5.670   1.501  14.699  1.6821 -0.9240  1.7047
13082TIP3    H260662   5.644   1.460  14.843 -1.7022 -3.6437  0.4710
13083TIP3   OH260663   3.456   0.361   2.235 -0.2035 -0.9676 -0.0230
13083TIP3    H160664   3.546   0.332   2.221  0.4748  1.5025 -1.2494
13083TIP3    H260665   3.414   0.352   2.150 -0.8703 -1.2268  0.3256
13084TIP3   OH260666   2.010   5.216   0.347  0.6502  0.0335 -0.4341
13084TIP3    H160667   2.071   5.273   0.300  1.7757 -0.4856  0.3396
13084TIP3    H260668   1.997   5.260   0.431 -1.2426  0.8912 -1.1352
13085TIP3   OH260669   1.639   6.141  11.662 -0.1056 -0.3769  0.0985
13085TIP3    H160670   1.665   6.162  11.572 -2.2916 -1.1714 -0.7820
13085TIP3    H260671   1.613   6.049  11.659  1.8496 -1.0798  2.0928
13086TIP3   OH260672   0.910   3.562  11.905  0.4801 -0.1257 -0.3293
13086TIP3    H160673   0.884   3.653  11.896  0.0368 -0.2742 -0.5778
13086TIP3    H260674   0.935   3.553  11.997 -0.7144 -0.0730  0.0075
13087TIP3   OH260675   0.089   2.693  13.245  0.2100  0.1047 -0.1721
13087TIP3    H160676   0.098   2.625  13.178 -0.3062 -0.6506  0.5017
13087TIP3    H260677   0.007   2.737  13.223 -1.9233 -2.4928  1.9490
13088TIP3   OH260678   1.420   4.037  11.870 -0.0574  0.2227 -0.0833
13088TIP3    H160679   1.500   4.075  11.907 -1.5464  2.4467  1.1071
13088TIP3    H260680   1.439   4.029  11.777  1.2946  1.5180  0.0281
13089TIP3   OH260681   3.710   3.938   0.290 -0.3991  0.3394 -0.0733
13089TIP3    H160682   3.719   3.897   0.375 -0.4706 -0.1079 -0.2788
13089TIP3    H260683   3.755   4.022   0.298  0.3537 -0.0783  0.1389
13090TIP3   OH260684   0.084   2.204  16.746  0.3910  0.0733  0.1635
13090TIP3    H160685   0.161   2.162  16.784 -0.3496 -1.2730  0.2272
13090TIP3    H260686   0.031   2.131  16.712 -0.7867  0.9784 -0.0068
13091TIP3   OH260687   3.145   1.359  16.562  0.6047 -0.0676  0.0909
13091TIP3    H160688   3.228   1.319  16.591 -0.2550 -1.6440  0.4690
13091TIP3    H260689   3.078   1.314  16.612 -0.4455  1.9897  0.6378
13092TIP3   OH260690   5.789   0.629   4.124  0.4315  0.3182 -0.8049
13092TIP3    H160691   5.861   0.604   4.066 -0.3684  1.5160 -2.4185
13092TIP3    H260692   5.723   0.561   4.111  0.1211  0.7478 -1.6275
13093TIP3   OH260693   0.497   6.517  15.592  0.2440 -0.0447  0.0161
13093TIP3    H160694   0.419   6.556  15.629  0.0284 -1.5658  1.3193
13093TIP3    H260695   0.467   6.470  15.514 -0.0599 -0.2069  0.2308
13094TIP3   OH260696   3.517   2.482   3.662  0.4535 -0.1556 -0.8306
13094TIP3    H160697   3.441   2.520   3.617  0.8340 -0.3485 -1.6511
13094TIP3    H260698   3.493   2.484   3.754  0.7455  2.8098 -0.7131
13095TIP3   OH260699   6.543   3.878   3.466  0.2572  0.0666 -0.0510
13095TIP3    H160700   6.497   3.944   3.415  0.1087  1.2445  1.5535
13095TIP3    H260701   6.475   3.833   3.516  0.5010 -0.4528 -0.1753
13096TIP3   OH260702   4.514   2.256   0.580  0.1350 -0.1400 -0.0850
13096TIP3    H160703   4.472   2.332   0.540 -0.2505  1.5362  3.1833
13096TIP3    H260704   4.441   2.205   0.616  0.4192 -1.9665 -1.9095
13097TIP3   OH260705   1.576   2.238  13.578 -0.7164 -0.1536  0.0865
13097TIP3    H160706   1.633   2.162  13.573 -0.4775  0.1098 -1.6328
13097TIP3    H260707   1.488   2.204  13.567 -0.5834 -0.1629 -1.0242
13098TIP3   OH260708   5.356   4.474   0.406  0.1257 -0.4426 -0.3628
13098TIP3    H160709   5.448   4.494   0.425 -0.1565 -0.9775  1.9057
13098TIP3    H260710   5.359   4.389   0.361  0.7461 -0.7395  0.2087
13099TIP3   OH260711   2.312   6.621  14.242 -0.1260  0.7430 -0.7065
13099TIP3    H160712   2.240   6.674  14.207  0.8724  1.3736 -1.9124
13099TIP3    H260713   2.338   6.665  14.322 -0.2199  1.2683 -0.9638
13100TIP3   OH260714   0.933   4.295   3.361  0.0557  0.0588 -0.7947
13100TIP3    H160715   0.853   4.309   3.312 -0.4011 -1.4585 -0.5361
13100TIP3    H260716   0.921   4.343   3.443  0.2193  1.3916 -1.5336
13101TIP3   OH260717   1.700   5.235   5.361 -0.5159 -0.5507 -0.2331
13101TIP3    H160718   1.719   5.205   5.450  0.3213  1.7544  0.4395
13101TIP3    H260719   1.618   5.284   5.370 -1.0389 -1.2780 -0.9773
13102TIP3   OH260720   0.512   4.103  15.975  0.0021  0.1540 -0.4160
13102TIP3    H160721   0.522   4.189  15.934 -0.3888  1.1588  1.5140
13102TIP3    H260722   0.598   4.084  16.011  0.3993 -0.8237 -1.7988
13103TIP3   OH260723   2.691   4.304   0.079 -0.2512 -0.0370 -0.0896
13103TIP3    H160724   2.681   4.400   0.074 -1.4754 -0.0546  1.4552
13103TIP3    H260725   2.626   4.271   0.017  0.3011  0.1223 -0.7655
13104TIP3   OH260726   0.913   0.945  12.085  0.1713  0.1532 -0.1172
13104TIP3    H160727   1.009   0.944  12.091  0.1255 -0.9391  0.7407
13104TIP3    H260728   0.884   0.970  12.172 -0.3350 -1.7425  0.3082
13105TIP3   OH260729   1.651   5.424   2.118 -0.1472  0.7182 -0.3257
13105TIP3    H160730   1.697   5.341   2.125 -0.7565  0.4221  0.4027
13105TIP3    H260731   1.579   5.406   2.057 -2.4382 -0.3737  2.4855
13106TIP3   OH260732   5.691   0.357  16.748  0.3706  0.2430  0.2838
13106TIP3    H160733   5.729   0.398  16.670  3.4867  1.4359  2.2374
13106TIP3    H260734   5.711   0.419  16.819 -2.4904 -0.6992  2.0642
13107TIP3   OH260735   2.890   5.403  11.288  0.5084 -0.9833  0.3556
13107TIP3    H160736   2.865   5.480  11.237  2.4862  0.0617  0.8677
13107TIP3    H260737   2.913   5.337  11.223  0.1824 -0.6612 -0.0939
13108TIP3   OH260738   0.523   4.160   6.245  0.0427  0.2867  0.2974
13108TIP3    H160739   0.587   4.093   6.223  1.1162  1.2438  0.3778
13108TIP3    H260740   0.439   4.114   6.250  0.2663 -0.5422 -2.4467
13109TIP3   OH260741   1.648   0.766  14.212  0.2202 -0.3943 -0.6308
13109TIP3    H160742   1.709   0.785  14.283 -1.0162 -0.1064  0.3890
13109TIP3    H260743   1.574   0.825  14.228 -0.7243 -1.3641 -1.3114
13110TIP3   OH260744   4.227   6.728   4.988  0.1965  0.1283 -0.4178
13110TIP3    H160745   4.136   6.758   4.987  0.0367 -0.3127 -1.6067
13110TIP3    H260746   4.223   6.639   4.953  1.1788  0.4334 -1.3636
13111TIP3   OH260747   3.018   4.132   0.596 -0.2247  0.0145 -0.3538
13111TIP3    H160748   2.934   4.089   0.609 -0.4696  0.5396 -0.1869
13111TIP3    H260749   3.040   4.115   0.504 -0.5961  0.0231 -0.4455
13112TIP3   OH260750   1.193   4.400  14.906  0.0299  0.5639  0.1452
13112TIP3    H160751   1.109   4.357  14.920  0.0634  0.8383  1.2515
13112TIP3    H260752   1.221   4.428  14.993  1.1644  0.6760 -0.2392
13113TIP3   OH260753   3.823   4.324  11.404 -0.0699  0.2998 -0.1471
13113TIP3    H160754   3.755   4.323  11.472  0.6986  2.3106  0.7480
13113TIP3    H260755   3.905   4.305  11.452  0.2433 -0.2348 -0.8778
13114TIP3   OH260756   1.729   1.351   4.399  0.1496 -0.2584  0.1778
13114TIP3    H160757   1.795   1.383   4.338  0.5712 -0.0660  0.7360
13114TIP3    H260758   1.668   1.301   4.344 -0.3216  1.1841 -0.6538
13115TIP3   OH260759   1.833   3.270  14.279 -0.2059 -0.2564 -0.0854
13115TIP3    H160760   1.896   3.264  14.351 -0.3496 -0.1319  0.0499
13115TIP3    H260761   1.885   3.302  14.205 -0.3729  1.0813  0.3574
13116TIP3   OH260762   6.592   5.246  11.544  0.4040 -0.3213  0.1015
13116TIP3    H160763   6.612   5.181  11.476  1.8871  1.0689 -0.8522
13116TIP3    H260764   6.496   5.247  11.547  0.3149 -1.1652 -1.2570
13117TIP3   OH260765   5.574   1.352   5.751 -0.1845 -0.5450  0.1482
13117TIP3    H160766   5.643   1.305   5.797 -0.5639 -0.9979  0.2666
13117TIP3    H260767   5.532   1.286   5.696 -0.8821 -0.4118  0.5063
13118TIP3   OH260768   5.667   0.401   5.366  0.2721 -0.2882  0.9498
13118TIP3    H160769   5.734   0.464   5.389  0.5954  0.4217 -1.6190
13118TIP3    H260770   5.597   0.453   5.325 -0.0663 -1.4048  0.0343
13119TIP3   OH260771   3.837   5.717  11.109  0.3394 -0.2802 -0.0557
13119TIP3    H160772   3.777   5.648  11.080  1.4375 -1.1817 -0.2525
13119TIP3    H260773   3.785   5.797  11.105 -1.9285 -1.3751  2.9316
13120TIP3   OH260774   4.873   4.048   1.089 -0.0479  0.2119 -0.0308
13120TIP3    H160775   4.895   4.008   1.005  1.1702 -0.8373  0.7501
13120TIP3    H260776   4.824   3.981   1.136  0.6876  0.1608  0.7020
13121TIP3   OH260777   2.864   4.962  15.092  0.0943  0.1638 -0.2595
13121TIP3    H160778   2.864   4.912  15.011 -1.1013  0.0865 -0.2301
13121TIP3    H260779   2.804   4.915  15.150 -0.4234  1.1769  0.0491
13122TIP3   OH260780   4.843   4.343  11.289 -0.1865  0.2114 -0.4446
13122TIP3    H160781   4.932   4.375  11.277 -0.7504  1.3422 -2.0313
13122TIP3    H260782   4.853   4.253  11.319  1.4702  0.8175  0.9622
13123TIP3   OH260783   6.623   5.712  15.156 -0.3164  0.1667 -0.1520
13123TIP3    H160784   6.718   5.722  15.153 -0.4464  1.2769 -1.4253
13123TIP3    H260785   6.598   5.745  15.243  0.3625  0.8346 -0.2045
13124TIP3   OH260786   3.253   5.253   4.038  0.0313  0.6058  0.6305
13124TIP3    H160787   3.300   5.260   3.955 -1.6361  1.3967 -0.2934
13124TIP3    H260788   3.248   5.343   4.071 -4.2140  1.3607 -1.3508
13125TIP3   OH260789   0.826   6.333  12.137  0.5466  0.1421  0.2597
13125TIP3    H160790   0.778   6.359  12.058 -2.1052 -0.7689  1.4592
13125TIP3    H260791   0.856   6.244  12.119  0.7745  0.2779 -0.0476
13126TIP3   OH260792   2.767   0.645  13.512  0.3130 -0.1390  0.7547
13126TIP3    H160793   2.706   0.616  13.444 -0.6268  0.7661  1.1849
13126TIP3    H260794   2.840   0.583  13.506  0.4506  0.1362 -1.3274
13127TIP3   OH260795   3.646   2.476   5.138 -0.1176  0.6741  0.2967
13127TIP3    H160796   3.608   2.403   5.089  0.3254 -0.3580  1.4300
13127TIP3    H260797   3.708   2.435   5.198  2.8861  2.2931 -1.4831
13128TIP3   OH260798   3.265   4.621  13.528  0.4477 -0.7981 -0.0947
13128TIP3    H160799   3.215   4.540  13.543  0.6528 -1.1441 -1.1794
13128TIP3    H260800   3.288   4.617  13.435  0.1348  0.7032 -0.2560
13129TIP3   OH260801   6.348   2.742  15.250  0.0545  0.0231 -0.1506
13129TIP3    H160802   6.346   2.780  15.162 -1.1687 -0.5071 -0.3641
13129TIP3    H260803   6.354   2.648  15.235  0.7110 -0.0301  0.3623
13130TIP3   OH260804   1.124   1.956   5.102 -0.3330 -1.1536 -0.4527
13130TIP3    H160805   1.183   1.926   5.033 -1.7046 -2.2918 -1.1808
13130TIP3    H260806   1.112   1.879   5.158  1.0846 -0.1485  1.3729
13131TIP3   OH260807   1.589   3.791   2.612 -0.7091  0.1817 -0.4943
13131TIP3    H160808   1.627   3.725   2.669  1.2995  0.3876 -1.5117
13131TIP3    H260809   1.540   3.741   2.546 -1.8276 -0.1072  0.5260
13132TIP3   OH260810   0.723   0.512  15.527  0.3412 -0.3327 -0.3270
13132TIP3    H160811   0.775   0.435  15.504  0.2572 -0.5832  0.3047
13132TIP3    H260812   0.720   0.563  15.447 -1.0565 -1.8136 -1.2898
13133TIP3   OH260813   4.708   4.784   4.913  0.0114  0.4297 -0.5182
13133TIP3    H160814   4.615   4.804   4.899 -0.0085  0.2272 -0.6798
13133TIP3    H260815   4.716   4.776   5.008 -0.3100 -0.3651 -0.5502
13134TIP3   OH260816   1.554   1.925   5.631 -0.0614 -0.1900 -0.4152
13134TIP3    H160817   1.569   1.880   5.548  1.4979  0.9510 -0.7836
13134TIP3    H260818   1.581   2.015   5.615  0.2204  0.0611  1.3025
13135TIP3   OH260819   3.780   0.069   2.356 -0.4741 -0.5737 -0.3882
13135TIP3    H160820   3.700   0.071   2.409  0.0599  1.5298  0.4392
13135TIP3    H260821   3.782   0.154   2.313  2.9411  0.8690  2.2297
13136TIP3   OH260822   3.890   1.830   2.537 -0.6127  0.0915  0.2772
13136TIP3    H160823   3.802   1.812   2.571 -0.5445  0.1514  0.4832
13136TIP3    H260824   3.878   1.903   2.477 -0.3741  1.5013  1.8888
13137TIP3   OH260825   1.577   2.022  15.690  0.5629  0.0655 -0.5200
13137TIP3    H160826   1.522   2.036  15.767  2.0788  0.8233  0.4603
13137TIP3    H260827   1.558   1.932  15.664 -1.8945  0.6108 -0.8733
13138TIP3   OH260828   1.123   2.316   0.644  0.2416  0.2829 -0.0042
13138TIP3    H160829   1.070   2.271   0.578  0.8600 -0.8428  0.2527
13138TIP3    H260830   1.094   2.407   0.639  0.2680  0.2321 -1.8322
13139TIP3   OH260831   0.255   5.357   1.326  0.2087 -0.0115  0.8330
13139TIP3    H160832   0.310   5.384   1.253  1.1254  0.3367  1.6302
13139TIP3    H260833   0.166   5.360   1.291  0.5384  1.0766  0.0111
13140TIP3   OH260834   3.623   1.480   3.333  0.6522 -0.1338 -0.0587
13140TIP3    H160835   3.680   1.414   3.372  1.0732  0.7737  0.9274
13140TIP3    H260836   3.555   1.495   3.399 -0.5575 -0.9403 -1.0702
13141TIP3   OH260837   0.041   1.241   5.617 -0.2889 -0.3686  0.5090
13141TIP3    H160838  -0.045   1.231   5.577 -0.9231  0.6620  1.5241
13141TIP3    H260839   0.025   1.299   5.692  1.1610 -0.7664  1.1552
13142TIP3   OH260840   4.542   4.920   1.221  0.5768 -0.1395 -0.4385
13142TIP3    H160841   4.466   4.890   1.271  0.2526 -3.1274 -2.5111
13142TIP3    H260842   4.509   4.994   1.170 -0.2527  0.0920  0.3981
13143TIP3   OH260843   2.243   5.800  13.180  0.0933 -0.3636 -0.2678
13143TIP3    H160844   2.179   5.739  13.144  0.6972 -0.9061 -0.4294
13143TIP3    H260845   2.293   5.748  13.243  0.1888  0.1349  0.0774
13144TIP3   OH260846   3.382   1.771   0.029  0.0633 -0.1649  0.1944
13144TIP3    H160847   3.372   1.678   0.051 -1.9336 -0.0239  0.0209
13144TIP3    H260848   3.362   1.776  -0.064 -1.1112  0.6087  0.4718
13145TIP3   OH260849   6.622   3.468  16.254 -0.2754  1.0286  0.0925
13145TIP3    H160850   6.602   3.401  16.319  2.7224 -0.8237 -0.6801
13145TIP3    H260851   6.603   3.427  16.170  2.3213  0.7063 -0.4357
13146TIP3   OH260852   5.292   0.704  15.163  0.4427  0.1867 -0.0770
13146TIP3    H160853   5.233   0.688  15.237  0.5959  0.3297  0.0757
13146TIP3    H260854   5.375   0.729  15.203  0.1146  1.7633 -0.3061
13147TIP3   OH260855   2.184   0.164   2.480 -0.5646  0.1392 -0.0397
13147TIP3    H160856   2.213   0.121   2.560 -1.0114 -1.2406 -0.5839
13147TIP3    H260857   2.112   0.220   2.508  0.6234  1.2899  0.8329
13148TIP3   OH260858   0.439   1.679  15.390 -0.1130 -0.4285 -0.4355
13148TIP3    H160859   0.512   1.647  15.337  0.1362  0.4038 -0.6147
13148TIP3    H260860   0.380   1.604  15.397 -0.1384 -0.5814 -1.8769
13149TIP3   OH260861   2.624   5.687   0.538  0.7027  0.5806 -0.0038
13149TIP3    H160862   2.689   5.650   0.478 -0.6802  0.6529 -1.5858
13149TIP3    H260863   2.666   5.680   0.624  2.5354  0.0252 -0.8838
13150TIP3   OH260864   0.487   3.072  12.362  0.0923 -0.1483  0.0809
13150TIP3    H160865   0.541   3.098  12.437  2.1767 -0.7060 -1.1405
13150TIP3    H260866   0.445   3.153  12.333  0.7633  0.4454  0.7179
13151TIP3   OH260867   1.430   2.203  13.301  0.0981  0.3205  0.3789
13151TIP3    H160868   1.417   2.241  13.388  0.9274  0.1634  0.5812
13151TIP3    H260869   1.517   2.234  13.274 -0.6764  1.4007 -0.9440
13152TIP3   OH260870   5.725   4.790  12.369 -0.0034  0.2854  0.0810
13152TIP3    H160871   5.706   4.762  12.458  1.7598 -0.6149  0.2043
13152TIP3    H260872   5.688   4.879  12.364  1.2382  0.9860  2.2269
13153TIP3   OH260873   3.419   4.734   6.515  0.0257  0.3990  0.4079
13153TIP3    H160874   3.377   4.685   6.586 -1.4508  1.3301  0.2205
13153TIP3    H260875   3.351   4.745   6.449  1.1241  0.3279 -0.7752
13154TIP3   OH260876   4.734   2.283   6.051 -0.9630  0.1749 -0.7006
13154TIP3    H160877   4.725   2.313   6.142  0.3948  0.8860 -0.7784
13154TIP3    H260878   4.755   2.190   6.059  1.8198  0.7527 -0.0953
13155TIP3   OH260879   2.207   4.519  12.906 -0.5182  0.0402 -0.1325
13155TIP3    H160880   2.153   4.441  12.893 -0.8104  0.2887 -0.4223
13155TIP3    H260881   2.147   4.584  12.944  0.4076 -0.8374  3.2357
13156TIP3   OH260882   5.092   1.941   1.268  0.0409 -0.3541  0.1775
13156TIP3    H160883   5.048   1.935   1.183  0.6887 -1.6028 -0.1010
13156TIP3    H260884   5.033   1.896   1.329  0.3924 -1.0360  0.0248
13157TIP3   OH260885   0.506   4.186  11.650 -0.7506  0.5508 -0.0445
13157TIP3    H160886   0.566   4.245  11.697 -0.4688  0.7782 -0.6824
13157TIP3    H260887   0.420   4.207  11.687 -0.5348  0.7267  0.3732
13158TIP3   OH260888   0.888   5.430  12.365  0.0943 -0.0317  0.2959
13158TIP3    H160889   0.949   5.390  12.427 -0.9320  0.5094  1.7126
13158TIP3    H260890   0.820   5.363  12.351  0.6241 -0.3712 -0.7240
13159TIP3   OH260891   0.652   0.579   5.826 -0.3450 -0.4986 -0.1940
13159TIP3    H160892   0.617   0.665   5.851 -0.3213  0.0292 -1.8128
13159TIP3    H260893   0.668   0.534   5.909 -3.4770 -0.2263  0.7043
13160TIP3   OH260894   4.315   3.027  11.497 -0.2104  0.0826 -0.3862
13160TIP3    H160895   4.257   2.966  11.453  0.1084 -0.8571  0.4634
13160TIP3    H260896   4.340   3.090  11.429 -1.8755  0.2672 -0.8544
13161TIP3   OH260897   4.324   0.849  13.642  0.2291  0.0245 -0.9717
13161TIP3    H160898   4.301   0.942  13.646 -0.4153 -0.1686  0.3409
13161TIP3    H260899   4.343   0.833  13.549 -1.2498  1.0917 -1.4912
13162TIP3   OH260900   4.013   6.535  14.128 -0.3728 -0.1435 -0.0644
13162TIP3    H160901   4.020   6.453  14.178 -2.4733  0.3001  1.0967
13162TIP3    H260902   4.053   6.601  14.184 -0.5149 -0.0517 -0.0694
13163TIP3   OH260903   1.772   3.200  11.167  0.1040  0.5783 -0.2866
13163TIP3    H160904   1.773   3.230  11.076 -0.5021 -0.3560 -0.6100
13163TIP3    H260905   1.854   3.152  11.178 -1.4099 -2.5082 -1.4776
13164TIP3   OH260906   1.497   1.379   4.232 -0.1445  0.3339  0.2659
13164TIP3    H160907   1.421   1.408   4.282  0.0737  0.5639  0.4678
13164TIP3    H260908   1.471   1.295   4.194 -0.9019  0.9383 -0.5927
13165TIP3   OH260909   3.488   4.814  15.133 -0.4623  0.0623  0.2828
13165TIP3    H160910   3.459   4.796  15.222  1.7210 -0.2607  1.0035
13165TIP3    H260911   3.508   4.908  15.134  2.3789 -0.4398  1.1375
13166TIP3   OH260912   6.491   2.842  14.302  0.5481 -0.2968 -0.2601
13166TIP3    H160913   6.472   2.797  14.384 -1.0006  0.0591 -0.3894
13166TIP3    H260914   6.532   2.925  14.329  0.2692 -0.2902  0.1418
13167TIP3   OH260915   2.317   5.097   0.252  0.2482 -0.3504  0.3762
13167TIP3    H160916   2.403   5.093   0.295 -0.2130 -0.1628  1.3609
13167TIP3    H260917   2.331   5.057   0.166  0.9805 -1.7541  1.1054
13168TIP3   OH260918   1.729   3.222   4.529 -0.6697  0.3822  0.6560
13168TIP3    H160919   1.747   3.294   4.468 -1.6141 -0.0354 -0.1502
13168TIP3    H260920   1.807   3.218   4.585  1.9809 -1.5539 -2.7955
13169TIP3   OH260921   2.974   0.933   1.415 -0.1139 -0.0069 -0.2020
13169TIP3    H160922   3.005   0.847   1.446  1.5859  0.5580 -0.2461
13169TIP3    H260923   3.032   0.996   1.457  0.1588  0.9860 -1.9540
13170TIP3   OH260924   1.285   4.423   2.811 -0.2671 -0.3007  0.2809
13170TIP3    H160925   1.249   4.510   2.827  0.5729  0.2844 -0.9114
13170TIP3    H260926   1.377   4.438   2.789 -0.1642 -1.4662 -0.1674
13171TIP3   OH260927   6.361   5.912  12.696 -0.4491  0.4353 -0.0587
13171TIP3    H160928   6.371   5.942  12.605  1.1461 -0.1706 -0.1128
13171TIP3    H260929   6.343   5.819  12.688  0.0491  0.3108  0.2518
13172TIP3   OH260930   3.174   1.472  13.471  0.3814 -0.3608 -0.2814
13172TIP3    H160931   3.183   1.519  13.388  0.2840  2.4732  1.2117
13172TIP3    H260932   3.263   1.467  13.506  0.1489  0.3697  0.4217
13173TIP3   OH260933   0.375   5.128   5.998  0.6180 -0.2203  0.3472
13173TIP3    H160934   0.321   5.178   6.059  0.1575 -0.4061  0.1005
13173TIP3    H260935   0.383   5.041   6.037  1.1105 -0.0660  0.5971
13174TIP3   OH260936   3.806   1.685  16.401 -0.3529  0.0144  0.5608
13174TIP3    H160937   3.808   1.718  16.311  1.7508  0.6255  0.7803
13174TIP3    H260938   3.770   1.757  16.452 -0.7865 -0.0265  0.3113
13175TIP3   OH260939   0.533   0.456  13.327  0.3473  0.1986 -0.0349
13175TIP3    H160940   0.552   0.365  13.304 -0.8696 -0.3438  0.9340
13175TIP3    H260941   0.562   0.463  13.418  3.2549  1.7127 -0.9483
13176TIP3   OH260942   1.818   1.994  12.796 -0.2248  0.3675 -0.2233
13176TIP3    H160943   1.904   2.027  12.820  0.5327 -0.8271 -1.1827
13176TIP3    H260944   1.791   1.940  12.871  0.5374 -0.4768 -0.5517
13177TIP3   OH260945   1.302   0.572   2.817  0.1358  0.1563 -0.6305
13177TIP3    H160946   1.225   0.620   2.786  0.6194 -0.1232 -2.3857
13177TIP3    H260947   1.372   0.636   2.815  0.0810  0.2682  0.4465
13178TIP3   OH260948   5.491   5.654   1.546  0.5703  0.4762  0.1299
13178TIP3    H160949   5.523   5.626   1.460  1.0764  0.0373  0.4517
13178TIP3    H260950   5.459   5.743   1.532  0.5732  0.3820 -0.5296
13179TIP3   OH260951   5.523   0.408  11.858  0.2206  0.4395 -0.1277
13179TIP3    H160952   5.530   0.456  11.775  1.3711 -0.3395 -0.5099
13179TIP3    H260953   5.528   0.316  11.832 -1.0257  0.1342  0.6762
13180TIP3   OH260954   4.625   5.494  12.737  0.0469  0.1269 -0.0364
13180TIP3    H160955   4.540   5.531  12.714 -1.3620 -2.0649  1.2611
13180TIP3    H260956   4.634   5.510  12.831  0.3992 -0.8429  0.1147
13181TIP3   OH260957   2.558   1.042  16.976 -0.6689  0.6764  0.6879
13181TIP3    H160958   2.568   1.137  16.969 -1.7411  0.8261  1.0604
13181TIP3    H260959   2.607   1.008  16.901 -0.5326  1.5390  0.3694
13182TIP3   OH260960   4.012   4.318  12.233 -0.7143 -0.3449 -0.0016
13182TIP3    H160961   3.986   4.398  12.187  0.9699 -0.0580 -0.4887
13182TIP3    H260962   4.013   4.344  12.326  1.9819  0.9039 -0.2975
13183TIP3   OH260963   6.154   1.421  15.329 -0.2466 -0.5562 -0.5860
13183TIP3    H160964   6.226   1.369  15.295 -0.0004  1.0303 -2.6921
13183TIP3    H260965   6.077   1.390  15.283 -0.0150  1.1673 -2.2781
13184TIP3   OH260966   3.638   1.941   1.272 -0.0156 -0.7295  0.1831
13184TIP3    H160967   3.607   1.913   1.186 -1.1947 -1.9391  0.9621
13184TIP3    H260968   3.659   2.034   1.261  1.3367 -1.2181 -1.7847
13185TIP3   OH260969   2.325   4.179   5.159 -0.6591 -0.1825  0.2558
13185TIP3    H160970   2.234   4.150   5.165 -0.8435  0.6524  2.6453
13185TIP3    H260971   2.322   4.264   5.116 -0.7983 -0.8507 -1.1002
13186TIP3   OH260972   4.444   6.504   2.126  0.0946  0.7383 -0.1306
13186TIP3    H160973   4.399   6.481   2.045 -0.1567 -0.0930  0.2359
13186TIP3    H260974   4.468   6.420   2.165  0.3478  1.1327  0.5833
13187TIP3   OH260975   0.892   6.603  10.668  0.1311  0.3651 -0.1286
13187TIP3    H160976   0.799   6.623  10.654  0.2846  0.7575 -0.5980
13187TIP3    H260977   0.896   6.507  10.669 -0.1575  0.3414 -0.9320
13188TIP3   OH260978   6.709   3.447   5.739  0.7992  0.3991  0.0998
13188TIP3    H160979   6.799   3.448   5.771 -0.4247  2.4220  4.0607
13188TIP3    H260980   6.660   3.401   5.806 -1.1058 -1.7918 -2.5638
13189TIP3   OH260981   1.920   3.515   3.475  0.2352 -0.1621 -0.0872
13189TIP3    H160982   1.904   3.590   3.417  0.4301  0.7369  0.9933
13189TIP3    H260983   1.833   3.492   3.508  0.2855  0.1642  0.2742
13190TIP3   OH260984   6.282   3.435   0.426 -0.1768 -0.0043  0.0887
13190TIP3    H160985   6.353   3.414   0.366  1.2554  0.8295  1.4341
13190TIP3    H260986   6.246   3.517   0.392 -0.3546 -0.2913 -0.4397
13191TIP3   OH260987   0.049   0.896  14.486 -0.1823 -0.2606  0.2051
13191TIP3    H160988  -0.034   0.891  14.439  0.2237  3.3917 -1.1737
13191TIP3    H260989   0.025   0.916  14.576 -0.9060  2.1606 -0.4480
13192TIP3   OH260990   6.784   0.324   5.011 -0.1542 -0.2472  0.2952
13192TIP3    H160991   6.870   0.285   5.030  0.1808  0.2998 -0.0505
13192TIP3    H260992   6.798   0.373   4.930 -0.8420 -0.2920  0.1509
13193TIP3   OH260993   3.999   6.050   2.469 -0.5198 -0.0148  0.0688
13193TIP3    H160994   3.931   5.983   2.471  1.4258 -2.1420 -0.0199
13193TIP3    H260995   4.033   6.046   2.379  0.3295  0.3536  0.3646
13194TIP3   OH260996   0.171   6.378  10.993 -0.3132  0.0138  0.0055
13194TIP3    H160997   0.164   6.473  10.992  0.1393  0.0551  0.5528
13194TIP3    H260998   0.263   6.360  10.975 -0.4688 -0.3382 -0.4774
13195TIP3   OH260999   4.648   0.414   3.496 -0.5610  0.3508  0.2311
13195TIP3    H161000   4.626   0.505   3.515  1.7442  0.8016  1.1625
13195TIP3    H261001   4.643   0.370   3.581  1.8636  0.5127  0.5423
13196TIP3   OH261002   1.912   0.241  12.430  0.1090  0.1573 -0.3367
13196TIP3    H161003   2.008   0.237  12.435  0.0481  0.0901  1.3357
13196TIP3    H261004   1.894   0.332  12.407  0.5577  0.6390  1.1033
13197TIP3   OH261005   5.904   0.211   0.872 -0.2401  0.5161 -0.5008
13197TIP3    H161006   5.831   0.225   0.812  0.2444  0.8828 -1.0069
13197TIP3    H261007   5.983   0.220   0.818  0.2382  1.9677  0.3777
13198TIP3   OH261008   6.129   1.549   2.012  0.3489  0.3258 -0.6481
13198TIP3    H161009   6.166   1.633   2.039  2.5134 -0.2596 -1.5871
13198TIP3    H261010   6.196   1.510   1.956 -1.3944 -1.2133 -1.7719
13199TIP3   OH261011   2.760   6.192  12.681 -0.3409 -0.6129  0.2702
13199TIP3    H161012   2.851   6.163  12.685 -0.7512 -1.9108  0.9052
13199TIP3    H261013   2.709   6.112  12.695 -1.6141 -0.1622 -1.4361
13200TIP3   OH261014   6.341   5.614  12.181  0.0121 -0.2771  0.6888
13200TIP3    H161015   6.331   5.621  12.276  0.6014 -2.1559  0.9175
13200TIP3    H261016   6.288   5.538  12.157 -0.8522  0.7050 -0.6360
13201TIP3   OH261017   4.701   0.995  15.632  0.6044  0.5617 -0.4913
13201TIP3    H161018   4.694   1.090  15.640 -1.2688  0.3071  4.1497
13201TIP3    H261019   4.631   0.971  15.571  0.1361  2.1068 -0.6021
13202TIP3   OH261020   5.574   0.025   4.780  0.3707 -0.2013  0.3342
13202TIP3    H161021   5.640   0.030   4.848 -1.2480  0.5658  1.9329
13202TIP3    H261022   5.582   0.108   4.732  0.5800 -0.1131  0.5234
13203TIP3   OH261023   6.211   0.851   5.592 -0.1514 -0.5960  0.5731
13203TIP3    H161024   6.144   0.828   5.656 -0.6969 -1.6295 -0.3382
13203TIP3    H261025   6.204   0.946   5.583  0.0712 -0.4115  2.1686
13204TIP3   OH261026   5.580   1.204   6.914 -0.1474 -0.5857 -0.2293
13204TIP3    H161027   5.622   1.133   6.962  1.6166 -0.5317 -1.5830
13204TIP3    H261028   5.600   1.186   6.822 -1.5444  0.4947 -0.7821
13205TIP3   OH261029   0.468   1.861  16.094 -0.2194 -0.1521 -0.3394
13205TIP3    H161030   0.442   1.779  16.136  0.2351 -0.8802 -1.4272
13205TIP3    H261031   0.395   1.881  16.035 -0.3996  0.3202  0.0381
13206TIP3   OH261032   2.563   3.126  14.151 -0.1363  0.5338 -0.1433
13206TIP3    H161033   2.629   3.188  14.121 -0.1812  0.6724  0.0444
13206TIP3    H261034   2.614   3.048  14.175  0.4968  1.9298  3.7951
13207TIP3   OH261035   4.464   1.884  11.398 -0.4016  0.4278 -0.3337
13207TIP3    H161036   4.515   1.952  11.442 -0.5891 -0.0579  0.6578
13207TIP3    H261037   4.376   1.892  11.434  0.1077 -1.8913  1.6822
13208TIP3   OH261038   6.539   0.098   1.293  0.6589 -0.5793  0.1900
13208TIP3    H161039   6.450   0.072   1.317 -0.1985  2.3550  0.6440
13208TIP3    H261040   6.596   0.037   1.340 -1.1016 -0.7907  2.1912
13209TIP3   OH261041   0.331   2.567  11.482 -0.5879  0.2666 -0.3491
13209TIP3    H161042   0.361   2.512  11.555 -0.1564 -1.1541 -1.5309
13209TIP3    H261043   0.377   2.650  11.494 -0.2971 -0.0407  0.8167
13210TIP3   OH261044   1.631   1.197  14.151  0.1243 -0.4348 -0.4338
13210TIP3    H161045   1.593   1.196  14.239  0.9924 -0.4942 -0.0519
13210TIP3    H261046   1.659   1.107  14.136 -2.0439 -0.9896 -1.7039
13211TIP3   OH261047   4.014   3.530  16.005  0.2877 -0.4139  0.2301
13211TIP3    H161048   3.920   3.529  15.991  0.5715 -1.3865 -2.0227
13211TIP3    H261049   4.029   3.605  16.063 -1.7601  0.2812 -0.0683
13212TIP3   OH261050   4.391   2.553   2.013  0.4158  0.0815 -0.5594
13212TIP3    H161051   4.455   2.609   2.057  0.3721 -0.3798  0.1197
13212TIP3    H261052   4.378   2.593   1.927  0.8398  0.7602 -0.3152
13213TIP3   OH261053   3.358   6.014  15.031  0.6416  0.1483  0.0388
13213TIP3    H161054   3.448   6.042  15.041  1.2501 -1.8202  0.4970
13213TIP3    H261055   3.358   5.961  14.951 -0.0759  0.0104  0.1228
13214TIP3   OH261056   6.546   3.199  11.587 -0.2308  0.6001 -0.0076
13214TIP3    H161057   6.603   3.157  11.522 -0.7907 -1.2216  0.6114
13214TIP3    H261058   6.606   3.224  11.658  0.1950  1.4201 -0.6395
13215TIP3   OH261059   5.073   4.449  16.447 -0.0963 -0.0867 -0.5486
13215TIP3    H161060   5.061   4.526  16.392 -0.0095 -0.7950 -1.5851
13215TIP3    H261061   5.070   4.375  16.386 -0.1721 -0.9057  0.4234
13216TIP3   OH261062   3.150   6.676   2.818  0.0208 -0.0355  0.2898
13216TIP3    H161063   3.127   6.606   2.880  1.1852 -0.3789  0.3589
13216TIP3    H261064   3.158   6.754   2.873 -1.9916  0.3364  0.1131
13217TIP3   OH261065   4.754   4.418  15.729 -0.2066 -0.2852 -0.1707
13217TIP3    H161066   4.678   4.396  15.676 -1.1228 -3.7618  2.2637
13217TIP3    H261067   4.718   4.455  15.810  0.9200  0.7235 -0.0846
13218TIP3   OH261068   2.693   6.168   2.123 -0.0616 -0.1455  0.0694
13218TIP3    H161069   2.740   6.086   2.134  2.1262  0.5348 -2.9844
13218TIP3    H261070   2.614   6.145   2.075  1.7069 -0.3258 -2.9573
13219TIP3   OH261071   4.943   6.461  13.935  0.9600 -0.1910 -0.1548
13219TIP3    H161072   4.859   6.495  13.969  2.2459  1.2474  1.8578
13219TIP3    H261073   4.924   6.437  13.845 -1.6131  0.1206  0.2069
13220TIP3   OH261074   0.323   6.341   4.464  0.2602 -0.5156  0.2507
13220TIP3    H161075   0.346   6.406   4.398 -2.1522 -0.8241 -1.0470
13220TIP3    H261076   0.229   6.354   4.478  0.4365 -1.3713  2.6529
13221TIP3   OH261077   5.586   0.839   1.749  0.0368 -0.1462  0.1431
13221TIP3    H161078   5.500   0.799   1.764 -0.2653 -0.5872 -2.3584
13221TIP3    H261079   5.646   0.765   1.745  0.6301  0.1720  2.0570
13222TIP3   OH261080   1.511   0.762   3.186  0.1772  0.1484 -0.1351
13222TIP3    H161081   1.466   0.734   3.266  1.6117 -1.2846  0.2245
13222TIP3    H261082   1.453   0.734   3.115  0.3717 -1.5271  0.3235
13223TIP3   OH261083   4.291   2.367   6.421  0.4491  0.2602 -0.1889
13223TIP3    H161084   4.228   2.343   6.488  1.7057 -0.7106  0.6875
13223TIP3    H261085   4.269   2.312   6.346 -0.1441  0.4006 -0.1191
13224TIP3   OH261086   2.920   4.159   3.963 -0.0837  0.5798  0.4444
13224TIP3    H161087   2.916   4.245   4.004  1.4021  1.4057 -1.0552
13224TIP3    H261088   3.008   4.153   3.927  0.3523 -2.1798  1.7199
13225TIP3   OH261089   4.338   6.136  12.865  0.2693 -0.3027  0.1343
13225TIP3    H161090   4.317   6.075  12.936 -0.2370 -1.2571 -0.7928
13225TIP3    H261091   4.428   6.163  12.882 -0.4962  1.2085  2.3245
13226TIP3   OH261092   4.258   2.151  11.638 -0.0700 -0.2924  0.4375
13226TIP3    H161093   4.268   2.235  11.684  0.0150 -1.1514  2.0586
13226TIP3    H261094   4.287   2.169  11.549  0.1661  1.3485  0.8100
13227TIP3   OH261095   4.842   3.916  12.740 -0.6731  0.0117  0.0193
13227TIP3    H161096   4.791   3.836  12.727 -0.8454  0.1083  0.1128
13227TIP3    H261097   4.933   3.887  12.731 -0.7321 -0.2097  0.1351
13228TIP3   OH261098   3.125   6.177  13.559 -0.1713 -0.7119  0.3945
13228TIP3    H161099   3.183   6.166  13.484  1.1982  0.5874  1.2008
13228TIP3    H261100   3.040   6.199  13.521  0.1152 -1.5171 -0.7816
13229TIP3   OH261101   6.497   4.108   6.103  0.1862 -0.3717 -0.3277
13229TIP3    H161102   6.526   4.072   6.187  0.7116  1.0291  0.1212
13229TIP3    H261103   6.534   4.196   6.101 -1.4319  0.3269 -1.1605
13230TIP3   OH261104   2.500   1.774   0.090 -0.0957 -0.6224  0.2358
13230TIP3    H161105   2.471   1.710   0.155 -0.7818  1.0007  1.5897
13230TIP3    H261106   2.551   1.722   0.027 -0.4372 -2.4491  1.3811
13231TIP3   OH261107   3.488   2.056  16.969 -0.0738  0.5643 -0.2584
13231TIP3    H161108   3.442   2.043  17.051  0.8708 -0.5877  0.1250
13231TIP3    H261109   3.478   1.972  16.922  0.6462  0.6848 -0.6544
13232TIP3   OH261110   2.917   4.795  15.957 -0.0358 -0.2680  0.4719
13232TIP3    H161111   2.896   4.787  16.050  1.3034  1.0824  0.9392
13232TIP3    H261112   2.954   4.710  15.933 -0.8843 -0.8058  1.0097
13233TIP3   OH261113   3.007   4.056  14.459 -0.4088 -0.6170  0.0634
13233TIP3    H161114   3.070   3.997  14.501  0.2613 -0.7440 -1.0678
13233TIP3    H261115   2.931   4.000  14.441  0.4137 -1.3337 -1.4665
13234TIP3   OH261116   6.287   4.405  12.944 -0.3071  0.3358  0.4596
13234TIP3    H161117   6.278   4.312  12.922  2.8869 -0.2846  1.3173
13234TIP3    H261118   6.282   4.450  12.860 -2.9254 -0.4029  0.1170
13235TIP3   OH261119   4.989   5.428   4.960 -0.4356  0.4254 -0.4313
13235TIP3    H161120   4.972   5.357   4.899  0.1089 -0.1445  0.0599
13235TIP3    H261121   4.922   5.418   5.028 -1.4613  1.4611 -1.2461
13236TIP3   OH261122   4.411   5.358  16.945 -0.5741 -0.5526  0.1309
13236TIP3    H161123   4.420   5.298  16.871 -0.3754  1.5865 -1.6872
13236TIP3    H261124   4.346   5.422  16.916 -0.3438  0.4540  1.7417
13237TIP3   OH261125   3.381   4.569  14.484  0.0359  0.1102  0.7358
13237TIP3    H161126   3.392   4.556  14.578  0.3525 -0.7141  0.5922
13237TIP3    H261127   3.293   4.607  14.475  0.4002  1.1757  1.4355
13238TIP3   OH261128   0.259   3.729   2.279 -0.4207  0.3056 -0.5460
13238TIP3    H161129   0.284   3.637   2.288  0.3923  0.6404  0.9212
13238TIP3    H261130   0.342   3.775   2.263 -0.5041  1.0330  0.9824
13239TIP3   OH261131   3.391   4.590  15.381  0.4011  0.4041 -0.2946
13239TIP3    H161132   3.348   4.525  15.325 -0.5084 -0.0985  0.9180
13239TIP3    H261133   3.331   4.665  15.381  0.7735  0.6987 -0.6107
13240TIP3   OH261134   6.160   4.037  16.151 -0.0473  0.0683 -0.6739
13240TIP3    H161135   6.203   4.121  16.167 -1.1165  0.4147  0.5489
13240TIP3    H261136   6.072   4.060  16.123 -1.2020 -0.5999  2.1332
13241TIP3   OH261137   2.212   1.978   3.305  0.3328  0.0666 -0.1380
13241TIP3    H161138   2.261   1.907   3.264 -0.1752 -1.0560  1.1026
13241TIP3    H261139   2.177   1.939   3.385 -1.9872  1.0036 -0.6076
13242TIP3   OH261140   2.167   1.058   0.916 -0.0683 -0.1215 -0.0987
13242TIP3    H161141   2.146   1.149   0.896  0.9263  0.4410  1.2169
13242TIP3    H261142   2.219   1.028   0.841  0.1129  0.5961 -0.2688
13243TIP3   OH261143   4.809   4.058  16.896 -0.4929 -0.1518  0.0317
13243TIP3    H161144   4.839   4.116  16.966 -0.9087 -0.6464  0.6353
13243TIP3    H261145   4.886   4.044  16.842  0.1232 -0.5963  0.9821
13244TIP3   OH261146   4.784   0.346   2.313  0.4746  0.0418 -0.3779
13244TIP3    H161147   4.764   0.397   2.392  0.6146 -0.2944 -0.1224
13244TIP3    H261148   4.880   0.343   2.311  0.5060  1.0734 -1.2249
13245TIP3   OH261149   3.133   0.984   4.765  0.5403  0.6114 -0.0388
13245TIP3    H161150   3.082   0.985   4.846 -0.2751  0.8981 -0.5343
13245TIP3    H261151   3.122   0.895   4.731  2.0959  0.0447  0.8922
13246TIP3   OH261152   0.617   0.714  14.016  0.4070 -1.1822 -0.1027
13246TIP3    H161153   0.672   0.720  14.095  0.0006  0.3482  0.0974
13246TIP3    H261154   0.583   0.803  14.004 -0.0355 -1.5365 -1.6576
13247TIP3   OH261155   5.352   3.452  10.756  0.2289 -0.4235 -0.3256
13247TIP3    H161156   5.333   3.543  10.735  1.5517  0.0757  0.5146
13247TIP3    H261157   5.429   3.431  10.703 -0.1878 -1.1248 -0.6642
13248TIP3   OH261158   6.658   0.047  16.405  0.3132 -0.1350 -0.5320
13248TIP3    H161159   6.753   0.057  16.393  0.1998  0.2715 -1.1576
13248TIP3    H261160   6.639   0.094  16.487  0.6610 -0.2740 -0.3692
13249TIP3   OH261161   2.484   6.317   4.682  0.0836  0.0465 -0.6212
13249TIP3    H161162   2.429   6.243   4.709 -0.7972  0.6635 -0.6820
13249TIP3    H261163   2.504   6.299   4.590 -0.9074  0.3353 -0.9047
13250TIP3   OH261164   3.495   1.122  11.303 -0.2073  0.1897 -0.1237
13250TIP3    H161165   3.433   1.048  11.302  2.2870 -2.0591  0.7522
13250TIP3    H261166   3.494   1.155  11.214 -2.3235 -0.0409 -0.2344
13251TIP3   OH261167   1.815   1.731   3.482  0.4903 -0.2682 -0.5380
13251TIP3    H161168   1.765   1.787   3.423 -0.4112 -0.2858  0.1959
13251TIP3    H261169   1.785   1.755   3.570  0.8417 -1.1801 -0.1527
13252TIP3   OH261170   5.440   1.806  12.427 -0.3058 -0.3613  0.0618
13252TIP3    H161171   5.421   1.866  12.499  2.9774 -1.4039  2.0299
13252TIP3    H261172   5.508   1.851  12.376 -0.7707 -0.7217 -0.8932
13253TIP3   OH261173   6.799   6.159  14.100  0.1017 -0.0684 -0.8565
13253TIP3    H161174   6.850   6.080  14.081 -0.4376 -0.3643 -1.1035
13253TIP3    H261175   6.857   6.232  14.077  0.5570 -0.3929 -0.7507
13254TIP3   OH261176   5.331   5.869   1.469 -0.1124 -0.5309  0.6633
13254TIP3    H161177   5.273   5.836   1.537 -1.0593 -0.7161 -0.2079
13254TIP3    H261178   5.274   5.920   1.411  0.5033 -1.0589 -0.4393
13255TIP3   OH261179   3.492   1.230   3.950  0.5206  0.4385 -0.0162
13255TIP3    H161180   3.429   1.237   3.879  0.2013  0.2410  0.2437
13255TIP3    H261181   3.459   1.158   4.005  3.0683 -2.4105 -1.9415
13256TIP3   OH261182   4.229   0.329  15.423  0.2554  0.2700  0.2825
13256TIP3    H161183   4.188   0.322  15.337 -0.1743  0.8035  0.4395
13256TIP3    H261184   4.155   0.335  15.484  0.5450 -0.5888  0.7380
13257TIP3   OH261185   1.135   3.396   4.790  0.1135  0.1276  0.3500
13257TIP3    H161186   1.075   3.465   4.760  0.2405 -0.5415 -1.6146
13257TIP3    H261187   1.085   3.315   4.781  0.4124 -0.1738  1.3398
13258TIP3   OH261188   1.282   1.935  16.136  0.0044  0.0307 -0.4573
13258TIP3    H161189   1.350   1.868  16.139 -0.4128 -0.3657  1.1017
13258TIP3    H261190   1.302   1.986  16.057  1.4237 -0.7740 -0.6539
13259TIP3   OH261191   2.653   3.551   0.115 -0.1457 -0.0788 -0.5861
13259TIP3    H161192   2.725   3.561   0.053 -0.8423 -0.1018 -1.4331
13259TIP3    H261193   2.591   3.620   0.090  0.0674  0.6831  0.8551
13260TIP3   OH261194   0.433   3.765   5.549  0.3430 -0.0022 -0.2558
13260TIP3    H161195   0.374   3.785   5.476 -0.6031  1.4068  0.8505
13260TIP3    H261196   0.416   3.673   5.569  1.3984 -0.7457 -2.4637
13261TIP3   OH261197   0.265   1.616  14.871 -0.2029  0.1336 -0.5595
13261TIP3    H161198   0.185   1.632  14.820 -0.5249  0.1961 -0.0450
13261TIP3    H261199   0.241   1.640  14.961 -0.0078 -1.0860 -0.1624
13262TIP3   OH261200   1.519   1.902   4.332  0.2802  0.1975 -0.5441
13262TIP3    H161201   1.512   1.870   4.421  3.1363  0.3694 -0.1785
13262TIP3    H261202   1.445   1.862   4.286 -0.7729 -0.5406  1.6751
13263TIP3   OH261203   5.124   2.534  15.180 -0.1727 -0.2909 -0.3739
13263TIP3    H161204   5.200   2.589  15.201  0.2945 -0.6850 -1.0051
13263TIP3    H261205   5.062   2.595  15.140  0.1281 -0.1152 -0.5806
13264TIP3   OH261206   3.546   1.585  12.975 -0.8545  0.0108  0.1622
13264TIP3    H161207   3.502   1.629  12.903  0.3980  0.4244 -0.3793
13264TIP3    H261208   3.511   1.626  13.054 -1.6659  0.0956 -0.2368
13265TIP3   OH261209   2.248   2.011   5.683  0.0705  0.6257 -0.2987
13265TIP3    H161210   2.339   1.982   5.691 -0.3229 -1.1067 -1.4894
13265TIP3    H261211   2.203   1.966   5.755 -0.2833 -0.7200 -1.3082
13266TIP3   OH261212   3.181   6.090   1.970 -0.0170  0.1226  0.1044
13266TIP3    H161213   3.134   6.121   2.047 -0.0276 -0.6725  0.4201
13266TIP3    H261214   3.180   6.165   1.910 -0.4007  0.5944  0.6927
13267TIP3   OH261215   5.771   4.458  14.378  0.1246  0.3177  0.4337
13267TIP3    H161216   5.730   4.484  14.296  0.8426 -1.7195 -0.6577
13267TIP3    H261217   5.855   4.504  14.379  1.1686 -1.4116 -1.2206
13268TIP3   OH261218   2.957   4.373  14.759  0.3729 -0.3276  0.0684
13268TIP3    H161219   3.029   4.381  14.822  1.5935 -1.3824 -1.1076
13268TIP3    H261220   2.938   4.279  14.756  1.5938 -0.5865 -2.3717
13269TIP3   OH261221   1.629   3.830  14.098 -0.1120  0.7672 -0.2106
13269TIP3    H161222   1.556   3.887  14.074  0.0404  1.3434  0.6507
13269TIP3    H261223   1.591   3.765  14.157 -0.2054  0.1857 -0.8869
13270TIP3   OH261224   5.060   4.247   1.453 -0.6910  0.5614  0.3957
13270TIP3    H161225   5.009   4.168   1.470 -0.4440 -0.3415 -2.5129
13270TIP3    H261226   4.999   4.306   1.408 -0.0351  0.7221 -0.3018
13271TIP3   OH261227   0.248   4.247   0.972 -0.0660  0.0028 -0.2147
13271TIP3    H161228   0.249   4.166   1.023  1.4281 -1.4176 -2.3261
13271TIP3    H261229   0.275   4.315   1.034 -0.9950 -1.1365  1.5245
13272TIP3   OH261230   5.569   3.659   2.452 -0.7674  0.0603 -0.0986
13272TIP3    H161231   5.550   3.683   2.361 -0.8387  0.5558  0.0446
13272TIP3    H261232   5.500   3.700   2.503  0.8604  2.3111  0.4840
13273TIP3   OH261233   2.234   1.416   1.079  0.2411 -0.1953  0.1801
13273TIP3    H161234   2.255   1.465   0.999 -1.8972 -2.0187 -1.6569
13273TIP3    H261235   2.141   1.434   1.094  0.6837  0.3672  2.5144
13274TIP3   OH261236   5.557   5.155   2.865 -0.3592  0.1596 -0.7088
13274TIP3    H161237   5.621   5.084   2.872  0.6442  0.8721 -2.1357
13274TIP3    H261238   5.491   5.122   2.804 -1.3966 -0.5519  0.7166
13275TIP3   OH261239   4.454   2.934  14.093  0.1332 -0.2818  0.0565
13275TIP3    H161240   4.533   2.975  14.057 -0.0374 -1.7931 -2.2360
13275TIP3    H261241   4.394   3.007  14.107  1.7504  0.8574  1.4776
13276TIP3   OH261242   4.660   4.512   4.323 -0.1918 -0.3927  0.3860
13276TIP3    H161243   4.641   4.551   4.238 -1.3694 -2.1628 -0.2184
13276TIP3    H261244   4.695   4.426   4.303  1.3912 -0.0951  1.6857
13277TIP3   OH261245   4.098   4.089   3.388  0.2268 -0.5640  0.5319
13277TIP3    H161246   4.076   4.058   3.300 -0.5126 -0.2914  0.6125
13277TIP3    H261247   4.191   4.110   3.384  0.1402 -0.3015 -0.2588
13278TIP3   OH261248   3.656   2.386  14.937 -0.2506  0.0477 -0.0092
13278TIP3    H161249   3.656   2.336  14.856 -1.0449 -0.1542  0.1132
13278TIP3    H261250   3.619   2.471  14.914 -3.5503 -1.0343  0.7259
13279TIP3   OH261251   5.904   5.364  16.125  0.4978 -0.0311  0.0267
13279TIP3    H161252   5.863   5.450  16.112 -0.6043 -0.7116 -1.1929
13279TIP3    H261253   5.906   5.325  16.038 -0.0902 -1.7113  0.7307
13280TIP3   OH261254   6.191   3.076   4.166  0.0948  0.5356 -0.4813
13280TIP3    H161255   6.144   3.113   4.240  1.7269  0.0676  0.8467
13280TIP3    H261256   6.161   2.985   4.162  1.1276  0.1274  0.6088
13281TIP3   OH261257   2.639   5.146  15.759 -0.0624  0.1089  0.0672
13281TIP3    H161258   2.674   5.146  15.670  0.7422 -1.0371  0.3528
13281TIP3    H261259   2.585   5.225  15.764 -0.9712 -0.3447 -1.7446
13282TIP3   OH261260   1.592   3.700  15.438  0.6003 -0.0524  0.1191
13282TIP3    H161261   1.613   3.701  15.345 -0.8663 -0.7335 -0.2473
13282TIP3    H261262   1.646   3.770  15.476 -2.5158  4.0827 -2.1548
13283TIP3   OH261263   6.435   2.185   0.842  0.0258  0.5519 -0.2685
13283TIP3    H161264   6.396   2.106   0.881  2.4196  0.1675  1.5665
13283TIP3    H261265   6.450   2.161   0.751  0.8179 -1.1973  0.2798
13284TIP3   OH261266   0.555   2.298  15.446 -0.5414  0.5169 -0.2497
13284TIP3    H161267   0.637   2.253  15.467 -0.1836  0.1219 -2.2744
13284TIP3    H261268   0.569   2.388  15.477  0.9881  0.6566 -1.2037
13285TIP3   OH261269   0.888   6.662  15.692  0.0784  0.0649  0.2187
13285TIP3    H161270   0.891   6.689  15.784  1.7724 -0.6154  0.3891
13285TIP3    H261271   0.849   6.574  15.694  1.2429 -0.4544  0.4268
13286TIP3   OH261272   0.805   2.623  13.341  0.7796  0.2409 -0.2595
13286TIP3    H161273   0.845   2.595  13.423  1.8480 -2.5680 -1.6018
13286TIP3    H261274   0.867   2.687  13.305  2.0948 -1.0904 -0.4437
13287TIP3   OH261275   2.528   4.330   4.766 -0.5799  0.1672  0.0456
13287TIP3    H161276   2.592   4.378   4.714 -0.4068  0.0706  0.1673
13287TIP3    H261277   2.578   4.298   4.842 -0.6153 -0.4780 -0.1996
13288TIP3   OH261278   4.836   6.232  13.105  0.5924  0.6124 -0.2171
13288TIP3    H161279   4.842   6.324  13.080  1.6805  0.5738 -0.1510
13288TIP3    H261280   4.903   6.221  13.173 -0.3133  0.0333  0.6117
13289TIP3   OH261281   3.509   6.104  13.113  0.5514 -0.0059 -0.0916
13289TIP3    H161282   3.552   6.087  13.197 -0.4838 -1.5904  0.1578
13289TIP3    H261283   3.524   6.024  13.062 -0.4491  0.1796 -0.7013
13290TIP3   OH261284   1.989   5.747  15.768 -0.4115  0.0884 -0.5339
13290TIP3    H161285   2.062   5.778  15.715  0.7251 -1.0461  0.3340
13290TIP3    H261286   1.920   5.728  15.704  0.2868  0.4655 -1.4311
13291TIP3   OH261287   2.787   6.339  13.604  0.4293 -0.3678 -0.2393
13291TIP3    H161288   2.784   6.272  13.536  2.2359 -0.8555  0.1287
13291TIP3    H261289   2.872   6.382  13.594 -0.7683  2.1107 -0.6355
13292TIP3   OH261290   1.965   5.549   1.321  0.8056 -0.5040  0.7481
13292TIP3    H161291   2.037   5.536   1.382  1.7150 -0.4968 -0.2950
13292TIP3    H261292   1.993   5.622   1.266 -0.0278 -0.4608  0.3744
13293TIP3   OH261293   1.006   2.083   5.322 -0.2900 -0.1411  0.7045
13293TIP3    H161294   1.022   2.007   5.266 -4.2479 -0.3494 -0.4844
13293TIP3    H261295   1.080   2.141   5.307  1.8822 -2.8705  0.1522
13294TIP3   OH261296   4.621   2.863  16.421  0.3865 -0.2544  0.1745
13294TIP3    H161297   4.690   2.919  16.384 -0.9944  1.3201 -0.1309
13294TIP3    H261298   4.576   2.919  16.484 -0.3349 -1.3997  0.7125
13295TIP3   OH261299   2.947   3.890   1.266 -0.4020  0.2817  0.2784
13295TIP3    H161300   2.852   3.873   1.270 -0.2617 -1.5202 -1.8683
13295TIP3    H261301   2.987   3.803   1.271  0.8906  0.6056 -2.4398
13296TIP3   OH261302   2.294   4.873   5.814  0.3505  0.1692  0.5175
13296TIP3    H161303   2.358   4.902   5.879  0.8820 -3.1298  1.6807
13296TIP3    H261304   2.311   4.779   5.804 -0.8574  0.1655 -3.1816
13297TIP3   OH261305   2.017   6.649   2.913 -0.3718  0.0993 -0.3393
13297TIP3    H161306   2.097   6.596   2.918  0.4784  1.1236 -2.1603
13297TIP3    H261307   2.022   6.706   2.991  0.9562  0.4946 -0.6836
13298TIP3   OH261308   3.881   0.973  15.470  0.1523 -0.1282  0.1921
13298TIP3    H161309   3.907   0.945  15.558 -3.2202  0.1286  1.4260
13298TIP3    H261310   3.865   1.067  15.479  0.5328  0.0488 -0.9147
13299TIP3   OH261311   0.370   6.186   5.227 -0.1335 -0.0417 -0.6426
13299TIP3    H161312   0.384   6.098   5.262  0.0537  0.5382  0.8039
13299TIP3    H261313   0.444   6.237   5.262 -0.2900  0.7110 -1.3892
13300TIP3   OH261314   4.548   2.548   4.495  0.3482 -0.0293  0.4861
13300TIP3    H161315   4.509   2.603   4.562 -0.1726 -0.7195  0.7721
13300TIP3    H261316   4.627   2.594   4.468  0.8374  0.0300  1.9277
13301TIP3   OH261317   3.591   6.086   4.978  0.5232 -0.5815 -0.3703
13301TIP3    H161318   3.538   6.162   4.952  0.1459 -0.4449  0.7455
13301TIP3    H261319   3.674   6.124   5.007  0.7831 -0.6982 -0.9525
13302TIP3   OH261320   0.719   3.544   4.422  0.1115 -0.0656  0.1825
13302TIP3    H161321   0.770   3.516   4.346  0.0621 -2.6450  0.9991
13302TIP3    H261322   0.748   3.486   4.493 -1.6897  0.5245  1.4663
13303TIP3   OH261323   3.765   6.511  13.513  0.0035  0.1177  0.0468
13303TIP3    H161324   3.744   6.495  13.605  0.3883 -0.5573  0.0239
13303TIP3    H261325   3.688   6.479  13.465  0.9971 -2.3313 -0.0349
13304TIP3   OH261326   6.225   0.212  10.664 -0.2189 -0.0902 -0.0211
13304TIP3    H161327   6.265   0.285  10.709 -0.8864  0.1258  0.2345
13304TIP3    H261328   6.145   0.248  10.626  0.0690 -0.3898 -0.9452
13305TIP3   OH261329   0.136   2.451  13.733 -0.1470  0.2857  0.0686
13305TIP3    H161330   0.106   2.456  13.642 -0.4505  1.5766  0.2179
13305TIP3    H261331   0.068   2.496  13.783  0.3856  0.2468  0.8401
13306TIP3   OH261332   5.937   3.873  11.210 -0.2779  0.0784  0.2890
13306TIP3    H161333   5.939   3.788  11.253 -1.0770  0.2242  0.6221
13306TIP3    H261334   5.969   3.856  11.121 -0.7308 -0.6252  0.2584
13307TIP3   OH261335   5.904   2.312   1.920  0.2311 -0.0225 -0.0586
13307TIP3    H161336   5.812   2.333   1.936  0.1522 -1.3348  1.3670
13307TIP3    H261337   5.926   2.245   1.984  1.6451 -1.2068 -1.6712
13308TIP3   OH261338   6.005   4.808   0.406 -0.1729 -0.2345  0.3163
13308TIP3    H161339   6.069   4.828   0.474  0.1276 -1.6649  0.4930
13308TIP3    H261340   6.000   4.888   0.353 -0.2778  0.8453  1.8748
13309TIP3   OH261341   5.865   3.345  15.443 -0.2131  0.2897  0.3046
13309TIP3    H161342   5.960   3.340  15.441 -0.2592 -1.5033  0.5678
13309TIP3    H261343   5.838   3.264  15.487 -1.7885  1.8682  2.4284
13310TIP3   OH261344   5.084   3.690   1.394  0.0541 -0.1263  0.2390
13310TIP3    H161345   5.033   3.727   1.322  1.6355 -0.2936 -1.0337
13310TIP3    H261346   5.125   3.611   1.357 -0.4620 -1.2061  1.8545
13311TIP3   OH261347   0.714   6.566  16.108  0.1918 -0.2326 -0.4628
13311TIP3    H161348   0.662   6.577  16.028 -1.6646  0.6873  0.8167
13311TIP3    H261349   0.716   6.653  16.148  1.9816 -0.4446  0.0266
13312TIP3   OH261350   3.131   4.009  11.038  0.3584  0.0443  0.1204
13312TIP3    H161351   3.069   4.031  11.108 -0.4654 -1.3185 -0.1375
13312TIP3    H261352   3.112   4.072  10.968  1.8062  2.0211  1.3987
13313TIP3   OH261353   0.076   3.831   6.387  0.0037  0.3109  0.8281
13313TIP3    H161354   0.064   3.738   6.370 -1.5952  0.5959  0.2383
13313TIP3    H261355  -0.009   3.871   6.366  0.8143  1.9734  0.5060
13314TIP3   OH261356   4.815   5.912  14.262 -0.1946  0.2619 -0.7006
13314TIP3    H161357   4.802   5.978  14.194 -0.2357  0.1493 -0.8007
13314TIP3    H261358   4.729   5.870  14.272 -0.9642  2.0660  1.2897
13315TIP3   OH261359   3.908   0.094  11.315 -0.7295 -0.2156 -1.1327
13315TIP3    H161360   3.983   0.144  11.348 -0.1428 -0.4424 -2.0704
13315TIP3    H261361   3.834   0.155  11.320 -0.2466  0.3896 -1.2707
13316TIP3   OH261362   3.012   4.239  14.265  0.3956  0.1627  0.5262
13316TIP3    H161363   3.009   4.179  14.339  1.5804  0.6177  0.9583
13316TIP3    H261364   2.922   4.238  14.230 -0.4841  0.7753  2.6129
13317TIP3   OH261365   5.189   5.081  14.683  0.1911  0.7123  0.0374
13317TIP3    H161366   5.187   4.985  14.689  1.9719  0.7054  0.9861
13317TIP3    H261367   5.096   5.106  14.680 -0.3201 -1.1144 -2.1925
13318TIP3   OH261368   6.133   0.639  15.257 -0.4946 -0.5371 -0.4031
13318TIP3    H161369   6.081   0.575  15.209 -0.2896 -0.2066 -1.0703
13318TIP3    H261370   6.223   0.618  15.235 -0.4769  1.1518 -2.1658
13319TIP3   OH261371   1.016   5.115   4.969  0.2255  0.3988  0.4508
13319TIP3    H161372   1.050   5.175   5.035  1.7864  0.9176 -0.7549
13319TIP3    H261373   1.093   5.070   4.935 -0.8666 -2.0909  1.0742
13320TIP3   OH261374   5.167   1.648  13.220  0.0256 -0.0896 -0.0243
13320TIP3    H161375   5.241   1.702  13.192 -0.0029 -0.8518 -1.7047
13320TIP3    H261376   5.120   1.628  13.139 -1.6122 -0.2329  0.9298
13321TIP3   OH261377   1.081   5.179   2.810  0.0925  0.2346 -0.6454
13321TIP3    H161378   1.017   5.146   2.748 -1.8137  0.0610  1.2829
13321TIP3    H261379   1.163   5.138   2.784 -1.0943 -1.6387 -1.6744
13322TIP3   OH261380   1.366   4.738  12.897  0.2877 -0.1132 -0.0134
13322TIP3    H161381   1.347   4.644  12.888 -0.4417  0.1154 -1.1359
13322TIP3    H261382   1.419   4.744  12.976 -1.0203 -1.2843  1.0264
13323TIP3   OH261383   2.366   1.749  12.545  0.1443 -0.3522  0.0241
13323TIP3    H161384   2.320   1.699  12.612 -1.3713  0.4931 -0.3553
13323TIP3    H261385   2.364   1.840  12.576 -0.2009 -0.0116 -0.9315
13324TIP3   OH261386   5.698   5.497  14.578 -0.6909  0.1867 -0.3086
13324TIP3    H161387   5.642   5.574  14.565 -0.5177  0.2285 -0.8548
13324TIP3    H261388   5.652   5.427  14.532  0.1077  0.4106 -1.5076
13325TIP3   OH261389   4.265   5.130   2.629  0.0596  0.4001 -0.0682
13325TIP3    H161390   4.242   5.093   2.544  3.2539  0.6067 -1.1738
13325TIP3    H261391   4.257   5.225   2.617 -1.0757  0.3850  0.4359
13326TIP3   OH261392   1.382   6.103  15.856  0.2861 -0.4291 -0.0237
13326TIP3    H161393   1.307   6.106  15.915  0.4487 -0.4782  0.1846
13326TIP3    H261394   1.360   6.034  15.793  1.0063 -1.8322  1.2018
13327TIP3   OH261395   3.577   4.557  12.899 -0.5544  0.1991 -0.0053
13327TIP3    H161396   3.549   4.519  12.983  1.8936  0.0711  0.8420
13327TIP3    H261397   3.660   4.513  12.880 -0.0819  1.6588 -1.4902
13328TIP3   OH261398   4.358   0.801   4.856  0.7141 -0.2795 -0.0443
13328TIP3    H161399   4.450   0.823   4.870  0.7336 -0.0243 -0.5546
13328TIP3    H261400   4.334   0.750   4.934  1.2796 -0.3399  0.0989
13329TIP3   OH261401   6.789   5.639   1.914  0.2803  0.0831 -0.1670
13329TIP3    H161402   6.834   5.667   1.993 -0.0732  0.8276 -0.2164
13329TIP3    H261403   6.858   5.600   1.859  0.8817  1.2565 -0.2681
13330TIP3   OH261404   0.969   6.125  15.721  0.0947  0.0588 -0.3422
13330TIP3    H161405   0.951   6.033  15.705 -3.3400  0.3402  1.1274
13330TIP3    H261406   1.006   6.127  15.810 -0.4882  0.1451 -0.1002
13331TIP3   OH261407   3.393   5.150   0.048 -0.1629 -0.5891 -0.2598
13331TIP3    H161408   3.461   5.210   0.079 -0.2260  0.6598 -2.3224
13331TIP3    H261409   3.316   5.171   0.101  0.2777 -0.0139  0.1674
13332TIP3   OH261410   4.503   1.826  12.680  0.5087  0.1055 -0.8733
13332TIP3    H161411   4.556   1.775  12.619  0.2910 -1.3514  0.1102
13332TIP3    H261412   4.564   1.855  12.747  0.1624 -1.2861  0.0775
13333TIP3   OH261413   4.466   2.187   0.237 -0.0384 -0.0994 -0.5049
13333TIP3    H161414   4.514   2.269   0.223 -0.5167  0.1112 -0.9933
13333TIP3    H261415   4.375   2.215   0.247  0.1016 -0.3487  2.0374
13334TIP3   OH261416   5.833   6.280   3.549  0.3529  0.6246  0.4721
13334TIP3    H161417   5.823   6.194   3.588  0.8295 -0.1209 -0.9846
13334TIP3    H261418   5.924   6.304   3.567  0.8116 -0.0700 -0.8043
13335TIP3   OH261419   5.517   0.551  11.296  0.3016 -0.0973 -0.3395
13335TIP3    H161420   5.444   0.538  11.236  0.6261  1.0126 -0.9961
13335TIP3    H261421   5.533   0.464  11.333 -4.0797  0.2208  3.1290
13336TIP3   OH261422   2.381   6.487  15.307 -0.7788 -0.2867  0.2299
13336TIP3    H161423   2.323   6.477  15.231 -1.2618 -1.7253  0.7401
13336TIP3    H261424   2.437   6.561  15.285 -1.3055 -0.2926 -1.2697
13337TIP3   OH261425   6.393   4.447   5.361  0.0243 -0.4079 -0.4992
13337TIP3    H161426   6.391   4.483   5.273  0.6997 -0.1294 -0.4023
13337TIP3    H261427   6.394   4.352   5.348  0.4816 -0.3650 -0.8009
13338TIP3   OH261428   2.926   4.832   6.241 -0.7707 -0.6663  0.3294
13338TIP3    H161429   2.903   4.742   6.265 -2.7231 -0.2193  0.3367
13338TIP3    H261430   2.845   4.881   6.253 -0.3632  0.6664 -1.8606
13339TIP3   OH261431   5.875   1.604   1.998 -0.2629 -0.0237  0.5581
13339TIP3    H161432   5.852   1.516   1.969  0.6515  0.2588 -1.1685
13339TIP3    H261433   5.971   1.601   2.008  0.4198  1.7583 -3.5620
13340TIP3   OH261434   2.825   1.229   5.851 -0.2344 -0.1005 -0.1132
13340TIP3    H161435   2.810   1.152   5.905  0.4035 -0.2500 -0.1323
13340TIP3    H261436   2.866   1.293   5.909 -0.4861  0.1172 -0.1703
13341TIP3   OH261437   5.400   3.080  12.198  0.6746 -0.4678  0.4583
13341TIP3    H161438   5.420   3.013  12.133  0.6809  0.1126 -0.1519
13341TIP3    H261439   5.305   3.073  12.211  0.7071 -0.7288  0.5453
13342TIP3   OH261440   4.938   2.040   1.056  0.8185 -0.5231  0.4355
13342TIP3    H161441   4.977   2.025   0.970  0.6177 -1.0761  0.4408
13342TIP3    H261442   4.845   2.049   1.039  0.8578  0.1278  0.5086
13343TIP3   OH261443   4.192   2.598  14.080  0.3332  0.0037  0.4012
13343TIP3    H161444   4.156   2.669  14.133  0.2030 -0.7810  1.3843
13343TIP3    H261445   4.129   2.588  14.009  0.9701  1.6746 -0.4628
13344TIP3   OH261446   6.473   0.473   2.487  0.2684  0.0408  0.0553
13344TIP3    H161447   6.431   0.392   2.514 -3.1325  1.4903 -0.3718
13344TIP3    H261448   6.464   0.532   2.563 -0.4656  1.0703 -0.8019
13345TIP3   OH261449   5.388   1.292  15.759 -0.0667  0.3962 -0.5627
13345TIP3    H161450   5.306   1.310  15.712 -0.1746 -0.1928 -0.6030
13345TIP3    H261451   5.365   1.301  15.851 -0.1463  0.3729 -0.5799
13346TIP3   OH261452   6.344   2.619   1.238 -0.3637 -0.3148  0.2315
13346TIP3    H161453   6.280   2.560   1.200  0.7397 -1.3512 -0.0684
13346TIP3    H261454   6.364   2.681   1.169 -0.9004 -0.0905  0.2709
13347TIP3   OH261455   3.959   3.044   2.720 -0.5374 -0.4756 -0.0574
13347TIP3    H161456   3.954   3.044   2.816  2.1929 -3.0416  0.2492
13347TIP3    H261457   3.882   2.994   2.693 -1.7747  0.9412  0.6762
13348TIP3   OH261458   2.861   2.460   4.891  0.3393 -0.5553 -0.7020
13348TIP3    H161459   2.779   2.494   4.856  0.3961  2.4986  1.6530
13348TIP3    H261460   2.929   2.507   4.842  0.4942  0.4721  0.4303
13349TIP3   OH261461   3.843   2.667  11.289  0.1716 -0.6976 -0.5182
13349TIP3    H161462   3.787   2.742  11.267  1.1539  0.5210  0.9543
13349TIP3    H261463   3.919   2.677  11.232  0.7173 -0.0125  0.2943
13350TIP3   OH261464   1.752   5.417   1.440 -0.4942  0.4465  0.4842
13350TIP3    H161465   1.788   5.337   1.479 -0.0675  0.9261  1.0928
13350TIP3    H261466   1.826   5.455   1.392  0.0246  1.7313  2.1997
13351TIP3   OH261467   2.332   4.721  16.323 -0.1450  0.0410  0.4157
13351TIP3    H161468   2.303   4.691  16.409  1.6352 -2.1564  0.3501
13351TIP3    H261469   2.303   4.652  16.262 -0.5080  1.0684 -0.6187
13352TIP3   OH261470   1.648   6.300   4.298  0.1688 -0.0163 -0.2235
13352TIP3    H161471   1.647   6.261   4.385  1.2132  0.6636  0.1278
13352TIP3    H261472   1.740   6.296   4.271 -0.2461 -0.8084 -1.5816
13353TIP3   OH261473   5.735   0.618  14.170 -0.1969 -0.2585 -0.4316
13353TIP3    H161474   5.648   0.647  14.199  0.1836  0.9436 -0.4408
13353TIP3    H261475   5.756   0.675  14.096  0.6286 -0.4974 -0.3935
13354TIP3   OH261476   5.796   2.758   5.045  1.1432  0.5140  0.7038
13354TIP3    H161477   5.823   2.669   5.066  0.1067 -0.0035 -0.0117
13354TIP3    H261478   5.840   2.778   4.962  2.0652  1.0163  1.3006
13355TIP3   OH261479   3.162   0.672   4.384 -0.6036  0.4232  0.3885
13355TIP3    H161480   3.174   0.684   4.478 -1.3233 -0.5073  0.6133
13355TIP3    H261481   3.099   0.600   4.376 -0.5880  0.5105 -0.8045
13356TIP3   OH261482   5.293   5.537   5.413  0.0727  0.2447  0.4332
13356TIP3    H161483   5.377   5.570   5.381 -0.9732  0.0953 -2.8297
13356TIP3    H261484   5.228   5.599   5.380 -1.2577 -0.5019  1.5224
13357TIP3   OH261485   3.348   6.024  16.851  0.3704 -0.1046 -0.1693
13357TIP3    H161486   3.428   6.073  16.871  0.4985  0.5077 -2.0226
13357TIP3    H261487   3.327   6.048  16.761 -1.0341 -1.4771 -0.2440
13358TIP3   OH261488   2.819   5.678  15.885  0.4273 -0.1212  0.1204
13358TIP3    H161489   2.883   5.731  15.838 -1.4150  1.6970 -0.5046
13358TIP3    H261490   2.749   5.663  15.821 -1.0524  0.3743  1.5618
13359TIP3   OH261491   4.296   1.720   1.909 -0.0778 -0.3856 -0.0237
13359TIP3    H161492   4.307   1.815   1.911  1.5419 -0.5449  0.4126
13359TIP3    H261493   4.337   1.693   1.827  1.3811 -0.8775  0.8404
13360TIP3   OH261494   0.110   4.516  16.995 -0.0564 -0.7004  0.1605
13360TIP3    H161495   0.092   4.436  16.947  0.1854  0.9961 -2.9948
13360TIP3    H261496   0.029   4.566  16.989  0.0958 -0.2725  1.2961
13361TIP3   OH261497   1.922   0.095  13.430 -0.1089  0.2387 -0.0274
13361TIP3    H161498   1.827   0.102  13.423 -0.1731  0.0876  0.6037
13361TIP3    H261499   1.950   0.180  13.463 -0.1070  0.0399  0.4957
13362TIP3   OH261500   5.060   5.223  15.157  0.2358 -0.0735 -0.6152
13362TIP3    H161501   5.093   5.254  15.073  0.6174 -1.5284 -1.0255
13362TIP3    H261502   4.965   5.220  15.146  0.1127  1.5937 -0.3151
13363TIP3   OH261503   1.834   5.044   1.899 -0.4185  0.0835  0.2344
13363TIP3    H161504   1.825   4.953   1.927 -2.1518  1.0377  3.2189
13363TIP3    H261505   1.747   5.069   1.868 -0.3913  1.1199  0.9367
13364TIP3   OH261506   5.978   2.174  16.277  0.0982 -0.3266  0.4889
13364TIP3    H161507   5.929   2.225  16.213 -0.5417 -1.1819  0.2829
13364TIP3    H261508   5.939   2.196  16.361 -1.1380 -1.5047  0.2646
13365TIP3   OH261509   1.823   4.300  13.453  0.2208  0.5650  0.2665
13365TIP3    H161510   1.737   4.328  13.420  0.1628  1.7508  1.3409
13365TIP3    H261511   1.855   4.375  13.504  1.1939 -0.4337  1.1844
13366TIP3   OH261512   4.396   0.219   4.001 -0.1837 -0.4153 -0.5366
13366TIP3    H161513   4.373   0.300   4.048 -1.2299 -1.2661  0.4903
13366TIP3    H261514   4.444   0.167   4.065  2.4777  0.2454 -1.8698
13367TIP3   OH261515   4.224   6.373   3.152 -0.0546  0.0324  0.2989
13367TIP3    H161516   4.289   6.358   3.083 -0.0748  0.4389  0.1866
13367TIP3    H261517   4.242   6.306   3.218 -0.9410 -1.2965 -0.7443
13368TIP3   OH261518   5.071   0.319   0.135 -0.5207  0.1756  0.2885
13368TIP3    H161519   5.000   0.264   0.169 -2.3216  1.0790 -1.7278
13368TIP3    H261520   5.097   0.373   0.210 -1.2345 -0.8813  1.3438
13369TIP3   OH261521   3.621   5.278  15.861  0.1361 -0.4324  0.2877
13369TIP3    H161522   3.713   5.295  15.842  0.0144 -0.7142 -0.5941
13369TIP3    H261523   3.588   5.361  15.898 -0.0197  0.7562 -2.3087
13370TIP3   OH261524   1.960   2.644  11.570  0.6492 -0.6944 -0.0360
13370TIP3    H161525   1.917   2.607  11.648  0.3027 -1.4468 -0.5709
13370TIP3    H261526   1.941   2.737  11.574  1.2653 -0.5980  1.1754
13371TIP3   OH261527   5.985   4.523  11.714  0.1688  0.0558 -0.6526
13371TIP3    H161528   5.924   4.488  11.779 -0.4447  0.5369 -0.9553
13371TIP3    H261529   6.009   4.609  11.747 -0.4016  0.4432 -1.2021
13372TIP3   OH261530   2.526   6.018  15.187  0.3703 -0.0524 -0.0766
13372TIP3    H161531   2.474   6.088  15.226  0.9452  0.0614  0.5032
13372TIP3    H261532   2.571   5.977  15.261  2.8451  1.2856 -0.7013
13373TIP3   OH261533   5.302   6.390   3.782  0.6634 -0.2704 -0.0641
13373TIP3    H161534   5.274   6.428   3.698  2.4610 -0.3230 -0.7433
13373TIP3    H261535   5.338   6.464   3.831  2.6891 -0.7471 -0.7385
13374TIP3   OH261536   2.719   2.753   3.326  0.2003 -0.1673  0.9528
13374TIP3    H161537   2.788   2.771   3.261 -1.1820  0.7440 -0.3405
13374TIP3    H261538   2.722   2.658   3.338 -0.6433 -0.6479 -1.8824
13375TIP3   OH261539   3.664   0.317   3.353 -0.3365  0.4799  0.6873
13375TIP3    H161540   3.749   0.275   3.368 -0.0599  0.3061 -1.0833
13375TIP3    H261541   3.635   0.344   3.440  1.0983 -0.2814  1.4499
13376TIP3   OH261542   5.027   3.407   0.300 -0.0757  0.0667  0.0480
13376TIP3    H161543   5.095   3.387   0.235  0.7277  0.4806  0.7432
13376TIP3    H261544   5.076   3.435   0.378 -1.0475  0.3687  0.5622
13377TIP3   OH261545   4.266   0.918   0.524  0.0414  0.5009  0.1492
13377TIP3    H161546   4.309   0.929   0.439  1.2401  0.2385  0.7049
13377TIP3    H261547   4.301   0.989   0.578 -0.7198  0.6712  0.4281
13378TIP3   OH261548   3.478   3.912  10.518  0.1021  0.5894  0.0363
13378TIP3    H161549   3.421   3.964  10.575 -0.0005 -1.0067  1.4624
13378TIP3    H261550   3.462   3.822  10.544  1.0034 -0.1075 -1.6998
13379TIP3   OH261551   3.342   2.173  16.570 -0.2497 -0.5674  0.3168
13379TIP3    H161552   3.432   2.184  16.602 -0.1409 -0.0489 -0.1446
13379TIP3    H261553   3.340   2.086  16.531 -0.7198 -1.7394  2.7796
13380TIP3   OH261554   5.780   1.576  12.964  0.9175 -0.3384 -0.1096
13380TIP3    H161555   5.719   1.503  12.951  0.5882  0.1114 -1.2773
13380TIP3    H261556   5.843   1.567  12.892  2.1950 -0.7395  1.0266
13381TIP3   OH261557   2.865   3.795   1.853  0.6418  0.2265 -0.5317
13381TIP3    H161558   2.853   3.773   1.945 -2.4253  1.3169 -0.5621
13381TIP3    H261559   2.924   3.728   1.820 -0.7678 -2.1919  1.4879
13382TIP3   OH261560   5.673   5.076  13.762  0.4084 -0.1546  0.3340
13382TIP3    H161561   5.754   5.127  13.765  0.3145  0.0135 -0.0205
13382TIP3    H261562   5.670   5.041  13.673  0.1307 -0.2320  0.3737
13383TIP3   OH261563   0.111   6.434  12.867 -0.0577 -0.5759 -0.3051
13383TIP3    H161564   0.029   6.418  12.915  0.9808 -1.7240  1.1667
13383TIP3    H261565   0.131   6.526  12.885 -0.9374 -0.3283 -0.5448
13384TIP3   OH261566   3.863   2.073   5.453 -0.0569 -0.3427  0.2996
13384TIP3    H161567   3.935   2.105   5.398 -0.9098 -0.3708 -0.8633
13384TIP3    H261568   3.784   2.104   5.410 -0.7834 -0.9704  1.1406
13385TIP3   OH261569   0.578   1.551  14.404 -0.0955  0.3912 -0.3062
13385TIP3    H161570   0.554   1.622  14.345  0.7967  0.6061 -0.4220
13385TIP3    H261571   0.535   1.474  14.368 -0.2365  0.6807 -0.7599
13386TIP3   OH261572   1.717   2.161   1.848 -0.8799 -0.2455  0.5611
13386TIP3    H161573   1.717   2.120   1.935 -1.5512  0.7342  1.0511
13386TIP3    H261574   1.804   2.199   1.839 -1.0921  0.4130  1.1991
13387TIP3   OH261575   2.406   6.459   0.084  0.0308 -0.0749 -0.2688
13387TIP3    H161576   2.447   6.398   0.146  0.2515  0.4199  0.0790
13387TIP3    H261577   2.336   6.500   0.134 -0.8211 -0.8179 -0.8229
13388TIP3   OH261578   2.431   2.674   1.036 -0.0233 -0.2543 -0.0535
13388TIP3    H161579   2.518   2.651   1.003  0.2173  0.3397  0.1351
13388TIP3    H261580   2.445   2.757   1.083 -0.7901  0.1207 -0.4685
13389TIP3   OH261581   3.438   1.288   4.317 -0.4272  0.2229 -0.4958
13389TIP3    H161582   3.408   1.270   4.406 -0.3325 -0.0398 -0.5139
13389TIP3    H261583   3.361   1.272   4.262 -0.9112  1.8511 -0.3299
13390TIP3   OH261584   6.536   0.071  12.201 -0.0639  0.6231  0.5849
13390TIP3    H161585   6.476   0.105  12.267 -0.2586  0.2280  0.6205
13390TIP3    H261586   6.525   0.129  12.126 -0.2492  0.7510  0.7093
13391TIP3   OH261587   4.923   2.674   1.835  0.0641  0.3892  0.1132
13391TIP3    H161588   5.002   2.621   1.844 -0.4408 -0.3988  0.0061
13391TIP3    H261589   4.954   2.764   1.845  0.8593  0.0583  0.8287
13392TIP3   OH261590   2.434   4.622   3.664 -0.3508  0.3320 -0.2743
13392TIP3    H161591   2.491   4.690   3.700  1.7868 -1.0087 -0.9137
13392TIP3    H261592   2.388   4.586   3.740 -0.1537  1.2835  0.3051
13393TIP3   OH261593   1.366   4.113  13.527 -0.3663  0.0334  0.0138
13393TIP3    H161594   1.405   4.064  13.600 -0.9178 -0.4566 -0.0111
13393TIP3    H261595   1.395   4.066  13.449 -0.2460  0.2186 -0.0522
13394TIP3   OH261596   1.680   1.785  12.504  0.1944  0.1052 -0.3134
13394TIP3    H161597   1.712   1.848  12.569 -1.2828 -0.7178  1.3131
13394TIP3    H261598   1.746   1.716  12.503  1.6399  1.4426 -1.8368
13395TIP3   OH261599   2.642   6.516   3.098 -0.5464 -0.1332  0.3126
13395TIP3    H161600   2.602   6.433   3.072 -0.0424 -0.2648 -0.0504
13395TIP3    H261601   2.731   6.493   3.123 -0.4889  0.2611  0.4832
13396TIP3   OH261602   4.168   3.916  14.382 -0.1842 -0.2040 -0.0882
13396TIP3    H161603   4.206   4.002  14.395 -2.0258  1.3565 -3.5762
13396TIP3    H261604   4.100   3.909  14.449 -1.5878  2.1779 -1.1494
13397TIP3   OH261605   4.390   2.342  12.091  0.2644 -0.2052 -0.2715
13397TIP3    H161606   4.464   2.294  12.056  0.0952  1.0813 -2.5551
13397TIP3    H261607   4.319   2.327  12.029 -1.2925 -1.0330  1.6199
13398TIP3   OH261608   1.241   3.471   3.160 -0.1188 -0.5028  0.0620
13398TIP3    H161609   1.275   3.560   3.169 -0.4298 -0.3245 -0.4972
13398TIP3    H261610   1.281   3.439   3.079 -2.2187  0.1545 -1.3127
13399TIP3   OH261611   4.176   5.055  16.361  0.6420 -0.1376 -0.3106
13399TIP3    H161612   4.197   4.985  16.299 -0.8341 -1.6523  0.8086
13399TIP3    H261613   4.154   5.130  16.305  3.5771 -0.0710 -1.5296
13400TIP3   OH261614   1.193   6.713  15.001 -0.2636  0.7931 -0.0758
13400TIP3    H161615   1.192   6.689  14.909 -0.8143 -1.8852  0.5437
13400TIP3    H261616   1.140   6.645  15.044  1.0091  1.2402  2.3637
13401TIP3   OH261617   5.514   2.537  11.645  0.5943 -0.2056  0.1680
13401TIP3    H161618   5.604   2.558  11.621  0.9239  0.0259  1.5484
13401TIP3    H261619   5.521   2.458  11.699 -0.0062 -0.0733  0.4539
13402TIP3   OH261620   2.361   4.762   2.470  0.2367  0.5889 -0.3403
13402TIP3    H161621   2.448   4.752   2.510  0.7470  1.6185 -1.1591
13402TIP3    H261622   2.346   4.856   2.468 -0.9440  0.4164 -0.1412
13403TIP3   OH261623   3.086   0.644   4.949 -0.8231 -0.6756 -0.0462
13403TIP3    H161624   3.158   0.690   4.992  0.4378 -0.3510 -2.3140
13403TIP3    H261625   3.079   0.561   4.995  0.6133 -0.4562  0.6142
13404TIP3   OH261626   3.736   5.213  14.532 -0.7391 -0.5820  0.7219
13404TIP3    H161627   3.813   5.168  14.496 -0.0996  1.2687 -0.3423
13404TIP3    H261628   3.747   5.206  14.627  1.6132  0.9448  0.6490
13405TIP3   OH261629   3.818   4.336   0.345 -0.0875  0.6837  0.0851
13405TIP3    H161630   3.864   4.256   0.320 -0.2212  0.3370  0.8997
13405TIP3    H261631   3.731   4.327   0.306 -0.7948 -0.5348  1.8166
13406TIP3   OH261632   3.491   0.349  13.045  0.5549  0.4605 -0.9737
13406TIP3    H161633   3.465   0.334  12.954 -0.0128  0.8984 -0.8889
13406TIP3    H261634   3.550   0.424  13.041  2.7841 -1.2160 -1.3056
13407TIP3   OH261635   2.137   0.918   2.426  0.2931  0.5945 -0.0645
13407TIP3    H161636   2.049   0.881   2.417  0.6056 -0.1889  0.0434
13407TIP3    H261637   2.127   0.987   2.491 -0.1594  0.2331  0.2608
13408TIP3   OH261638   1.918   0.728  16.536 -0.2042 -0.7126 -0.5324
13408TIP3    H161639   2.003   0.734  16.581 -1.7852 -1.0673  2.8581
13408TIP3    H261640   1.889   0.819  16.529 -0.3479 -0.7083  0.0640
13409TIP3   OH261641   2.305   2.131   1.135  0.1853  0.1900  0.4589
13409TIP3    H161642   2.358   2.124   1.055  0.7080 -1.0429  0.8818
13409TIP3    H261643   2.318   2.221   1.164 -0.5207  0.8604 -1.1634
13410TIP3   OH261644   3.893   3.607   2.793  0.2309  0.0724 -0.0635
13410TIP3    H161645   3.822   3.661   2.758 -0.7051  0.6707  2.5332
13410TIP3    H261646   3.878   3.520   2.757  0.2277  0.9343 -2.2542
13411TIP3   OH261647   5.921   6.639   6.659  0.4753 -0.0334  0.2679
13411TIP3    H161648   5.883   6.726   6.654 -0.1159 -0.2592  0.7061
13411TIP3    H261649   5.864   6.591   6.719  1.5647 -0.3194  1.1129
13412TIP3   OH261650   0.440   4.912   3.962  0.0848 -0.0675 -0.1798
13412TIP3    H161651   0.435   5.002   3.930  2.0273  0.3873  0.6103
13412TIP3    H261652   0.501   4.869   3.902  1.8033  0.1157  1.3632
13413TIP3   OH261653   0.704   2.628  11.841  0.3067  0.0100 -0.1302
13413TIP3    H161654   0.792   2.596  11.822  0.9218  0.9971  0.8744
13413TIP3    H261655   0.668   2.565  11.903  2.0213  1.7582  2.9255
13414TIP3   OH261656   6.190   4.342  11.863  0.6014  0.0113  0.7205
13414TIP3    H161657   6.163   4.355  11.772 -0.5204 -1.8938  0.7313
13414TIP3    H261658   6.279   4.306  11.856  0.3347 -0.5955  0.3369
13415TIP3   OH261659   5.638   3.297   0.941 -0.2670  0.2711 -0.0822
13415TIP3    H161660   5.548   3.318   0.967 -1.0395 -0.8086 -1.7470
13415TIP3    H261661   5.674   3.251   1.017 -1.3809  0.0381  0.3290
13416TIP3   OH261662   5.595   0.348  12.998  0.3848 -0.5171  0.4587
13416TIP3    H161663   5.658   0.403  13.044  1.2067 -0.9889 -0.0627
13416TIP3    H261664   5.603   0.262  13.040  1.6076 -1.1239 -0.9170
13417TIP3   OH261665   4.146   5.527  13.949 -0.0029  0.0035  0.2322
13417TIP3    H161666   4.219   5.502  14.005  1.0338  2.9473  0.3398
13417TIP3    H261667   4.186   5.553  13.867 -0.7127  2.7856  0.6745
13418TIP3   OH261668   6.721   1.518   3.564 -0.1068 -0.0509 -0.2566
13418TIP3    H161669   6.793   1.580   3.558 -1.0618  1.0081 -1.0482
13418TIP3    H261670   6.654   1.553   3.506 -0.5130 -2.0598 -1.0864
13419TIP3   OH261671   6.359   3.401  15.468 -0.6157  0.3185 -0.2036
13419TIP3    H161672   6.355   3.453  15.388  0.1499  0.4137 -0.1936
13419TIP3    H261673   6.449   3.414  15.500 -0.6131 -0.4978  0.1423
13420TIP3   OH261674   2.580   1.446   2.480  0.3485 -0.7747  0.4228
13420TIP3    H161675   2.627   1.529   2.488  0.2168 -0.6077 -0.5307
13420TIP3    H261676   2.498   1.468   2.438 -0.1220 -1.2459  1.0779
13421TIP3   OH261677   2.379   4.181  10.971  0.6241 -0.1651  0.6833
13421TIP3    H161678   2.460   4.229  10.954  0.0004  0.3202 -1.1635
13421TIP3    H261679   2.326   4.195  10.892 -0.6769 -1.6641  1.2402
13422TIP3   OH261680   0.177   3.735  14.595 -0.0537 -0.1917 -0.0981
13422TIP3    H161681   0.149   3.793  14.666 -2.7980 -1.1923 -0.2314
13422TIP3    H261682   0.196   3.793  14.522  1.5680  0.7629  1.0156
13423TIP3   OH261683   4.668   0.634  14.846  0.3842 -0.0567 -0.0152
13423TIP3    H161684   4.728   0.707  14.827  0.2610  0.1673  0.4445
13423TIP3    H261685   4.633   0.654  14.933 -2.4642  1.2346 -1.3516
13424TIP3   OH261686   2.192   3.798   3.849  0.5675  0.2620 -0.1139
13424TIP3    H161687   2.145   3.751   3.779  0.6506  0.4017 -0.2634
13424TIP3    H261688   2.133   3.793   3.924  1.2558 -1.4580  0.3516
13425TIP3   OH261689   2.288   2.401  14.451 -0.3797 -0.1374 -0.4453
13425TIP3    H161690   2.310   2.308  14.442  0.1273 -0.0365 -0.2826
13425TIP3    H261691   2.373   2.445  14.458 -0.6356  0.2280  0.5355
13426TIP3   OH261692   4.757   0.270  12.757  0.3877  0.0645  0.3346
13426TIP3    H161693   4.797   0.184  12.742 -1.9227 -0.8538 -1.2532
13426TIP3    H261694   4.824   0.333  12.731  1.5260 -1.3245 -0.1991
13427TIP3   OH261695   2.407   0.274  14.672  0.1394  0.0703 -0.6831
13427TIP3    H161696   2.369   0.284  14.584 -0.3663 -1.5433 -0.6904
13427TIP3    H261697   2.336   0.238  14.725  0.3377  1.3373  0.5094
13428TIP3   OH261698   1.118   4.535  12.825 -0.1867 -0.5609  0.1796
13428TIP3    H161699   1.208   4.501  12.830  0.4666  1.0903  0.3915
13428TIP3    H261700   1.088   4.536  12.916 -0.3527 -0.9081  0.1316
13429TIP3   OH261701   0.917   2.744  14.514 -0.5820  0.2602 -0.0139
13429TIP3    H161702   0.923   2.760  14.420  0.5385  0.0372  0.0037
13429TIP3    H261703   0.983   2.801  14.552  0.3270 -1.0774  0.4529
13430TIP3   OH261704   3.970   5.115   3.688 -0.3097 -0.2182 -0.0019
13430TIP3    H161705   3.882   5.083   3.704 -0.0057 -1.0570  0.0557
13430TIP3    H261706   4.027   5.047   3.723  0.3727  0.6922  0.7265
13431TIP3   OH261707   6.177   0.807  14.890 -0.2445  0.1276  0.5494
13431TIP3    H161708   6.142   0.718  14.900  1.0197 -0.2935  1.4369
13431TIP3    H261709   6.258   0.807  14.941  0.7764  1.2300 -0.9929
13432TIP3   OH261710   1.671   0.231  10.819  0.2526  0.3476  0.5941
13432TIP3    H161711   1.690   0.148  10.775 -0.0167 -0.2391  1.5415
13432TIP3    H261712   1.651   0.292  10.749  1.6134 -0.0754 -0.2018
13433TIP3   OH261713   0.856   4.462   2.619 -0.4271 -0.4737  0.2000
13433TIP3    H161714   0.923   4.411   2.664 -0.3649 -0.1692  0.4544
13433TIP3    H261715   0.838   4.535   2.678 -1.7016 -1.0874  0.6072
13434TIP3   OH261716   2.663   3.391  12.192 -0.6910 -0.2743 -0.0450
13434TIP3    H161717   2.743   3.430  12.158  0.9597 -2.4871  0.9969
13434TIP3    H261718   2.660   3.419  12.283  0.2663 -2.0200  0.5844
13435TIP3   OH261719   4.726   1.481  15.332  0.2129  0.0419  0.0244
13435TIP3    H161720   4.774   1.564  15.324  1.8576 -0.6079  2.2721
13435TIP3    H261721   4.742   1.436  15.249  2.3794  0.4550  0.1637
13436TIP3   OH261722   1.561   3.953   5.288 -0.2341 -0.2315 -0.1167
13436TIP3    H161723   1.568   4.025   5.350 -0.6799 -0.1357 -0.1720
13436TIP3    H261724   1.539   3.877   5.342  0.7730 -0.4519  0.0109
13437TIP3   OH261725   4.086   2.279  13.761  0.0584 -0.1034 -0.2688
13437TIP3    H161726   4.075   2.184  13.770  1.4571 -0.2990 -0.4452
13437TIP3    H261727   4.161   2.289  13.702 -0.1936  1.1156 -0.4082
13438TIP3   OH261728   0.753   6.290   3.691  0.3801 -0.3062  0.5805
13438TIP3    H161729   0.749   6.212   3.635  1.8142 -0.4061  0.5948
13438TIP3    H261730   0.752   6.256   3.780  0.5480 -0.2807  0.5919
13439TIP3   OH261731   6.180   2.375   1.241 -0.0168 -0.5172  0.3630
13439TIP3    H161732   6.115   2.365   1.312  0.1712 -3.0324  0.2618
13439TIP3    H261733   6.264   2.357   1.283  0.3866  0.4274 -0.0126
13440TIP3   OH261734   4.430   1.340  14.362 -0.1119  0.1960  0.1361
13440TIP3    H161735   4.421   1.299  14.276 -0.8822  0.2679  0.1794
13440TIP3    H261736   4.508   1.299  14.399  0.0564 -0.0539 -0.4740
13441TIP3   OH261737   2.428   1.421  12.661  0.1013  0.1821 -0.3356
13441TIP3    H161738   2.480   1.373  12.597  0.0949 -0.1207 -0.1154
13441TIP3    H261739   2.343   1.434  12.619  0.5498  1.2670 -0.9706
13442TIP3   OH261740   3.879   1.017   0.081  0.2136 -0.1075  0.4307
13442TIP3    H161741   3.808   1.062   0.127  0.0296 -0.6439  0.6904
13442TIP3    H261742   3.881   1.056  -0.006 -0.7761 -0.4656  0.2303
13443TIP3   OH261743   6.792   3.621   4.173 -0.6185 -0.1691  0.3583
13443TIP3    H161744   6.857   3.688   4.154  0.1722 -0.7336  1.0253
13443TIP3    H261745   6.735   3.620   4.095 -0.7065  1.3203  0.3893
13444TIP3   OH261746   2.375   5.037  17.035 -0.5884 -0.5791 -0.1874
13444TIP3    H161747   2.411   4.966  16.982  0.1555  0.5328 -1.2207
13444TIP3    H261748   2.318   5.084  16.975  0.3049  0.7338 -0.0374
13445TIP3   OH261749   5.897   4.203  15.625 -0.2984 -0.1215 -0.0642
13445TIP3    H161750   5.989   4.206  15.651 -0.5120 -0.5040  0.7556
13445TIP3    H261751   5.899   4.184  15.531  0.4726  0.8035 -0.2521
13446TIP3   OH261752   3.243   1.508   5.992  0.0193 -0.2573 -0.3197
13446TIP3    H161753   3.287   1.577   5.942 -0.3141 -0.6295 -1.1239
13446TIP3    H261754   3.281   1.426   5.960  3.1293 -0.4499  3.0915
13447TIP3   OH261755   6.558   4.619  12.770 -0.1595  0.3033 -0.2421
13447TIP3    H161756   6.593   4.555  12.708  0.9775 -0.1920  0.8637
13447TIP3    H261757   6.607   4.604  12.851 -0.9602  1.5394  0.5162
13448TIP3   OH261758   0.297   0.798   4.390  0.2146 -0.5005 -0.2229
13448TIP3    H161759   0.361   0.777   4.322  1.8157 -0.7086  1.2943
13448TIP3    H261760   0.320   0.887   4.419  0.3410 -0.8853  0.8998
13449TIP3   OH261761   5.355   1.880   4.622  0.0777  0.7642 -0.9771
13449TIP3    H161762   5.294   1.862   4.551  0.3500 -0.4980 -0.9113
13449TIP3    H261763   5.368   1.795   4.665 -3.0694  1.9550  3.0305
13450TIP3   OH261764   1.110   1.183  14.659 -0.1675  0.6944 -0.4214
13450TIP3    H161765   1.040   1.233  14.617 -1.8011 -0.0894  1.2908
13450TIP3    H261766   1.139   1.238  14.732 -0.3306  0.1789  0.0362
13451TIP3   OH261767   6.220   2.745   4.178 -0.7839 -0.0107 -0.2955
13451TIP3    H161768   6.162   2.711   4.246 -0.7090 -1.9796 -1.1240
13451TIP3    H261769   6.269   2.815   4.220 -0.6993 -1.1952  1.6965
13452TIP3   OH261770   2.981   2.746   5.889 -0.2030  0.6347 -0.1450
13452TIP3    H161771   2.969   2.744   5.984  0.6611  0.2441 -0.0364
13452TIP3    H261772   2.893   2.762   5.854 -0.3442  1.9420  0.7584
13453TIP3   OH261773   4.242   5.732   1.294 -0.2912  0.0489 -0.1521
13453TIP3    H161774   4.227   5.808   1.237 -1.2099  0.2327  0.2941
13453TIP3    H261775   4.305   5.763   1.359 -1.1837  0.6937  0.4475
13454TIP3   OH261776   5.971   5.893  14.043 -0.2529  0.6171  0.7010
13454TIP3    H161777   5.947   5.803  14.064  0.1369  0.5210  0.7317
13454TIP3    H261778   5.900   5.924  13.987 -0.3626  0.2745  0.6495
13455TIP3   OH261779   4.916   2.121   1.947  0.1545 -0.2291 -0.0696
13455TIP3    H161780   4.880   2.172   1.875 -1.3084 -0.1320  0.6887
13455TIP3    H261781   4.864   2.041   1.949  1.5226 -1.1755 -0.3784
13456TIP3   OH261782   6.319   3.326  14.917 -0.0910 -0.4778  0.4108
13456TIP3    H161783   6.327   3.241  14.872 -1.8216  0.0077 -0.8830
13456TIP3    H261784   6.407   3.364  14.909  0.7145 -2.0866  0.9625
13457TIP3   OH261785   2.549   1.024   2.286 -0.3228 -0.0344 -0.3394
13457TIP3    H161786   2.551   0.986   2.199  0.2794 -1.0797  0.1069
13457TIP3    H261787   2.467   1.073   2.289 -1.5290 -1.8963 -0.7323
13458TIP3   OH261788   0.536   2.791   3.449 -0.0899 -0.6154 -0.3792
13458TIP3    H161789   0.544   2.850   3.374 -2.0046 -1.6582 -1.5000
13458TIP3    H261790   0.551   2.846   3.525  0.3401  0.8319 -1.4626
13459TIP3   OH261791   0.251   4.785  11.814  0.1174 -0.5349  0.0335
13459TIP3    H161792   0.187   4.758  11.748 -0.3950  1.0940 -0.1599
13459TIP3    H261793   0.199   4.827  11.883  0.8957  0.0681  0.2718
13460TIP3   OH261794   5.089   2.281  14.409 -0.6997  0.3924 -0.0447
13460TIP3    H161795   5.107   2.374  14.399 -1.2894  0.4532 -0.5908
13460TIP3    H261796   5.118   2.260  14.498  0.2443  0.8990 -0.2220
13461TIP3   OH261797   0.214   4.767   0.760  0.0216  0.3972  0.0389
13461TIP3    H161798   0.291   4.764   0.703 -1.6525  0.8704 -2.4550
13461TIP3    H261799   0.182   4.677   0.763  0.1265  0.3673  0.2602
13462TIP3   OH261800   1.493   1.574   0.852 -0.7695  0.1885 -0.5197
13462TIP3    H161801   1.549   1.621   0.790  2.8921 -0.1098  2.2450
13462TIP3    H261802   1.512   1.481   0.835  0.6990  0.1124  1.2436
13463TIP3   OH261803   6.411   1.965  16.233 -0.1238 -0.1225 -0.0084
13463TIP3    H161804   6.421   2.058  16.212  0.9613 -0.5731 -1.6698
13463TIP3    H261805   6.316   1.952  16.240 -0.3734  0.7665 -1.4445
13464TIP3   OH261806   3.566   4.251   0.236  0.4619 -0.1253  0.0922
13464TIP3    H161807   3.527   4.336   0.214  1.4875  0.0467 -1.1703
13464TIP3    H261808   3.520   4.188   0.180  0.0246 -0.3516  0.6918
13465TIP3   OH261809   2.927   6.773  12.894 -0.2904 -0.0599 -0.0692
13465TIP3    H161810   3.013   6.807  12.867 -0.9785  2.3775  0.5893
13465TIP3    H261811   2.943   6.681  12.915  2.5227  0.7127  1.5976
13466TIP3   OH261812   4.651   1.441  14.714 -0.0205  0.0050 -0.3281
13466TIP3    H161813   4.684   1.525  14.681 -1.8810 -0.1847 -3.0253
13466TIP3    H261814   4.680   1.377  14.649  1.0178 -1.4466  1.4848
13467TIP3   OH261815   4.420   3.189  14.758  0.2442  0.1834  0.8634
13467TIP3    H161816   4.426   3.112  14.703  0.1110  2.1384 -2.1457
13467TIP3    H261817   4.486   3.176  14.826  0.4177 -2.3707  0.2956
13468TIP3   OH261818   1.365   3.629  10.784  0.2657 -0.0546  0.1944
13468TIP3    H161819   1.430   3.690  10.820 -0.8186  0.3851  1.5269
13468TIP3    H261820   1.325   3.678  10.712  0.6257  0.1258  0.1150
13469TIP3   OH261821   4.522   2.549   4.203 -0.4958 -0.6545 -0.4313
13469TIP3    H161822   4.536   2.536   4.297 -0.0707  0.2021 -0.3627
13469TIP3    H261823   4.459   2.621   4.198 -0.9906 -1.1168 -0.7966
13470TIP3   OH261824   5.617   1.347  16.486 -0.4808  0.1736  0.1851
13470TIP3    H161825   5.708   1.375  16.486 -0.3629 -0.2043  1.1310
13470TIP3    H261826   5.621   1.253  16.470 -0.8475  0.5196 -2.3554
13471TIP3   OH261827   5.667   4.149   3.879  0.2373 -0.4918  0.0780
13471TIP3    H161828   5.733   4.172   3.813  0.5985  0.6345  0.8198
13471TIP3    H261829   5.717   4.104   3.948 -0.1344 -1.6294 -0.3624
13472TIP3   OH261830   3.138   3.433  16.198 -0.2754  0.2392 -0.0847
13472TIP3    H161831   3.081   3.462  16.270  0.3657 -0.4983  0.7371
13472TIP3    H261832   3.140   3.507  16.137  0.1221  1.3331  1.2289
13473TIP3   OH261833   6.472   2.241  14.927  0.7622  0.2529 -0.2474
13473TIP3    H161834   6.549   2.290  14.899  1.3521  0.0770  1.0215
13473TIP3    H261835   6.484   2.228  15.021 -0.0502 -1.1216 -0.3025
13474TIP3   OH261836   3.971   4.458  14.360  0.5710  0.3549 -0.2326
13474TIP3    H161837   3.902   4.479  14.423 -0.8900 -1.0080 -1.2924
13474TIP3    H261838   4.050   4.497  14.397 -0.8951  2.7446  0.5994
13475TIP3   OH261839   5.776   0.834   3.418 -0.4133 -0.3441 -0.1467
13475TIP3    H161840   5.740   0.874   3.497  1.6744  0.8170  0.2672
13475TIP3    H261841   5.731   0.878   3.346 -0.6241  0.2663  0.3541
13476TIP3   OH261842   3.898   6.733  14.761 -0.3465  0.0901 -0.7225
13476TIP3    H161843   3.845   6.734  14.682  1.1328 -1.6192 -1.8074
13476TIP3    H261844   3.972   6.791  14.741  0.8111 -1.4739 -1.2600
13477TIP3   OH261845   4.808   5.388   3.344  0.1293 -0.5255  0.1497
13477TIP3    H161846   4.727   5.409   3.389 -1.9751 -0.6217 -3.2461
13477TIP3    H261847   4.837   5.305   3.383  0.0696  0.7414  3.1138
13478TIP3   OH261848   4.715   2.162   4.795 -0.1665  0.3573 -0.2118
13478TIP3    H161849   4.740   2.213   4.873 -0.6574 -0.5201  0.5383
13478TIP3    H261850   4.771   2.085   4.799 -0.6660 -0.0158 -0.3569
13479TIP3   OH261851   6.575   0.449   4.007 -0.0610 -0.1172 -0.0884
13479TIP3    H161852   6.533   0.528   4.041  0.3222 -0.2134  0.6240
13479TIP3    H261853   6.600   0.471   3.917 -2.8560 -0.5056 -1.0630
13480TIP3   OH261854   2.700   2.370   3.652 -0.1711  0.2141 -0.2978
13480TIP3    H161855   2.619   2.320   3.660  0.1814 -0.2840  0.2220
13480TIP3    H261856   2.697   2.405   3.563  0.3662 -2.1443 -1.3251
13481TIP3   OH261857   5.132   0.901   0.543 -0.1987  0.1618 -0.0996
13481TIP3    H161858   5.042   0.934   0.546  0.0220  1.3169 -3.0102
13481TIP3    H261859   5.124   0.806   0.540 -1.7267  0.2129 -4.5775
13482TIP3   OH261860   5.116   6.471   2.279  0.0244 -0.3804 -0.6781
13482TIP3    H161861   5.127   6.566   2.286  0.6888 -0.3239 -2.2327
13482TIP3    H261862   5.035   6.453   2.326  1.5811  0.4751  2.6902
13483TIP3   OH261863   1.570   6.461   5.784  0.4256  0.0368 -0.7443
13483TIP3    H161864   1.550   6.383   5.835  1.2978  1.1083  1.3782
13483TIP3    H261865   1.638   6.434   5.723  1.1439 -0.7443  0.3644
13484TIP3   OH261866   5.947   4.772  15.413  0.0662 -0.4580 -0.7568
13484TIP3    H161867   5.978   4.852  15.369  0.1346  0.2825  0.5741
13484TIP3    H261868   5.889   4.731  15.348  0.6536  0.2501 -1.7704
13485TIP3   OH261869   5.995   3.027   5.128 -0.3036 -0.4708  0.0732
13485TIP3    H161870   6.056   3.099   5.143  2.0080 -2.2316 -0.2643
13485TIP3    H261871   5.967   3.001   5.215  2.9336 -2.3466  0.7497
13486TIP3   OH261872   3.840   3.808  15.489  0.2220  0.0940  0.3558
13486TIP3    H161873   3.791   3.854  15.557 -1.7182 -0.4242 -0.5963
13486TIP3    H261874   3.790   3.825  15.409  0.0481 -2.6842 -0.2195
13487TIP3   OH261875   5.483   2.169  16.439  0.3580  0.1558 -0.2497
13487TIP3    H161876   5.554   2.185  16.501  0.4377  0.0343 -0.3075
13487TIP3    H261877   5.514   2.094  16.387  0.8767  1.0818 -1.3097
13488TIP3   OH261878   1.302   0.334   1.210  0.1791  0.5412 -0.1724
13488TIP3    H161879   1.236   0.277   1.171  0.0467  1.3477 -1.1821
13488TIP3    H261880   1.293   0.417   1.162  0.7427  1.2269  0.8677
13489TIP3   OH261881   2.012   6.097  17.002 -0.4240 -0.8463  0.0751
13489TIP3    H161882   2.010   6.183  16.961 -2.7254  0.1142  1.9776
13489TIP3    H261883   1.934   6.052  16.969 -0.7120 -1.1389  1.0834
13490TIP3   OH261884   4.837   1.339  12.553 -0.2057  0.3015 -0.2842
13490TIP3    H161885   4.768   1.333  12.487  1.0949 -1.0444 -1.5966
13490TIP3    H261886   4.912   1.376  12.505  1.2429 -2.1152 -0.0539
13491TIP3   OH261887   0.189   1.203   5.915  0.0737  0.1053  0.4543
13491TIP3    H161888   0.146   1.148   5.849 -1.9636  0.9639  1.0033
13491TIP3    H261889   0.269   1.156   5.937 -0.1845 -1.1787 -1.1917
13492TIP3   OH261890   1.470   3.754  16.027 -0.0135 -0.3868  0.3942
13492TIP3    H161891   1.515   3.830  15.991 -0.9589  0.1164  0.2342
13492TIP3    H261892   1.517   3.734  16.108 -0.0286  0.6683  0.6811
13493TIP3   OH261893   0.429   3.498  16.598 -0.0906 -0.0434  0.2701
13493TIP3    H161894   0.502   3.491  16.660  0.0812 -2.9034 -0.1611
13493TIP3    H261895   0.363   3.437  16.630 -1.4716  0.9726 -0.5041
13494TIP3   OH261896   1.738   0.191  17.013 -0.2707  0.4519 -0.7091
13494TIP3    H161897   1.666   0.145  16.971  0.8133 -1.0080 -1.0607
13494TIP3    H261898   1.817   0.147  16.980  0.7332  1.2056  0.5833
13495TIP3   OH261899   6.353   5.365  13.785 -0.2150 -0.2250  0.2388
13495TIP3    H161900   6.397   5.384  13.868 -0.7130  0.1946  0.4110
13495TIP3    H261901   6.260   5.364  13.806 -0.3848  0.4445 -0.4130
13496TIP3   OH261902   6.318   6.565  15.386 -1.3505 -0.4557 -0.0472
13496TIP3    H161903   6.391   6.573  15.447  1.1120  0.0142 -2.7999
13496TIP3    H261904   6.256   6.506  15.429  0.9995 -1.5080  2.1193
13497TIP3   OH261905   3.214   6.751  12.858 -0.2688  0.3261 -0.6349
13497TIP3    H161906   3.252   6.699  12.929 -0.4005 -1.7260 -1.9743
13497TIP3    H261907   3.252   6.838  12.869  0.9279 -0.3456  1.0113
13498TIP3   OH261908   0.411   5.307   4.153 -0.0837 -0.3625 -0.2683
13498TIP3    H161909   0.410   5.348   4.066 -0.9377 -0.5789 -0.3678
13498TIP3    H261910   0.482   5.351   4.199  1.0037 -0.8775 -1.3809
13499TIP3   OH261911   2.787   6.003   4.444 -0.3220 -0.2586 -0.7760
13499TIP3    H161912   2.851   5.941   4.410 -0.5303 -0.7611 -0.2628
13499TIP3    H261913   2.840   6.068   4.491 -0.1074 -0.0539 -1.2931
13500TIP3   OH261914   1.912   5.721  16.033  0.2978 -0.0526 -0.4996
13500TIP3    H161915   1.838   5.661  16.029 -0.6348  0.8626  1.5732
13500TIP3    H261916   1.941   5.730  15.942 -0.5459 -2.3374 -1.0494
13501TIP3   OH261917   6.541   5.112  10.960 -0.0912  0.0379 -0.2295
13501TIP3    H161918   6.557   5.037  10.901 -0.7197  0.6455 -1.1959
13501TIP3    H261919   6.629   5.138  10.988  0.3498  0.4656 -1.8608
13502TIP3   OH261920   3.514   0.595  11.836  0.4029  0.3744  0.3211
13502TIP3    H161921   3.459   0.674  11.833  1.5702  1.2975  1.7669
13502TIP3    H261922   3.471   0.538  11.899 -0.1308  0.0937 -0.2900
13503TIP3   OH261923   4.627   0.169  11.139  0.0589  0.5280  0.1353
13503TIP3    H161924   4.687   0.243  11.151 -1.1065  1.3777  0.8741
13503TIP3    H261925   4.684   0.092  11.146  1.6108  1.3236 -2.4424
13504TIP3   OH261926   2.508   2.345  10.897  0.2707 -0.4441 -0.3198
13504TIP3    H161927   2.558   2.285  10.843 -2.2414 -1.0913 -2.1049
13504TIP3    H261928   2.514   2.429  10.852  0.8531 -0.1876  0.2229
13505TIP3   OH261929   2.348   3.628   4.255 -0.2545 -0.0814 -0.5822
13505TIP3    H161930   2.351   3.586   4.170  2.4518 -2.4777  0.5143
13505TIP3    H261931   2.380   3.561   4.316 -1.7816  1.5986  2.2949
13506TIP3   OH261932   0.067   1.238   4.187  0.6600 -0.1802  0.0581
13506TIP3    H161933   0.079   1.332   4.200 -0.5146  0.0823 -0.6618
13506TIP3    H261934   0.063   1.201   4.275 -1.1712  0.7597  0.4027
13507TIP3   OH261935   5.685   3.007   6.072  0.2801  0.3227  0.8457
13507TIP3    H161936   5.671   3.101   6.062  0.3856  0.3118  0.5913
13507TIP3    H261937   5.772   2.992   6.037 -0.7533 -0.2839 -1.6321
13508TIP3   OH261938   2.187   4.659  14.152  0.4657 -0.4880  0.1429
13508TIP3    H161939   2.178   4.750  14.125  2.4056 -0.4060 -0.3637
13508TIP3    H261940   2.139   4.609  14.086  1.0675  0.0497 -0.7231
13509TIP3   OH261941   2.187   2.932  11.051 -0.1712 -0.2153  0.8360
13509TIP3    H161942   2.268   2.948  11.099  0.4645  0.7544 -0.5196
13509TIP3    H261943   2.212   2.877  10.978 -0.9569 -0.8733  1.0460
13510TIP3   OH261944   3.968   5.399   0.118 -0.2458  0.1012  0.0652
13510TIP3    H161945   3.942   5.308   0.126  0.4168 -0.0979 -0.0244
13510TIP3    H261946   3.972   5.431   0.208  1.4803 -0.5261  0.2528
13511TIP3   OH261947   4.735   2.431   0.525 -0.6941 -0.0634  0.0645
13511TIP3    H161948   4.797   2.367   0.490  2.3461  1.7612  1.5968
13511TIP3    H261949   4.656   2.381   0.544  0.7284 -2.8692 -0.8375
13512TIP3   OH261950   1.720   5.271   0.473 -0.7083  0.0172 -0.5417
13512TIP3    H161951   1.695   5.184   0.442 -0.3345 -0.1726 -0.3133
13512TIP3    H261952   1.784   5.255   0.542 -0.6979  0.4716 -0.4414
13513TIP3   OH261953   6.601   0.396  11.258 -0.2806  0.4925  0.0272
13513TIP3    H161954   6.577   0.384  11.350 -1.8822  0.1376 -0.4099
13513TIP3    H261955   6.637   0.485  11.254  0.7866  0.1423  1.1662
13514TIP3   OH261956   1.756   2.637  15.164 -0.2268  0.0910 -0.6401
13514TIP3    H161957   1.819   2.709  15.167 -0.4571  0.2782 -0.1624
13514TIP3    H261958   1.783   2.584  15.089  1.4212 -0.6601  0.4042
13515TIP3   OH261959   2.801   1.559   1.252  0.0687 -0.0071  0.5615
13515TIP3    H161960   2.868   1.611   1.208  0.7707 -1.0678  0.3222
13515TIP3    H261961   2.783   1.487   1.192 -1.3834  0.3126  0.5794
13516TIP3   OH261962   3.505   2.214   6.002 -0.4685 -0.0233 -0.2046
13516TIP3    H161963   3.415   2.219   5.970 -0.2897  0.9369 -0.5634
13516TIP3    H261964   3.524   2.120   6.004 -1.5241 -0.2405  0.0182
13517TIP3   OH261965   0.006   3.701   2.395 -0.7184  0.5764 -0.0096
13517TIP3    H161966   0.004   3.639   2.322  0.9108  0.4408  0.0211
13517TIP3    H261967   0.096   3.734   2.396 -0.6636  0.5037  1.9870
13518TIP3   OH261968   1.065   4.498   1.849 -0.5065  0.1354  0.2617
13518TIP3    H161969   0.988   4.443   1.833  0.7689 -1.8484  0.4550
13518TIP3    H261970   1.126   4.439   1.893  0.6827  1.9873  1.1655
13519TIP3   OH261971   2.597   0.710   4.713 -0.0123 -0.2259  0.0569
13519TIP3    H161972   2.681   0.695   4.756 -0.1992 -1.0016  0.1709
13519TIP3    H261973   2.617   0.709   4.620  0.7206  3.3238  0.0165
13520TIP3   OH261974   2.305   2.717  12.268 -0.4407 -0.4011 -0.2686
13520TIP3    H161975   2.305   2.811  12.283 -1.5221 -0.6031  1.2607
13520TIP3    H261976   2.397   2.691  12.279 -0.1919  0.4126 -0.3692
13521TIP3   OH261977   2.256   6.526  12.591  0.2241  0.4337 -0.2174
13521TIP3    H161978   2.241   6.588  12.519  1.4562  0.1410 -0.7501
13521TIP3    H261979   2.211   6.565  12.666  0.8747  1.9209 -0.5604
13522TIP3   OH261980   5.044   4.325  16.853 -0.3649  0.3968  0.0499
13522TIP3    H161981   5.097   4.269  16.909 -0.6299  0.6800  0.5905
13522TIP3    H261982   5.020   4.269  16.779  1.6629  0.5925 -0.8278
13523TIP3   OH261983   4.552   3.994  11.923 -0.6680  0.1099  0.2239
13523TIP3    H161984   4.533   4.039  12.005 -0.5941  0.0030  0.2988
13523TIP3    H261985   4.618   4.050  11.880  0.4152 -0.5971  0.9115
13524TIP3   OH261986   6.134   2.231   4.123  0.0745 -0.7506 -0.7692
13524TIP3    H161987   6.104   2.319   4.147  0.1195 -1.1036  0.7023
13524TIP3    H261988   6.080   2.173   4.176  0.0266 -1.6248 -1.7483
13525TIP3   OH261989   6.642   0.865  11.784  0.0215  0.3097 -0.7455
13525TIP3    H161990   6.711   0.870  11.851  0.1565  0.1305 -0.8692
13525TIP3    H261991   6.685   0.891  11.703  0.2029 -0.7533 -1.0043
13526TIP3   OH261992   1.045   0.677   1.778  0.2808  1.0606  0.5970
13526TIP3    H161993   0.983   0.604   1.769  2.8004 -0.9373 -2.1059
13526TIP3    H261994   1.071   0.674   1.870 -1.7420  0.4294  1.2156
13527TIP3   OH261995   6.045   3.924  14.175 -0.1184 -0.0834  0.5367
13527TIP3    H161996   6.109   3.948  14.109  0.8069 -1.3236  0.9463
13527TIP3    H261997   6.086   3.949  14.258 -0.6559  0.1435  0.7409
13528TIP3   OH261998   2.505   1.716  10.818  0.4421  0.2787 -0.0515
13528TIP3    H161999   2.556   1.777  10.765 -1.4174  1.7903 -0.2235
13528TIP3    H262000   2.541   1.726  10.907  1.2975  0.3146 -0.3958
13529TIP3   OH262001   5.492   5.359   0.156  0.3673 -0.2725 -0.2549
13529TIP3    H162002   5.423   5.324   0.211  0.8117  1.0990  1.2427
13529TIP3    H262003   5.561   5.293   0.158 -1.0977 -2.0273 -2.3948
13530TIP3   OH262004   5.788   6.435   5.078 -0.3377  0.1991  0.1301
13530TIP3    H162005   5.785   6.368   5.009  2.1838 -0.8193  0.8912
13530TIP3    H262006   5.859   6.493   5.051 -1.7386  1.9731  0.0762
13531TIP3   OH262007   2.236   0.411  14.936 -0.2851  0.2349  0.0703
13531TIP3    H162008   2.222   0.501  14.966 -2.0125 -0.5096  1.6951
13531TIP3    H262009   2.248   0.419  14.841  0.1365  2.2052  0.2502
13532TIP3   OH262010   4.391   1.057  14.471 -0.0636 -0.1856 -0.9498
13532TIP3    H162011   4.453   1.003  14.518 -2.7382 -1.4265  1.4973
13532TIP3    H262012   4.393   1.142  14.517 -1.5390 -0.8958  0.5494
13533TIP3   OH262013   2.634   3.454  15.532  0.3220 -0.0888 -0.0286
13533TIP3    H162014   2.601   3.538  15.562  0.1278  0.0344 -0.5723
13533TIP3    H262015   2.712   3.438  15.584  1.1746  1.1065 -0.9043
13534TIP3   OH262016   0.088   0.400  11.515  0.6266  0.0105 -0.1794
13534TIP3    H162017   0.044   0.483  11.495 -0.8555 -0.8934 -0.8364
13534TIP3    H262018   0.178   0.412  11.484  0.9305  1.9305  1.2382
13535TIP3   OH262019   1.883   0.827  13.636  0.7476  0.0542  0.1910
13535TIP3    H162020   1.872   0.801  13.727  0.1711 -2.2604 -0.4689
13535TIP3    H262021   1.975   0.809  13.616  0.3018 -1.8284 -0.3205
13536TIP3   OH262022   3.280   3.702  16.243 -0.0728 -0.6630  0.4800
13536TIP3    H162023   3.274   3.699  16.339 -1.3372 -3.1210  0.4096
13536TIP3    H262024   3.374   3.702  16.225  0.2295 -2.1318  1.7687
13537TIP3   OH262025   3.588   1.041  17.013  0.4888 -0.7778  0.6117
13537TIP3    H162026   3.622   1.084  17.091  2.0856 -2.4842  0.8894
13537TIP3    H262027   3.631   0.956  17.010  0.1139 -0.9671 -1.8658
13538TIP3   OH262028   5.640   2.517   2.487 -0.1758 -0.2704 -0.5962
13538TIP3    H162029   5.583   2.440   2.493 -0.7696  0.2839  1.8846
13538TIP3    H262030   5.612   2.574   2.559  4.3553 -0.5415  1.7064
13539TIP3   OH262031   2.761   4.357   1.775  0.2706  0.1245  0.3267
13539TIP3    H162032   2.801   4.272   1.794  2.7549  0.8057 -1.3546
13539TIP3    H262033   2.758   4.361   1.679  0.5987  2.0658  0.3626
13540TIP3   OH262034   1.493   4.973  14.743 -0.2172 -0.2179 -0.3346
13540TIP3    H162035   1.537   5.016  14.816 -0.8022  0.9062 -0.6152
13540TIP3    H262036   1.411   4.940  14.780 -0.2500 -0.1589 -0.3551
13541TIP3   OH262037   1.464   5.716  14.422 -0.2816 -0.4751  0.1229
13541TIP3    H162038   1.420   5.741  14.341 -1.9730  1.3649  1.5200
13541TIP3    H262039   1.425   5.632  14.446 -0.5152 -0.5239 -0.4208
13542TIP3   OH262040   6.050   4.679   2.133  0.8049 -0.2141 -0.4257
13542TIP3    H162041   5.998   4.606   2.101  1.1865 -0.1838 -1.1492
13542TIP3    H262042   6.127   4.639   2.172  0.0984 -0.2739  0.9512
13543TIP3   OH262043   3.918   0.072   0.736 -0.3606 -0.5916 -0.7009
13543TIP3    H162044   3.833   0.114   0.730  1.5662  3.6212 -1.9945
13543TIP3    H262045   3.945   0.086   0.827 -0.0897  0.2970 -0.9076
13544TIP3   OH262046   1.573   0.592   5.357  0.8852 -0.2908  0.3288
13544TIP3    H162047   1.563   0.546   5.274 -0.8596  1.5329 -0.5721
13544TIP3    H262048   1.593   0.682   5.332 -1.2517  0.6735  1.7601
13545TIP3   OH262049   2.999   6.509  10.422 -0.5563  0.3353 -0.2091
13545TIP3    H162050   2.985   6.422  10.384 -1.4748  1.1179 -1.7307
13545TIP3    H262051   3.091   6.510  10.446 -0.5094 -1.0248 -0.2449
13546TIP3   OH262052   5.112   6.635  16.742 -0.1894  0.3200 -0.5670
13546TIP3    H162053   5.162   6.586  16.807  0.7156  0.3144 -1.2466
13546TIP3    H262054   5.167   6.710  16.720 -1.1406  1.1422 -0.2429
13547TIP3   OH262055   4.093   6.529  16.922 -0.8987 -0.3305 -0.4750
13547TIP3    H162056   4.188   6.516  16.915 -0.7147  1.2626 -1.6182
13547TIP3    H262057   4.059   6.445  16.953  0.9132 -0.8368  0.2755
13548TIP3   OH262058   2.128   0.908   5.563  0.3625  0.2436 -0.0361
13548TIP3    H162059   2.068   0.980   5.541  1.0449  1.0882  0.7566
13548TIP3    H262060   2.073   0.830   5.564 -0.1688  0.5072 -2.2000
13549TIP3   OH262061   3.026   5.921  10.357  0.4371  0.2684 -0.4105
13549TIP3    H162062   3.047   5.837  10.397 -0.7847  0.0719 -0.1245
13549TIP3    H262063   2.932   5.931  10.371  0.5659  1.7114 -0.3984
13550TIP3   OH262064   3.476   4.725   1.274  0.0339 -0.0225 -0.4396
13550TIP3    H162065   3.498   4.632   1.275  1.0500  0.1778 -1.6432
13550TIP3    H262066   3.409   4.734   1.206  0.1706  0.1760 -0.5497
13551TIP3   OH262067   6.179   6.648  14.719  0.0530  0.0328  0.2863
13551TIP3    H162068   6.261   6.669  14.674 -1.0883 -1.4371 -2.7047
13551TIP3    H262069   6.114   6.705  14.679 -0.7262  0.0087  1.4587
13552TIP3   OH262070   3.763   4.448   2.594  0.2142 -0.1143  0.3878
13552TIP3    H162071   3.722   4.480   2.513 -0.9217 -2.1140  0.0993
13552TIP3    H262072   3.768   4.526   2.650 -1.3221  0.8267 -0.6774
13553TIP3   OH262073   4.126   5.640   3.138  0.1021  0.0509 -0.2407
13553TIP3    H162074   4.110   5.615   3.047 -0.1053 -0.9305  0.0508
13553TIP3    H262075   4.178   5.569   3.174  2.3583  1.6106 -0.2403
13554TIP3   OH262076   4.645   1.781   0.112  0.4080 -0.2871 -0.2709
13554TIP3    H162077   4.589   1.743   0.179  0.5124 -2.2574 -1.2107
13554TIP3    H262078   4.593   1.777   0.032 -0.3837  3.6402 -0.1307
13555TIP3   OH262079   5.237   0.524   5.037 -0.2756 -0.0583  0.6784
13555TIP3    H162080   5.246   0.578   5.116 -0.0178 -0.8573  1.2131
13555TIP3    H262081   5.167   0.462   5.057  0.1043 -0.5709  0.4666
13556TIP3   OH262082   3.403   5.479  15.752  0.4525  0.5845 -0.0032
13556TIP3    H162083   3.402   5.472  15.847 -1.6859  1.5177  0.0958
13556TIP3    H262084   3.394   5.572  15.734 -2.5571  0.2233 -1.0298
13557TIP3   OH262085   4.541   2.095  14.767  0.2233 -0.1168 -0.7131
13557TIP3    H162086   4.453   2.130  14.754 -0.5402 -1.9756 -0.7600
13557TIP3    H262087   4.582   2.101  14.680  0.1245  0.6336 -0.7172
13558TIP3   OH262088   5.620   5.170   2.379  0.0561  0.5299  0.1105
13558TIP3    H162089   5.585   5.258   2.368 -1.2276 -0.1631 -1.9111
13558TIP3    H262090   5.709   5.174   2.342 -0.3240  0.7949 -0.7948
13559TIP3   OH262091   2.561   4.159   6.567 -0.0680 -0.3415 -0.2576
13559TIP3    H162092   2.606   4.235   6.602 -0.0248 -0.9401  1.0471
13559TIP3    H262093   2.510   4.193   6.493 -0.8414  1.1626  0.9040
13560TIP3   OH262094   4.461   2.794  13.320 -0.0210  0.1603 -1.3525
13560TIP3    H162095   4.483   2.861  13.385 -0.4110 -0.1707 -0.8676
13560TIP3    H262096   4.444   2.716  13.373  0.0708 -0.2241 -1.8872
13561TIP3   OH262097   5.958   5.937   5.600  0.2321 -0.3407 -0.2754
13561TIP3    H162098   5.939   5.853   5.643  0.7439 -0.3735 -0.1137
13561TIP3    H262099   5.885   5.949   5.540 -1.9020  0.8788  2.3246
13562TIP3   OH262100   3.383   5.891  13.621 -0.0174  0.3888  0.4572
13562TIP3    H162101   3.416   5.969  13.665  0.7151 -0.3115  1.1864
13562TIP3    H262102   3.369   5.918  13.531  1.4163  1.0531  0.4072
13563TIP3   OH262103   1.529   4.292  13.855  0.3067 -0.3759 -0.4302
13563TIP3    H162104   1.606   4.283  13.798  0.7578 -1.8276  0.3610
13563TIP3    H262105   1.529   4.385  13.880  1.6681 -0.2952 -0.6228
13564TIP3   OH262106   3.001   2.019   2.742 -0.1731  0.2341  0.2880
13564TIP3    H162107   2.995   2.015   2.647 -1.2211  0.6355  0.3235
13564TIP3    H262108   3.080   2.070   2.759  0.1159  0.0098 -0.3572
13565TIP3   OH262109   5.552   3.702   2.176 -0.0493  0.3730  0.8566
13565TIP3    H162110   5.601   3.760   2.117  0.9600 -1.2274  0.0438
13565TIP3    H262111   5.463   3.735   2.174  0.0363  0.5737 -1.3141
13566TIP3   OH262112   4.928   6.336   2.050 -0.0813 -0.1546 -0.2388
13566TIP3    H162113   4.994   6.395   2.012 -0.0400 -0.7164 -1.0600
13566TIP3    H262114   4.964   6.310   2.134  0.9234 -0.7438 -0.8409
13567TIP3   OH262115   0.387   0.270  14.719 -0.0470 -0.5320  0.1102
13567TIP3    H162116   0.351   0.308  14.639 -1.1421  0.7172  1.1558
13567TIP3    H262117   0.457   0.212  14.689 -0.9588 -0.7109 -1.7946
13568TIP3   OH262118   4.447   4.985  16.504  0.5571  0.0469  0.6248
13568TIP3    H162119   4.354   4.966  16.514  0.0153  0.6060 -2.4081
13568TIP3    H262120   4.492   4.904  16.528 -0.5970 -0.0742  2.6262
13569TIP3   OH262121   4.221   5.874  16.272  0.0663 -0.0193 -0.0073
13569TIP3    H162122   4.177   5.934  16.212 -1.5463 -1.3490 -0.2171
13569TIP3    H262123   4.282   5.825  16.217  0.6468  0.6893 -0.0154
13570TIP3   OH262124   4.129   5.383  16.778  0.3695  0.0201  0.4597
13570TIP3    H162125   4.181   5.452  16.737 -0.4489  1.0445  1.0626
13570TIP3    H262126   4.068   5.431  16.835  0.2079 -1.2513  1.3901
13571TIP3   OH262127   2.359   5.135  15.938 -0.6757 -0.3006  0.0149
13571TIP3    H162128   2.391   5.176  15.858 -0.9714 -1.3977 -0.6870
13571TIP3    H262129   2.277   5.093  15.912 -0.9870 -0.3168  0.9967
13572TIP3   OH262130   3.972   2.717   4.048  0.5809 -0.3937 -0.0302
13572TIP3    H162131   3.908   2.694   3.981  0.8083  3.1213 -1.6828
13572TIP3    H262132   4.057   2.697   4.009  0.6508 -0.4137  0.1309
13573TIP3   OH262133   4.859   1.303   1.121 -0.5757  0.1893 -0.1349
13573TIP3    H162134   4.892   1.392   1.110 -1.8608  0.4669 -2.4564
13573TIP3    H262135   4.887   1.277   1.208 -0.9353  3.1993  0.9913
13574TIP3   OH262136   0.306   4.408  16.776  0.4354  0.2271  0.2088
13574TIP3    H162137   0.291   4.454  16.859 -0.8806  0.0800  0.0750
13574TIP3    H262138   0.377   4.456  16.734  0.0446  1.2858  0.7190
13575TIP3   OH262139   4.375   1.544  13.388 -0.3106  0.4509 -0.3588
13575TIP3    H162140   4.320   1.491  13.446 -1.2659  0.7419 -0.9823
13575TIP3    H262141   4.460   1.546  13.432 -0.7154 -0.2246  0.4950
13576TIP3   OH262142   5.866   3.288  14.836 -0.5390  0.1347 -0.0331
13576TIP3    H162143   5.881   3.258  14.746 -3.5098  0.6737 -0.7815
13576TIP3    H262144   5.845   3.380  14.828  2.2965  1.0720  1.6438
13577TIP3   OH262145   5.136   0.859   2.295 -0.4244 -0.4178 -0.4374
13577TIP3    H162146   5.045   0.829   2.297 -0.6844  0.3586 -0.1914
13577TIP3    H262147   5.133   0.946   2.334  0.4258 -0.3744 -0.4535
13578TIP3   OH262148   0.485   6.280   4.160  0.3547 -0.2406  0.9068
13578TIP3    H162149   0.409   6.336   4.177 -0.1270 -1.0890  1.6776
13578TIP3    H262150   0.470   6.202   4.215  0.7648 -1.3332 -0.4627
13579TIP3   OH262151   1.113   1.695  12.212  0.1914 -0.0438  0.0268
13579TIP3    H162152   1.053   1.651  12.152  0.4370  0.0128 -0.2607
13579TIP3    H262153   1.082   1.786  12.215  1.6700  0.5938 -1.9926
13580TIP3   OH262154   4.466   2.502  13.817 -0.2829  0.1498  0.2201
13580TIP3    H162155   4.498   2.577  13.866  1.6472 -0.2300 -0.3765
13580TIP3    H262156   4.430   2.443  13.884 -0.5155  0.9732  0.8348
13581TIP3   OH262157   1.972   1.383   3.715 -0.0195  0.0575  0.2014
13581TIP3    H162158   2.027   1.305   3.716  0.0093  0.0784  1.1968
13581TIP3    H262159   1.973   1.413   3.623  1.0578 -0.3312  0.0794
13582TIP3   OH262160   6.746   1.307  12.330 -0.3993  0.2469  0.1788
13582TIP3    H162161   6.663   1.296  12.376 -1.2911 -0.5310 -1.5258
13582TIP3    H262162   6.786   1.383  12.372 -0.9241 -0.6682  2.5000
13583TIP3   OH262163   0.001   4.674   4.288  0.3888  0.5532  0.1427
13583TIP3    H162164   0.037   4.713   4.208  0.0101 -0.8026 -0.7019
13583TIP3    H262165  -0.037   4.748   4.335  1.9815  1.6273 -0.1605
13584TIP3   OH262166   6.611   0.707   4.579 -0.0657  0.4988  0.6319
13584TIP3    H162167   6.645   0.705   4.490  2.3561 -0.6639  1.4879
13584TIP3    H262168   6.625   0.797   4.608 -0.0622  0.6696  0.0937
13585TIP3   OH262169   6.444   4.551  10.792  0.3421  0.0796  0.3573
13585TIP3    H162170   6.469   4.506  10.711  0.9204  0.9522  0.0416
13585TIP3    H262171   6.527   4.579  10.830  0.0595 -0.1652  1.1641
13586TIP3   OH262172   4.789   5.888  16.539 -0.4305  0.3561  0.2108
13586TIP3    H162173   4.859   5.835  16.577 -0.0130  0.8752  0.1811
13586TIP3    H262174   4.815   5.978  16.559 -1.5323  0.5291  0.9731
13587TIP3   OH262175   3.865   2.743   4.472  0.5373  0.0877  0.3055
13587TIP3    H162176   3.942   2.721   4.419 -0.6062  0.8812 -1.8137
13587TIP3    H262177   3.801   2.675   4.452  0.0099  0.5126  0.5063
13588TIP3   OH262178   3.341   5.853  13.105  0.0965  0.0853 -0.5206
13588TIP3    H162179   3.316   5.884  13.192 -0.2430 -1.0275 -0.2080
13588TIP3    H262180   3.261   5.812  13.070 -0.0874  1.4240 -1.7919
13589TIP3   OH262181   3.981   3.009   4.673 -0.3443 -0.0307  0.2206
13589TIP3    H162182   4.062   2.971   4.708 -1.0548  0.1814  2.2308
13589TIP3    H262183   4.010   3.088   4.627  0.4964  1.4244  2.9618
13590TIP3   OH262184   4.086   4.871   3.787  0.1863  0.0112 -0.2206
13590TIP3    H162185   4.014   4.829   3.740 -0.2182  0.7737 -0.2895
13590TIP3    H262186   4.049   4.893   3.872  0.3440  0.3830 -0.2479
13591TIP3   OH262187   1.083   3.217   4.512 -0.1108  0.3949 -0.3453
13591TIP3    H162188   1.171   3.231   4.476  0.3558  1.5793  1.1816
13591TIP3    H262189   1.087   3.130   4.551  1.2406  1.3894  1.9337
13592TIP3   OH262190   0.832   3.931   1.843  0.0584 -0.2043  0.5494
13592TIP3    H162191   0.853   3.982   1.765  0.9367 -1.6718 -0.2105
13592TIP3    H262192   0.897   3.958   1.908  2.1419 -2.0422 -0.6311
13593TIP3   OH262193   3.156   0.769   3.021  0.8282  0.5119  0.4213
13593TIP3    H162194   3.220   0.831   3.056  0.3056  0.7011  1.0477
13593TIP3    H262195   3.201   0.684   3.024  1.4112  0.7938 -0.0984
13594TIP3   OH262196   6.517   2.432   0.655  0.4622 -0.1629  0.1103
13594TIP3    H162197   6.444   2.383   0.615  0.1064  0.0869  0.4470
13594TIP3    H262198   6.542   2.496   0.589  0.4420 -0.3156 -0.0467
13595TIP3   OH262199   1.174   4.365  13.343  0.0788 -0.0708  0.6171
13595TIP3    H162200   1.118   4.293  13.370 -1.0981  1.1720  1.6341
13595TIP3    H262201   1.226   4.386  13.420 -1.0922  1.4975  1.0326
13596TIP3   OH262202   4.030   1.431  12.282  1.1628  0.3148 -0.2929
13596TIP3    H162203   3.937   1.407  12.279  1.0350  0.8597 -1.3857
13596TIP3    H262204   4.056   1.417  12.373 -0.0050  0.1912  0.0359
13597TIP3   OH262205   4.978   0.281  15.206  0.0856  0.1700 -0.4492
13597TIP3    H162206   4.918   0.259  15.135  0.7756 -0.7284 -0.7877
13597TIP3    H262207   5.064   0.253  15.173  0.3271 -0.8610  0.9873
13598TIP3   OH262208   3.661   6.421  16.586  0.3141  0.0546 -0.4557
13598TIP3    H162209   3.668   6.349  16.649 -0.9660  0.2518 -0.0638
13598TIP3    H262210   3.656   6.500  16.640  2.0442  0.5028 -0.8884
13599TIP3   OH262211   4.514   1.010  11.432  0.4240 -0.0371  0.1743
13599TIP3    H162212   4.488   1.096  11.401  0.8797  0.6459  1.6150
13599TIP3    H262213   4.524   1.020  11.526  2.6188 -1.1176  0.1094
13600TIP3   OH262214   4.134   4.976   1.976 -0.3023  0.2153 -0.0936
13600TIP3    H162215   4.039   4.964   1.976 -0.1747 -0.9182 -0.6469
13600TIP3    H262216   4.146   5.068   1.951 -1.2832  0.8822  1.7520
13601TIP3   OH262217   5.244   5.280   4.299  0.3760 -0.4026  0.0783
13601TIP3    H162218   5.166   5.291   4.244  0.4494 -2.5585 -0.5607
13601TIP3    H262219   5.209   5.273   4.388  0.0493  0.8169  0.0601
13602TIP3   OH262220   6.543   0.166  13.652  0.0072 -0.2786  0.5368
13602TIP3    H162221   6.516   0.258  13.641  2.3388  0.5110  0.9580
13602TIP3    H262222   6.528   0.127  13.565 -1.8624  0.2110  0.5914
13603TIP3   OH262223   5.942   4.044  16.002 -0.4925 -0.9181  0.0977
13603TIP3    H162224   5.887   4.110  15.960  1.1735 -0.2326 -1.1126
13603TIP3    H262225   6.004   4.018  15.934  0.7196 -1.5991  1.4225
13604TIP3   OH262226   5.262   4.129  16.490  0.1936  0.1190  0.0359
13604TIP3    H162227   5.288   4.142  16.399  1.6086  2.8194  0.7132
13604TIP3    H262228   5.328   4.069  16.525 -0.2254 -0.7497 -0.6252
13605TIP3   OH262229   2.078   1.249  12.614 -0.1561 -0.3840  0.5915
13605TIP3    H162230   2.140   1.223  12.545  1.1302 -1.0900  1.9710
13605TIP3    H262231   2.039   1.330  12.580 -0.2466 -1.1802 -1.3687
13606TIP3   OH262232   6.533   2.335   5.394 -0.3264 -0.0597 -0.5041
13606TIP3    H162233   6.440   2.314   5.396 -0.5863  0.9693 -0.9212
13606TIP3    H262234   6.540   2.406   5.331  0.7248  0.0019 -0.3444
13607TIP3   OH262235   0.362   4.356   2.681  0.6737  0.1603 -0.2103
13607TIP3    H162236   0.320   4.440   2.700  0.6324 -0.1371  1.1353
13607TIP3    H262237   0.441   4.356   2.735 -0.8435 -1.8587  2.2298
13608TIP3   OH262238   2.021   5.632  14.801  0.4868 -0.4897 -0.5565
13608TIP3    H162239   2.076   5.565  14.842  1.0470 -0.6453 -1.5219
13608TIP3    H262240   2.055   5.639  14.712  0.4683  1.1292 -0.4571
13609TIP3   OH262241   3.353   4.990   1.190  0.0584  0.6236  0.4581
13609TIP3    H162242   3.426   4.966   1.247 -1.7179 -1.1324  2.1754
13609TIP3    H262243   3.300   5.049   1.244 -1.0120 -0.0575  0.1782
13610TIP3   OH262244   4.991   2.299   5.452 -0.1564  0.2392 -0.2690
13610TIP3    H162245   5.021   2.338   5.534 -1.1854  0.0828  0.2064
13610TIP3    H262246   4.896   2.305   5.457 -0.2120  0.8538 -1.7732
13611TIP3   OH262247   3.577   1.760   5.196  0.1751  0.0532 -0.7941
13611TIP3    H162248   3.498   1.734   5.147 -0.0907  1.1839 -0.9846
13611TIP3    H262249   3.548   1.765   5.287  1.1256 -4.0152 -0.0864
13612TIP3   OH262250   5.739   1.003   4.895  0.3624  0.4645 -0.0376
13612TIP3    H162251   5.750   0.908   4.907 -2.3441  0.1295  0.3631
13612TIP3    H262252   5.747   1.016   4.801 -1.0114 -0.5009 -0.3325
13613TIP3   OH262253   3.681   0.732   3.299  0.1875  0.1224  0.0090
13613TIP3    H162254   3.726   0.678   3.365 -1.6400 -1.2918  0.1729
13613TIP3    H262255   3.609   0.773   3.347  0.4736  1.3002 -0.5320
13614TIP3   OH262256   4.776   3.054   1.298 -0.4493 -0.3646 -0.4830
13614TIP3    H162257   4.776   3.054   1.394  1.6254  0.2925 -0.4366
13614TIP3    H262258   4.758   2.963   1.274 -2.3930 -0.2869  0.4572
13615TIP3   OH262259   2.294   0.491  16.597 -0.2118 -0.4219 -0.4554
13615TIP3    H162260   2.264   0.549  16.526  0.1389  0.2146 -0.0975
13615TIP3    H262261   2.214   0.456  16.635 -0.4924  0.7555  0.0811
13616TIP3   OH262262   5.528   4.414   5.628  0.3555  0.8407 -0.3060
13616TIP3    H162263   5.594   4.356   5.664 -1.2695 -0.2832  1.0029
13616TIP3    H262264   5.542   4.497   5.674  0.2219  0.3160  0.6930
13617TIP3   OH262265   3.144   6.618  14.705 -0.0443 -0.2725  0.2242
13617TIP3    H162266   3.210   6.648  14.643  0.4224 -1.1429  0.2921
13617TIP3    H262267   3.191   6.561  14.765 -0.2857  1.2703  1.9701
13618TIP3   OH262268   2.464   1.424  15.928  0.0715 -0.1219  0.4188
13618TIP3    H162269   2.392   1.463  15.879 -0.3855  1.5752  2.3051
13618TIP3    H262270   2.453   1.330  15.916 -0.3779  0.1905 -2.1246
13619TIP3   OH262271   2.743   0.368  14.106 -0.4607  0.1137  0.0829
13619TIP3    H162272   2.718   0.460  14.096  1.1741  0.8727  2.1288
13619TIP3    H262273   2.670   0.328  14.153 -1.7631 -0.0123 -1.9452
13620TIP3   OH262274   1.713   3.956   3.811 -0.8073  0.0999 -0.0900
13620TIP3    H162275   1.706   3.911   3.895 -0.8201 -0.1714 -0.2352
13620TIP3    H262276   1.783   3.909   3.765 -1.9813 -0.8723 -0.9200
13621TIP3   OH262277   1.684   6.299   4.581 -0.5194 -0.3178  0.4304
13621TIP3    H162278   1.615   6.236   4.605 -0.0428 -1.3153 -0.7200
13621TIP3    H262279   1.721   6.325   4.665 -0.7961 -1.5183  0.9566
13622TIP3   OH262280   4.464   6.238   4.893 -0.2915  0.0926 -0.0864
13622TIP3    H162281   4.452   6.216   4.985 -0.7463 -0.2345 -0.2221
13622TIP3    H262282   4.548   6.197   4.870  0.3258  1.0384  0.4447
13623TIP3   OH262283   2.798   6.573  16.120 -0.6537 -0.0200  0.2670
13623TIP3    H162284   2.806   6.591  16.027  0.1437 -2.8784 -0.2924
13623TIP3    H262285   2.725   6.511  16.127 -0.1712 -0.4796  1.4526
13624TIP3   OH262286   5.830   0.315   1.655 -0.6838  0.1619  0.3106
13624TIP3    H162287   5.755   0.304   1.713  0.0941  1.1989  1.5574
13624TIP3    H262288   5.894   0.252   1.686 -0.7582 -0.2431 -0.3231
13625TIP3   OH262289   2.058   6.174   5.103 -0.2520  0.4652 -0.5104
13625TIP3    H162290   2.046   6.244   5.039  0.2374  1.1798  0.1567
13625TIP3    H262291   1.989   6.188   5.167  0.7947  1.3188  0.4685
13626TIP3   OH262292   6.559   2.152   2.073 -0.8129  0.0618  0.0381
13626TIP3    H162293   6.577   2.129   2.164  3.8934 -0.7866 -0.8687
13626TIP3    H262294   6.578   2.245   2.068 -1.7272  0.2541  0.0179
13627TIP3   OH262295   1.308   2.860  14.674  0.2025 -0.3658  0.2830
13627TIP3    H162296   1.306   2.830  14.765 -0.2715  1.8886  1.1021
13627TIP3    H262297   1.402   2.870  14.655  0.4113 -2.8271 -0.2576
13628TIP3   OH262298   3.666   6.279   0.630  0.0498  0.0232 -0.2477
13628TIP3    H162299   3.760   6.286   0.612  0.7018  1.5486  3.1007
13628TIP3    H262300   3.660   6.215   0.701 -1.1722  1.4259  0.9658
13629TIP3   OH262301   5.791   6.283   5.312 -0.3666  0.0028 -0.5226
13629TIP3    H162302   5.825   6.332   5.238 -0.6268  1.1032  0.0598
13629TIP3    H262303   5.841   6.315   5.387 -1.2617  0.1490  0.0306
13630TIP3   OH262304   6.391   5.480  10.133 -0.6665  0.4034 -0.1039
13630TIP3    H162305   6.473   5.452  10.174 -0.1253  1.5685 -0.3616
13630TIP3    H262306   6.379   5.570  10.162 -2.3273 -0.0166  0.6359
13631TIP3   OH262307   1.853   1.824  10.940 -0.2022  0.8166 -0.1193
13631TIP3    H162308   1.831   1.911  10.908 -1.8375 -0.1284 -1.7699
13631TIP3    H262309   1.888   1.778  10.864  0.0789 -0.1632  0.5755
13632TIP3   OH262310   4.736   3.787   0.507  0.4696 -0.6773  0.0520
13632TIP3    H162311   4.663   3.761   0.562  0.2142 -1.4440 -0.6178
13632TIP3    H262312   4.813   3.775   0.562  0.0117  1.9252  1.4042
13633TIP3   OH262313   5.613   4.902   4.993  0.0438 -0.6068 -0.6244
13633TIP3    H162314   5.566   4.917   4.911 -0.4140 -3.0414 -0.8610
13633TIP3    H262315   5.555   4.847   5.045  1.3892 -1.1914  0.3133
13634TIP3   OH262316   4.946   1.747  11.000  0.2601 -0.7545  0.0207
13634TIP3    H162317   5.014   1.767  11.064  0.6059 -0.9091 -0.2985
13634TIP3    H262318   4.993   1.730  10.919 -0.1855 -0.3847 -0.3206
13635TIP3   OH262319   6.590   0.440  14.741  0.0094  0.0206  0.4687
13635TIP3    H162320   6.514   0.468  14.691 -0.7958 -0.8074  1.1900
13635TIP3    H262321   6.665   0.480  14.696 -0.7737  0.2072 -0.7093
13636TIP3   OH262322   2.458   3.965  13.449  0.0827  0.5048 -0.0822
13636TIP3    H162323   2.517   3.995  13.518  2.2865  1.0237 -2.0585
13636TIP3    H262324   2.436   3.875  13.475 -0.0668  1.0354  1.8119
13637TIP3   OH262325   6.440   2.256  11.051  0.1498 -0.2934  0.4465
13637TIP3    H162326   6.414   2.324  11.114 -0.7415 -0.3036  0.1010
13637TIP3    H262327   6.386   2.181  11.073  0.8104 -0.7467  0.5312
13638TIP3   OH262328   2.096   4.675   5.382 -0.3900  0.4935 -0.2598
13638TIP3    H162329   2.055   4.742   5.328 -0.3717  2.5027  2.0511
13638TIP3    H262330   2.032   4.659   5.452  0.0124 -1.2587 -0.2543
13639TIP3   OH262331   5.442   0.713   2.918 -0.1205  0.1273 -0.3285
13639TIP3    H162332   5.439   0.695   3.012  0.3433  1.1551 -0.0995
13639TIP3    H262333   5.534   0.698   2.894 -0.4566 -1.2014 -0.8580
13640TIP3   OH262334   1.706   2.050   2.107 -0.4072 -0.2823  0.4415
13640TIP3    H162335   1.699   1.970   2.056 -2.3816 -0.2248  0.5399
13640TIP3    H262336   1.676   2.026   2.195  2.4475 -0.2502  1.5245
13641TIP3   OH262337   3.650   5.370   1.454 -0.3831 -0.1968  0.0807
13641TIP3    H162338   3.667   5.360   1.360 -0.4041  0.1944  0.0329
13641TIP3    H262339   3.725   5.419   1.487  0.5928 -2.0003  0.6380
13642TIP3   OH262340   4.620   1.613   2.496 -0.6935 -0.2120 -0.0350
13642TIP3    H162341   4.540   1.664   2.482 -1.2202 -0.6445  1.2029
13642TIP3    H262342   4.672   1.666   2.556 -1.1290 -0.9690  1.0512
13643TIP3   OH262343   0.799   0.905  11.130 -0.7106 -0.2391  0.7301
13643TIP3    H162344   0.834   0.994  11.139 -0.6164 -0.3372  1.3429
13643TIP3    H262345   0.704   0.917  11.136 -0.9571  0.2200 -2.4246
13644TIP3   OH262346   4.674   5.440  15.138  0.1873  0.0993  0.2686
13644TIP3    H162347   4.736   5.511  15.124 -0.0483  0.8005  2.3624
13644TIP3    H262348   4.690   5.412  15.228 -0.2042 -2.0587 -0.2652
13645TIP3   OH262349   0.562   1.052  12.445  0.0480 -0.0055  0.7590
13645TIP3    H162350   0.533   1.107  12.373  1.4395  1.7865  1.4903
13645TIP3    H262351   0.657   1.047  12.435  0.1475 -0.6680  1.8455
13646TIP3   OH262352   1.242   2.641   1.978 -0.6926 -0.3743 -0.9164
13646TIP3    H162353   1.259   2.560   2.026  0.7711 -0.5284 -1.6410
13646TIP3    H262354   1.190   2.694   2.038 -0.7598 -1.4135 -0.0155
13647TIP3   OH262355   4.558   5.157  14.443 -0.2877 -0.0715 -0.5492
13647TIP3    H162356   4.631   5.139  14.502 -1.1723  0.9869  0.9398
13647TIP3    H262357   4.518   5.071  14.428 -0.0166 -0.3788  0.3894
13648TIP3   OH262358   4.901   2.493   2.417 -0.5110 -0.2017 -0.3221
13648TIP3    H162359   4.925   2.517   2.327 -1.2286 -0.6035 -0.6213
13648TIP3    H262360   4.842   2.563   2.446 -0.1499  0.0161 -0.0955
13649TIP3   OH262361   2.201   6.758   0.519 -0.6626 -0.3046  0.4561
13649TIP3    H162362   2.235   6.833   0.469  1.1420 -1.0640  0.4771
13649TIP3    H262363   2.279   6.711   0.548 -1.7215 -3.1562 -0.9735
13650TIP3   OH262364   2.745   5.765  11.295 -0.3735  0.3788  0.0055
13650TIP3    H162365   2.746   5.712  11.215  1.0866 -0.0241  0.2496
13650TIP3    H262366   2.798   5.842  11.272 -1.1161  0.9401  0.1617
13651TIP3   OH262367   0.691   1.624  12.817  0.0435  0.2653  0.3501
13651TIP3    H162368   0.759   1.596  12.878  1.2304 -0.4858 -1.2458
13651TIP3    H262369   0.630   1.550  12.813  1.1447 -0.6093 -0.9911
13652TIP3   OH262370   6.788   4.093   6.097 -0.0270  0.1891 -0.6403
13652TIP3    H162371   6.773   4.145   6.176 -0.7176  0.3640 -0.8803
13652TIP3    H262372   6.786   4.002   6.127 -1.6300  0.2014 -0.6546
13653TIP3   OH262373   4.330   3.496  15.665  1.0618 -0.6724  0.1341
13653TIP3    H162374   4.307   3.589  15.666 -0.8788 -1.1026 -0.7979
13653TIP3    H262375   4.332   3.471  15.757  0.8910  0.1278  0.3654
13654TIP3   OH262376   2.311   1.127  15.257 -0.5276 -0.4944 -0.8968
13654TIP3    H162377   2.341   1.185  15.327  1.0914 -1.1352 -1.0067
13654TIP3    H262378   2.229   1.091  15.289  0.4908 -1.2942  1.0111
13655TIP3   OH262379   2.870   5.549   5.985 -0.1920  0.1097  0.2611
13655TIP3    H162380   2.912   5.558   6.070 -0.2282  1.6745  0.1483
13655TIP3    H262381   2.808   5.622   5.981 -1.5363 -1.0244 -0.3643
13656TIP3   OH262382   3.334   0.440  11.421 -0.0362  0.3453  0.0806
13656TIP3    H162383   3.407   0.392  11.460  0.6424 -0.0545 -1.5788
13656TIP3    H262384   3.317   0.394  11.339 -1.4237  1.1168 -0.0948
13657TIP3   OH262385   4.995   2.132   2.829 -0.5550 -0.9479 -0.0249
13657TIP3    H162386   5.021   2.069   2.895 -1.3515 -0.9142  0.3363
13657TIP3    H262387   4.902   2.149   2.847 -0.5411 -0.2299 -0.5649
13658TIP3   OH262388   5.488   0.408   1.230 -0.2474 -0.2402  0.4160
13658TIP3    H162389   5.578   0.433   1.253  0.0346 -0.8626  0.0201
13658TIP3    H262390   5.442   0.491   1.222  0.2131  0.0736  0.9478
13659TIP3   OH262391   3.297   2.783  13.483  0.3273 -1.0852  0.4999
13659TIP3    H162392   3.349   2.813  13.558  1.6107 -2.4411  0.1841
13659TIP3    H262393   3.337   2.827  13.408 -0.8506  0.1382  0.5587
13660TIP3   OH262394   3.133   4.236   5.632 -0.2408 -0.3457  0.1024
13660TIP3    H162395   3.197   4.221   5.562  0.0284  1.0777  0.0107
13660TIP3    H262396   3.078   4.307   5.600  1.4895  2.2129  2.2888
13661TIP3   OH262397   3.563   0.685   1.562 -0.2471 -0.2527 -0.1411
13661TIP3    H162398   3.571   0.599   1.519 -2.5216  0.8405 -3.1640
13661TIP3    H262399   3.555   0.747   1.489 -2.4879  2.0577  1.8590
13662TIP3   OH262400   4.434   3.635   3.179 -0.5943 -0.3183 -0.3290
13662TIP3    H162401   4.512   3.691   3.181 -1.2729  0.7686 -2.1646
13662TIP3    H262402   4.404   3.633   3.270  3.0558 -3.0442  1.0782
13663TIP3   OH262403   1.482   1.355   3.234 -0.4663 -0.1103 -0.1403
13663TIP3    H162404   1.492   1.447   3.209  0.5802 -0.0430  0.4982
13663TIP3    H262405   1.453   1.358   3.325  1.1896 -0.4091  0.4299
13664TIP3   OH262406   6.032   0.515   1.925 -0.2933  0.2034 -0.2540
13664TIP3    H162407   5.996   0.594   1.966 -0.0049 -0.0239  0.4443
13664TIP3    H262408   6.042   0.538   1.833  1.3220  1.5481  0.2123
13665TIP3   OH262409   6.319   5.593  15.351 -0.3022 -0.1376 -0.3829
13665TIP3    H162410   6.399   5.540  15.358 -0.1503  0.0740 -0.5016
13665TIP3    H262411   6.253   5.532  15.316 -0.4647 -0.5851  0.6313
13666TIP3   OH262412   0.415   1.983   2.380  0.1724  0.2024  0.3672
13666TIP3    H162413   0.358   1.909   2.359  0.6490  0.0649 -0.4620
13666TIP3    H262414   0.379   2.056   2.329 -1.2928  1.0121  2.3957
13667TIP3   OH262415   4.147   3.056  11.893  0.0449  0.1416 -0.4082
13667TIP3    H162416   4.202   2.980  11.874  0.6281  0.3149  0.5058
13667TIP3    H262417   4.122   3.045  11.984  0.0571  0.9930 -0.2911
13668TIP3   OH262418   4.132   6.678   3.150  0.9150  0.8061 -0.4342
13668TIP3    H162419   4.129   6.585   3.170 -0.4100  1.3038  2.1876
13668TIP3    H262420   4.079   6.688   3.071  1.6073 -0.7043 -1.1176
13669TIP3   OH262421   3.783   0.639  14.850 -0.1015  0.3928  0.2016
13669TIP3    H162422   3.758   0.701  14.919 -0.9499 -0.7376  0.9521
13669TIP3    H262423   3.738   0.558  14.874  2.5239 -1.1101  0.3443
13670TIP3   OH262424   3.496   3.645   5.357 -0.4678 -0.4246  0.6675
13670TIP3    H162425   3.508   3.604   5.442 -0.5581  1.2677  1.5332
13670TIP3    H262426   3.573   3.702   5.347 -0.6321 -0.3464 -0.2253
13671TIP3   OH262427   0.552   1.412   5.056  0.0940  0.5137 -0.5007
13671TIP3    H162428   0.538   1.501   5.090  0.2932 -0.2474  1.7544
13671TIP3    H262429   0.493   1.406   4.981  0.0594  2.5323 -0.6932
13672TIP3   OH262430   1.554   6.129  16.068 -0.2966 -0.0396  0.1843
13672TIP3    H162431   1.565   6.035  16.084  0.7070  0.1000  0.4414
13672TIP3    H262432   1.513   6.135  15.982  0.6803 -0.7084 -0.3479
13673TIP3   OH262433   3.365   4.321   2.705 -0.2820  0.1882  0.3157
13673TIP3    H162434   3.364   4.314   2.800 -1.3453  0.6203  0.3445
13673TIP3    H262435   3.274   4.315   2.679 -0.0186  0.2531 -0.6659
13674TIP3   OH262436   6.204   2.687   3.162 -0.2810  0.2493  0.8082
13674TIP3    H162437   6.278   2.679   3.222 -0.2050  0.2930  0.7205
13674TIP3    H262438   6.162   2.769   3.186 -0.5766 -0.0056  1.1669
13675TIP3   OH262439   5.997   6.475   0.949 -0.2773  0.3444  0.1146
13675TIP3    H162440   5.933   6.482   1.019 -0.6021  0.3984 -0.1838
13675TIP3    H262441   6.080   6.455   0.993 -0.6267 -0.3914  0.4522
13676TIP3   OH262442   5.120   3.767  15.365  0.4477 -0.5183  0.0439
13676TIP3    H162443   5.097   3.851  15.404  2.5838 -0.5506  1.4782
13676TIP3    H262444   5.090   3.702  15.429  2.3162 -0.6388  0.8657
13677TIP3   OH262445   0.039   2.222   4.680 -0.1555 -0.7811  0.5480
13677TIP3    H162446  -0.019   2.247   4.608  0.0116  1.2901  1.0615
13677TIP3    H262447   0.105   2.292   4.682  0.2416 -1.1676  2.2693
13678TIP3   OH262448   5.713   2.612  12.966  0.3946  0.3244  0.1768
13678TIP3    H162449   5.681   2.618  13.056 -2.3754 -5.1209 -0.0430
13678TIP3    H262450   5.635   2.627  12.912  1.0568 -0.5673 -1.0768
13679TIP3   OH262451   4.334   0.469  12.605 -0.3421  0.2989  0.0251
13679TIP3    H162452   4.241   0.482  12.584 -0.1138  1.7351 -0.1908
13679TIP3    H262453   4.356   0.542  12.662  0.9985  0.7867 -1.0677
13680TIP3   OH262454   2.366   0.207   0.962 -0.0304 -0.3486 -0.2973
13680TIP3    H162455   2.358   0.214   0.867  1.5259  0.3629 -0.4150
13680TIP3    H262456   2.277   0.194   0.993 -0.6997  0.4609 -1.7741
13681TIP3   OH262457   4.706   4.862   2.279 -0.1372 -0.3963 -0.6712
13681TIP3    H162458   4.736   4.791   2.336  2.7042  2.2973  1.6104
13681TIP3    H262459   4.644   4.911   2.332 -0.8059 -0.2233 -1.5862
13682TIP3   OH262460   1.161   5.120  13.425  0.2666  0.1528 -0.2039
13682TIP3    H162461   1.097   5.130  13.355 -1.0895 -1.3333  0.7248
13682TIP3    H262462   1.135   5.183  13.491 -1.3387 -1.5219  0.8675
13683TIP3   OH262463   0.570   3.346   5.396 -0.1925 -0.2459  0.1767
13683TIP3    H162464   0.572   3.426   5.343 -0.7458  0.2319  0.8423
13683TIP3    H262465   0.532   3.280   5.338 -1.9659  0.5725  0.3356
13684TIP3   OH262466   1.076   4.415   2.423 -0.9113 -0.3675 -0.0968
13684TIP3    H162467   1.005   4.469   2.456 -1.2383 -0.9695  0.1951
13684TIP3    H262468   1.151   4.475   2.419 -1.1261 -0.0188  0.7382
13685TIP3   OH262469   4.054   4.401   5.544 -0.6676  0.0313  0.2810
13685TIP3    H162470   4.144   4.425   5.522 -0.3363 -1.3931 -0.0057
13685TIP3    H262471   4.061   4.315   5.585 -2.1486 -1.4874 -2.4113
13686TIP3   OH262472   6.371   2.700   3.380 -0.4261  0.0551  0.2387
13686TIP3    H162473   6.444   2.643   3.404 -0.2734 -0.0323 -0.4220
13686TIP3    H262474   6.412   2.785   3.363 -0.6334  0.3313  1.0655
13687TIP3   OH262475   4.133   6.379  10.263 -0.0753  0.4186  0.3424
13687TIP3    H162476   4.058   6.361  10.207  0.2953 -2.3298  0.6076
13687TIP3    H262477   4.100   6.367  10.352  0.1448  1.4683  0.5735
13688TIP3   OH262478   3.820   6.784  11.568  0.3942 -0.2309 -0.6616
13688TIP3    H162479   3.874   6.806  11.492  0.3365  1.0775 -0.3310
13688TIP3    H262480   3.778   6.866  11.593 -0.5977 -0.9156  0.0023
13689TIP3   OH262481   6.021   2.855  11.329 -0.1362  0.2081  0.3409
13689TIP3    H162482   5.965   2.878  11.403  0.1675  1.6538  0.1654
13689TIP3    H262483   6.049   2.940  11.294 -1.1409 -0.3948 -2.1013
13690TIP3   OH262484   0.401   0.497   5.850 -0.5148  0.3910  0.5099
13690TIP3    H162485   0.496   0.505   5.837 -0.5180  0.4340  0.5120
13690TIP3    H262486   0.363   0.550   5.780 -0.5408  0.2370  0.4081
13691TIP3   OH262487   4.533   5.656  11.043  0.3172  0.4339  0.2806
13691TIP3    H162488   4.592   5.600  10.991 -1.2683 -0.3548 -0.7297
13691TIP3    H262489   4.453   5.662  10.991  0.2666  3.3800  0.5218
13692TIP3   OH262490   6.719   2.069   1.481 -0.4544 -0.3797  0.3011
13692TIP3    H162491   6.648   2.006   1.497 -0.9994  0.0018 -0.5234
13692TIP3    H262492   6.775   2.026   1.416 -1.5813  0.4940 -1.3277
13693TIP3   OH262493   3.158   3.581   0.797  0.1630  0.2464  0.0937
13693TIP3    H162494   3.161   3.568   0.702 -1.4728 -1.4192  0.2143
13693TIP3    H262495   3.075   3.541   0.824 -0.0304  1.8087  2.0764
13694TIP3   OH262496   4.721   0.190   2.704  0.6964  0.3027 -0.2879
13694TIP3    H162497   4.732   0.143   2.621  0.5346  0.7640 -0.5683
13694TIP3    H262498   4.657   0.138   2.752  0.6954  0.1024 -0.5011
13695TIP3   OH262499   0.171   4.901  11.297  0.5329 -0.3124 -0.5593
13695TIP3    H162500   0.198   4.901  11.205  0.7853  2.7427 -0.5630
13695TIP3    H262501   0.115   4.977  11.306 -0.6140 -1.3200  1.5691
13696TIP3   OH262502   0.060   2.844   4.060  0.1545  0.0383  0.0896
13696TIP3    H162503   0.081   2.852   3.967  1.0750 -2.2110  0.0306
13696TIP3    H262504   0.140   2.871   4.104  1.4846 -3.2690  0.0092
13697TIP3   OH262505   5.168   0.318  16.698  0.3028  0.2518 -0.3455
13697TIP3    H162506   5.139   0.395  16.649  0.8902  0.4011 -0.4674
13697TIP3    H262507   5.261   0.310  16.677  0.2707 -0.4277 -0.2494
13698TIP3   OH262508   1.427   2.869  13.833  0.3919 -0.4875  0.0495
13698TIP3    H162509   1.446   2.955  13.870  1.6921 -1.5965  2.2256
13698TIP3    H262510   1.456   2.874  13.742 -0.6152  1.6700 -0.2016
13699TIP3   OH262511   2.554   4.928   1.315 -0.1352 -0.5508 -0.1943
13699TIP3    H162512   2.471   4.969   1.292 -0.5843 -0.6439  1.1574
13699TIP3    H262513   2.565   4.858   1.251 -1.4773 -1.0201  0.0493
13700TIP3   OH262514   0.160   3.778   3.216 -0.5316  0.2251  0.1961
13700TIP3    H162515   0.083   3.809   3.264 -1.6238 -1.7801 -0.1489
13700TIP3    H262516   0.195   3.707   3.270  1.0768  1.0540  0.3119
13701TIP3   OH262517   0.993   0.256   0.558 -0.5024  0.0590 -0.3596
13701TIP3    H162518   0.928   0.186   0.563 -0.2712 -0.1290  0.0563
13701TIP3    H262519   0.953   0.331   0.601  0.0675 -0.4588  1.1418
13702TIP3   OH262520   4.353   1.649   5.334 -0.0153  0.3942  0.0170
13702TIP3    H162521   4.386   1.738   5.343 -1.9016  1.0376  1.1396
13702TIP3    H262522   4.348   1.635   5.239  1.3760  1.0210 -0.1758
13703TIP3   OH262523   3.522   6.625   0.850  1.0118  0.7448 -0.0307
13703TIP3    H162524   3.601   6.594   0.805  1.0002  2.5534 -1.3932
13703TIP3    H262525   3.491   6.699   0.797 -0.6523  1.1447  1.4057
13704TIP3   OH262526   3.241   2.880   3.559 -0.4119  0.1767  0.0870
13704TIP3    H162527   3.253   2.960   3.610 -1.7404  0.1053  0.5309
13704TIP3    H262528   3.149   2.856   3.571 -0.2779 -0.8996 -0.8039
13705TIP3   OH262529   4.668   3.812  16.843  0.4610 -0.4900 -0.0401
13705TIP3    H162530   4.726   3.882  16.871 -1.2829  1.7897 -1.7257
13705TIP3    H262531   4.710   3.776  16.764 -0.2847  1.1359 -1.2435
13706TIP3   OH262532   1.857   5.590  12.153  0.1342  0.4799  0.3471
13706TIP3    H162533   1.916   5.645  12.102 -0.2469  0.9823  0.4361
13706TIP3    H262534   1.771   5.633  12.145 -0.4247 -0.7581 -0.5667
13707TIP3   OH262535   1.479   3.189   1.051  0.0237  0.4296  0.2295
13707TIP3    H162536   1.515   3.104   1.074  0.0454  0.5779  0.7519
13707TIP3    H262537   1.430   3.216   1.128 -2.2878 -0.3381 -0.8591
13708TIP3   OH262538   2.959   1.889  15.340  0.2242 -0.3893 -0.4580
13708TIP3    H162539   2.924   1.845  15.418  0.8317 -2.6305 -1.3612
13708TIP3    H262540   3.053   1.876  15.345  0.6502  2.3063  0.0192
13709TIP3   OH262541   6.154   2.381  15.370 -0.2638 -0.3174 -0.2728
13709TIP3    H162542   6.083   2.330  15.330  1.2110 -2.4984 -0.3043
13709TIP3    H262543   6.224   2.317  15.384  2.5414  2.0614 -2.1902
13710TIP3   OH262544   6.155   3.581   3.759 -0.1634  0.2501 -0.8613
13710TIP3    H162545   6.136   3.617   3.845 -4.0508 -1.4859 -0.7378
13710TIP3    H262546   6.182   3.491   3.776 -0.6409 -0.0051 -1.3930
13711TIP3   OH262547   2.816   1.362  14.214 -0.5436  0.3248 -0.0127
13711TIP3    H162548   2.855   1.405  14.138  0.7447 -1.0819 -0.2102
13711TIP3    H262549   2.740   1.316  14.179 -1.6317  1.9692  0.1112
13712TIP3   OH262550   3.492   1.827  13.978 -0.1324  0.5592  0.5408
13712TIP3    H162551   3.429   1.889  13.941 -0.6005 -0.7903 -1.0889
13712TIP3    H262552   3.577   1.860  13.951 -0.3179  0.9024  0.3653
13713TIP3   OH262553   0.569   3.607  15.139  0.2893 -0.1860  0.4264
13713TIP3    H162554   0.642   3.623  15.200  0.8539 -0.2797 -0.2196
13713TIP3    H262555   0.508   3.678  15.157 -0.2206 -0.9782  2.0820
13714TIP3   OH262556   2.671   4.730   4.248  0.1703 -0.4352  0.4304
13714TIP3    H162557   2.664   4.819   4.282  1.5030 -0.3400  0.5437
13714TIP3    H262558   2.738   4.689   4.303  0.2323 -1.2133 -0.2069
13715TIP3   OH262559   5.033   1.353   4.673 -0.5598 -0.1394 -0.0646
13715TIP3    H162560   5.058   1.343   4.765  0.4414 -0.4930 -0.3634
13715TIP3    H262561   4.940   1.327   4.671 -0.9006  0.8835  1.0136
13716TIP3   OH262562   6.335   3.853   0.471  0.3030 -0.3810  0.1370
13716TIP3    H162563   6.394   3.786   0.506 -0.2802  0.7889  3.8113
13716TIP3    H262564   6.258   3.804   0.441  0.1501 -1.4549  2.1531
13717TIP3   OH262565   3.130   5.794   1.673 -0.4296 -0.2377 -0.0960
13717TIP3    H162566   3.128   5.798   1.769 -0.4795 -0.7734 -0.0731
13717TIP3    H262567   3.058   5.737   1.649  1.7002 -3.0788 -0.2495
13718TIP3   OH262568   3.804   2.752   1.421  0.6564 -0.0702  0.2272
13718TIP3    H162569   3.817   2.729   1.329  0.2097  0.6564 -0.0251
13718TIP3    H262570   3.871   2.818   1.438  0.7664 -0.2353  0.4468
13719TIP3   OH262571   1.220   5.332  15.130  0.0223 -0.7579  0.4941
13719TIP3    H162572   1.242   5.244  15.100  0.2916 -0.5895  0.1900
13719TIP3    H262573   1.131   5.346  15.099 -1.1853 -2.0448  3.0757
13720TIP3   OH262574   2.878   2.424   2.777 -0.0526 -0.2772  0.0454
13720TIP3    H162575   2.905   2.418   2.685  0.5513 -1.6462  0.2890
13720TIP3    H262576   2.852   2.335   2.800  0.5336 -0.1075  1.4128
13721TIP3   OH262577   4.579   1.729   2.188  0.4275 -0.4628 -0.3306
13721TIP3    H162578   4.542   1.814   2.210  1.1654 -0.7212  2.2576
13721TIP3    H262579   4.662   1.726   2.236  0.8690 -2.2802 -1.1213
13722TIP3   OH262580   2.022   3.215  12.589  0.3625  0.3409 -0.2618
13722TIP3    H162581   1.964   3.159  12.641  0.0514 -0.1441 -1.1081
13722TIP3    H262582   1.968   3.291  12.567  1.2626  1.8381  2.2497
13723TIP3   OH262583   1.861   6.192  15.172  0.1479 -0.2268 -0.5684
13723TIP3    H162584   1.777   6.218  15.134  0.2272 -1.0968 -1.3790
13723TIP3    H262585   1.923   6.200  15.101  0.6496 -0.1257 -0.1242
13724TIP3   OH262586   1.209   0.869  15.749 -0.1939 -0.5494 -0.6235
13724TIP3    H162587   1.189   0.845  15.659 -0.1700 -1.7633 -0.3209
13724TIP3    H262588   1.123   0.888  15.788 -0.2513 -0.5339 -0.7548
13725TIP3   OH262589   2.860   4.226   5.323  0.3245  1.0622 -0.3341
13725TIP3    H162590   2.947   4.231   5.283  0.2705 -0.7912 -0.7550
13725TIP3    H262591   2.810   4.168   5.266 -1.1135  1.8144  0.0953
13726TIP3   OH262592   5.314   6.211   1.661 -0.1991 -0.7795 -0.1668
13726TIP3    H162593   5.346   6.121   1.666  1.3898 -0.4502 -2.8324
13726TIP3    H262594   5.225   6.203   1.627 -0.9760 -1.3857  1.8296
13727TIP3   OH262595   2.562   4.318  12.345 -0.2751 -0.2124  0.1115
13727TIP3    H162596   2.526   4.305  12.257  0.3095 -1.8889  0.0960
13727TIP3    H262597   2.574   4.413  12.352 -0.6867 -0.0200 -1.4675
13728TIP3   OH262598   6.140   3.729   5.959 -0.5830  0.2371 -0.8548
13728TIP3    H162599   6.208   3.785   5.997 -0.1261 -1.8410  1.6198
13728TIP3    H262600   6.065   3.788   5.948  0.2943  1.6542  0.2872
13729TIP3   OH262601   6.290   1.425   6.534  0.4104 -0.3563  0.2433
13729TIP3    H162602   6.197   1.410   6.549  0.7965 -2.7644  0.6390
13729TIP3    H262603   6.313   1.364   6.464  1.7091  0.1805  0.1781
13730TIP3   OH262604   6.345   6.083  16.499 -0.0103 -0.1304  0.1514
13730TIP3    H162605   6.335   6.169  16.460  0.2508 -0.5534 -0.8701
13730TIP3    H262606   6.274   6.077  16.562 -1.6770 -0.2046 -1.6601
13731TIP3   OH262607   2.932   1.716  13.068 -1.3464 -0.2799  0.1314
13731TIP3    H162608   3.025   1.726  13.047 -1.0422 -0.9032  1.1066
13731TIP3    H262609   2.932   1.685  13.159 -2.5269  0.1951  0.2968
13732TIP3   OH262610   0.293   5.670   1.045  0.4825 -0.8341 -0.0279
13732TIP3    H162611   0.288   5.584   1.003 -1.4982 -0.7488 -0.0409
13732TIP3    H262612   0.319   5.730   0.975 -1.3388 -0.9309 -0.8537
13733TIP3   OH262613   6.424   0.116   0.755  0.4467 -0.4021 -0.3337
13733TIP3    H162614   6.427   0.089   0.663  0.4864 -0.0214 -0.4456
13733TIP3    H262615   6.333   0.142   0.769  0.3705 -0.7383 -0.1810
13734TIP3   OH262616   4.096   4.295   2.631 -0.2352 -0.4835 -0.0026
13734TIP3    H162617   4.004   4.271   2.619 -0.8522  1.5185  0.4006
13734TIP3    H262618   4.100   4.335   2.717  0.8499  0.2521 -0.3770
13735TIP3   OH262619   2.242   2.089   4.956 -0.5921  0.1617  0.4132
13735TIP3    H162620   2.148   2.079   4.970 -1.0211  2.0065 -0.7222
13735TIP3    H262621   2.254   2.074   4.862  0.3170 -0.3555  0.5960
13736TIP3   OH262622   4.905   4.439  14.209  0.2943  0.0856 -0.0553
13736TIP3    H162623   4.893   4.532  14.192 -0.6054 -0.1376 -0.7447
13736TIP3    H262624   4.901   4.431  14.304 -3.1422  0.3536 -0.0667
13737TIP3   OH262625   2.829   6.481   0.324 -0.1940  0.3524  0.4010
13737TIP3    H162626   2.820   6.563   0.372  0.1650  0.3437  0.4912
13737TIP3    H262627   2.759   6.482   0.259 -0.6019  0.4282  0.8411
13738TIP3   OH262628   4.581   4.231  15.996  0.0411  0.1100 -0.0544
13738TIP3    H162629   4.537   4.314  16.012  0.2748  0.2698 -0.2420
13738TIP3    H262630   4.519   4.182  15.940  0.0259  0.2652 -0.1733
13739TIP3   OH262631   2.418   1.233  14.435  0.6582 -0.0173 -0.0093
13739TIP3    H162632   2.323   1.221  14.434  0.4488  1.3007  1.2234
13739TIP3    H262633   2.445   1.201  14.521  1.2557  0.1613 -0.1287
13740TIP3   OH262634   6.353   3.096  12.136 -0.2010  0.0497  0.1225
13740TIP3    H162635   6.378   3.131  12.050  1.6446  1.4396  1.1506
13740TIP3    H262636   6.392   3.009  12.140  1.4725  0.7685  0.2793
13741TIP3   OH262637   0.860   3.551  16.063 -0.2402  0.4754  0.0744
13741TIP3    H162638   0.910   3.611  16.117 -0.4711 -1.2521  2.3390
13741TIP3    H262639   0.926   3.492  16.026  0.1782  2.8070 -3.3593
13742TIP3   OH262640   5.572   4.285   1.912  0.4771  0.3025  0.1050
13742TIP3    H162641   5.539   4.268   2.000  2.0499  3.4802  1.4502
13742TIP3    H262642   5.663   4.253   1.914  0.1851 -0.6779 -0.8213
13743TIP3   OH262643   2.265   5.976   5.002 -0.3012 -0.0916  0.3910
13743TIP3    H162644   2.245   5.907   5.065  3.3119  0.1452  2.0530
13743TIP3    H262645   2.208   6.049   5.027 -1.2400 -1.0879  1.2651
13744TIP3   OH262646   4.772   2.110  16.726  0.0431 -0.3113 -0.9159
13744TIP3    H162647   4.757   2.020  16.697  2.2903 -1.1743  0.3521
13744TIP3    H262648   4.838   2.103  16.795 -0.5485  2.2191  0.0587
13745TIP3   OH262649   1.445   5.676  15.533 -0.4840  0.0650  0.0819
13745TIP3    H162650   1.459   5.771  15.533  0.1002 -0.0130 -0.0159
13745TIP3    H262651   1.402   5.658  15.450  1.6115 -0.0331 -1.0549
13746TIP3   OH262652   2.116   4.548  15.120  0.4485 -0.3653 -0.1046
13746TIP3    H162653   2.206   4.575  15.103  0.6256 -1.1790 -0.5558
13746TIP3    H262654   2.064   4.596  15.056  0.2344  1.8936  1.6455
13747TIP3   OH262655   4.176   0.528   4.418  0.1614 -0.1386 -0.3065
13747TIP3    H162656   4.161   0.441   4.454  2.4226 -0.3506  0.3224
13747TIP3    H262657   4.155   0.588   4.490  2.0715 -0.4187  0.5536
13748TIP3   OH262658   5.059   4.015   5.337  0.3050  0.0985  0.3682
13748TIP3    H162659   5.028   3.925   5.339  1.6116 -0.3726  2.8980
13748TIP3    H262660   5.119   4.019   5.262  2.0489 -1.8347  1.5696
13749TIP3   OH262661   5.695   6.307   3.852 -0.3070  0.1291  0.0941
13749TIP3    H162662   5.686   6.358   3.772 -2.8269 -2.2211 -1.2778
13749TIP3    H262663   5.736   6.225   3.823 -0.1265 -0.2924  1.4750
13750TIP3   OH262664   1.263   0.968  11.666  0.3103  0.4545 -0.3836
13750TIP3    H162665   1.328   1.024  11.623 -0.2551  0.5424 -1.1554
13750TIP3    H262666   1.307   0.934  11.743  1.2701  0.5173 -0.8936
13751TIP3   OH262667   5.047   0.500   3.772  0.0650  0.0974 -0.0891
13751TIP3    H162668   4.960   0.537   3.758  0.0561 -0.3960 -1.5219
13751TIP3    H262669   5.062   0.510   3.866 -1.1460  1.0256  0.0364
13752TIP3   OH262670   5.077   4.745  16.375 -0.8105 -0.0464 -0.3941
13752TIP3    H162671   5.136   4.806  16.331  1.5969 -1.5834  0.5446
13752TIP3    H262672   5.099   4.753  16.468  0.3993 -3.0263 -0.3106
13753TIP3   OH262673   0.122   2.980  12.521 -0.4998 -0.5569  0.4674
13753TIP3    H162674   0.166   3.060  12.549 -0.8529 -0.2323  0.0996
13753TIP3    H262675   0.035   3.008  12.493  0.5020 -0.4858 -3.0828
13754TIP3   OH262676   4.853   0.439   2.802  0.3857 -0.3192  0.0093
13754TIP3    H162677   4.792   0.365   2.792  0.7845 -0.4027 -2.2674
13754TIP3    H262678   4.796   0.516   2.806  0.0148 -0.6353  1.3016
13755TIP3   OH262679   4.660   0.799   5.599 -0.0543  0.2833 -0.0861
13755TIP3    H162680   4.619   0.746   5.531 -0.7166  0.4849  0.1451
13755TIP3    H262681   4.701   0.871   5.552 -1.5163  1.0792 -0.2093
13756TIP3   OH262682   4.797   2.706   4.411 -0.2477 -0.2522  0.3623
13756TIP3    H162683   4.852   2.658   4.473  2.5443  1.7827 -0.3507
13756TIP3    H262684   4.818   2.667   4.326 -0.6968 -0.1381  0.1981
13757TIP3   OH262685   3.378   0.991   2.494 -0.5981 -0.8903  0.3400
13757TIP3    H162686   3.410   1.004   2.583  0.4295  1.3466 -0.2687
13757TIP3    H262687   3.451   0.950   2.448 -0.8579 -1.3681  0.3504
13758TIP3   OH262688   3.717   6.497   3.458 -0.5315 -0.3497 -0.3883
13758TIP3    H162689   3.807   6.529   3.462 -0.5135 -0.3050 -1.0228
13758TIP3    H262690   3.698   6.467   3.546  0.2262 -0.6889 -0.3380
13759TIP3   OH262691   5.526   5.257  14.457 -0.0113 -0.9872  0.1229
13759TIP3    H162692   5.436   5.228  14.441 -0.2986  0.4883 -1.2050
13759TIP3    H262693   5.580   5.204  14.398 -0.5303  0.9049 -2.2596
13760TIP3   OH262694   2.445   1.026  11.647  1.0140  0.0062  0.0462
13760TIP3    H162695   2.522   1.083  11.653 -0.6280  2.2832  0.7890
13760TIP3    H262696   2.457   0.962  11.717  3.3145 -1.1965 -1.3284
13761TIP3   OH262697   0.024   0.346  16.045  0.3588 -0.3493  0.3354
13761TIP3    H162698  -0.059   0.334  15.999  0.5021  0.5937 -0.1909
13761TIP3    H262699   0.090   0.349  15.975  0.8087 -0.8541  0.7352
13762TIP3   OH262700   5.058   5.873  16.212 -0.4178 -0.1049  0.2272
13762TIP3    H162701   5.105   5.849  16.132  1.2485  0.6471  0.9302
13762TIP3    H262702   5.115   5.937  16.255 -1.0930 -0.7498  2.2080
13763TIP3   OH262703   1.909   1.195  13.654 -0.2651 -0.3698  0.2272
13763TIP3    H162704   1.849   1.136  13.608 -0.2241 -0.3214  0.1111
13763TIP3    H262705   1.869   1.208  13.740  0.6660 -2.0934  0.9711
13764TIP3   OH262706   1.171   1.031   1.222 -0.1424  0.4105  0.1497
13764TIP3    H162707   1.239   1.098   1.222  1.4777 -1.1689  0.4359
13764TIP3    H262708   1.179   0.989   1.137 -0.2652 -0.2694  0.4709
13765TIP3   OH262709   6.340   2.430  11.240 -0.2486 -0.0524 -0.4317
13765TIP3    H162710   6.417   2.421  11.296  0.0464 -0.3682 -0.8847
13765TIP3    H262711   6.279   2.482  11.292  0.4980  0.7091 -0.2970
13766TIP3   OH262712   3.378   4.224  11.460  0.4148  0.3815  0.1014
13766TIP3    H162713   3.365   4.254  11.550  1.5347 -1.3307  0.9032
13766TIP3    H262714   3.468   4.190  11.460  0.2571 -0.1006 -1.5417
13767TIP3   OH262715   2.478   4.080   2.474 -0.4882  0.3781 -0.0774
13767TIP3    H162716   2.548   4.110   2.417 -0.2762 -1.2300 -0.7065
13767TIP3    H262717   2.447   3.999   2.434 -2.5001  0.8777  0.3556
13768TIP3   OH262718   6.712   4.005  15.871  0.3483 -0.2391 -0.1354
13768TIP3    H162719   6.778   3.977  15.934  0.7676 -0.4981 -0.6853
13768TIP3    H262720   6.761   4.054  15.805 -0.4562  2.6602  1.2525
13769TIP3   OH262721   2.138   3.781  13.337 -0.1741 -0.0531  0.2356
13769TIP3    H162722   2.116   3.769  13.245  2.6364  0.3866 -0.5927
13769TIP3    H262723   2.148   3.692  13.371 -0.5071 -0.2089 -0.0724
13770TIP3   OH262724   3.036   3.441   6.086 -0.2340 -0.2089  0.0416
13770TIP3    H162725   3.035   3.534   6.107  1.6597 -0.0997 -0.1902
13770TIP3    H262726   3.029   3.397   6.170  3.4948  0.2186  0.7750
13771TIP3   OH262727   6.538   4.791  15.094 -0.1395 -0.4589 -0.3742
13771TIP3    H162728   6.471   4.840  15.045  0.3734  1.2272  0.5350
13771TIP3    H262729   6.494   4.764  15.174 -0.2567 -1.0119 -0.6203
13772TIP3   OH262730   2.370   5.760   1.711 -0.4463 -0.0145 -0.4497
13772TIP3    H162731   2.359   5.851   1.685  0.1016  0.2592  0.2629
13772TIP3    H262732   2.298   5.714   1.668 -1.4818  0.9494  0.2006
13773TIP3   OH262733   4.881   0.202  11.980 -0.3118 -0.1749 -0.4342
13773TIP3    H162734   4.939   0.272  11.949 -0.0311 -0.2003  0.0290
13773TIP3    H262735   4.819   0.246  12.038  0.8895 -0.5429  1.1975
13774TIP3   OH262736   6.178   1.334  15.018  0.0977  0.1348  0.3280
13774TIP3    H162737   6.269   1.344  15.047  0.1367  1.0329 -0.0871
13774TIP3    H262738   6.178   1.366  14.928 -0.6255  0.1015  0.3156
13775TIP3   OH262739   1.070   6.772   3.140  0.0943 -0.1468  0.4181
13775TIP3    H162740   1.114   6.853   3.164  1.3454 -0.1141 -1.7718
13775TIP3    H262741   1.131   6.703   3.166  0.5373 -0.2055 -0.7479
13776TIP3   OH262742   5.234   5.139   0.046  0.0994 -0.3318  0.4837
13776TIP3    H162743   5.151   5.158   0.090 -0.2674 -2.2815  0.7499
13776TIP3    H262744   5.255   5.050   0.073  0.5443 -1.1562 -2.2618
13777TIP3   OH262745   5.896   3.808   4.449  0.1449 -0.5371  0.0470
13777TIP3    H162746   5.926   3.747   4.517  0.1802 -2.0933 -1.2833
13777TIP3    H262747   5.855   3.879   4.496  2.4390 -0.2669  1.8030
13778TIP3   OH262748   4.496   5.249  11.716  0.5388  0.6150 -0.4981
13778TIP3    H162749   4.566   5.207  11.668  1.2359  1.9212 -0.6869
13778TIP3    H262750   4.463   5.316  11.657  0.1294  0.9805  0.1276
13779TIP3   OH262751   0.808   2.657  16.322  0.0426 -0.5584  0.3009
13779TIP3    H162752   0.723   2.620  16.347 -0.1940  0.0566  0.4146
13779TIP3    H262753   0.868   2.582  16.323 -0.8556 -1.3482 -1.5318
13780TIP3   OH262754   5.966   0.079   1.787 -0.3761  0.6939  0.0639
13780TIP3    H162755   6.030   0.009   1.773 -0.0431  1.2733 -1.5218
13780TIP3    H262756   5.881   0.036   1.779 -0.1952  0.6539 -2.3438
13781TIP3   OH262757   0.481   2.327   4.481  0.2386 -1.0054  0.7809
13781TIP3    H162758   0.571   2.343   4.452  0.2268  0.8872  1.6457
13781TIP3    H262759   0.463   2.237   4.453  1.2733 -0.3840 -2.3035
13782TIP3   OH262760   1.392   6.524  12.083 -0.5379  0.0321 -0.2573
13782TIP3    H162761   1.457   6.502  12.149  0.6127  1.6579 -0.7789
13782TIP3    H262762   1.407   6.461  12.012 -2.4644 -2.3977  1.3481
13783TIP3   OH262763   1.078   2.796  16.354  0.4421 -0.3525 -0.4481
13783TIP3    H162764   1.154   2.768  16.303  0.4376 -1.4536  0.1352
13783TIP3    H262765   1.003   2.755  16.310  0.3957 -0.9473  0.1697
13784TIP3   OH262766   6.279   5.069   1.242 -0.0081  0.1614 -0.2570
13784TIP3    H162767   6.240   5.057   1.155  1.2459  0.7458 -0.9261
13784TIP3    H262768   6.324   4.986   1.260  1.0659  0.5795 -0.8948
13785TIP3   OH262769   0.399   0.217   5.653 -0.0858  0.5816 -0.2531
13785TIP3    H162770   0.312   0.201   5.689 -1.4317  1.6522 -2.8081
13785TIP3    H262771   0.454   0.231   5.730 -2.3733  0.9517  1.4189
13786TIP3   OH262772   1.908   2.757   5.331  0.1944  0.0269 -0.4152
13786TIP3    H162773   1.860   2.710   5.399  1.6985 -0.4232  0.3758
13786TIP3    H262774   1.964   2.818   5.379 -0.3709  1.3614 -1.3580
13787TIP3   OH262775   2.121   6.761   1.464  0.0697  0.0846 -0.1151
13787TIP3    H162776   2.215   6.770   1.449 -0.1393 -0.0587 -1.6620
13787TIP3    H262777   2.088   6.717   1.385 -1.3498  0.4612  0.2434
13788TIP3   OH262778   5.943   1.691  16.688  0.1156 -0.4803  0.3004
13788TIP3    H162779   6.002   1.726  16.620 -0.2119 -0.2098  0.1495
13788TIP3    H262780   5.859   1.683  16.643  0.2717 -1.8379  0.2284
13789TIP3   OH262781   6.728   6.222  15.401  0.2933 -0.3730  0.6299
13789TIP3    H162782   6.722   6.149  15.462 -1.7605  0.5507  1.6272
13789TIP3    H262783   6.760   6.295  15.454  2.4434 -0.5023 -0.3838
13790TIP3   OH262784   0.742   0.301  11.823 -0.0573  0.7514 -0.0109
13790TIP3    H162785   0.710   0.380  11.868 -0.5426  1.3755 -1.4102
13790TIP3    H262786   0.736   0.232  11.889 -2.5130  1.2418  0.3820
13791TIP3   OH262787   3.719   6.561   4.023  0.4370 -0.2469 -0.1774
13791TIP3    H162788   3.693   6.633   4.080  0.8678 -0.4901  0.3424
13791TIP3    H262789   3.644   6.546   3.967  0.2441  0.4242 -0.1016
13792TIP3   OH262790   1.673   4.434   0.601  0.3504 -0.0156  0.2145
13792TIP3    H162791   1.582   4.439   0.573  0.5648  2.3634 -0.3002
13792TIP3    H262792   1.711   4.363   0.549 -1.5784 -2.3487  1.8013
13793TIP3   OH262793   3.251   6.065   2.879  0.3976 -0.2528  0.7212
13793TIP3    H162794   3.316   6.110   2.933  0.5947  0.6872 -0.2562
13793TIP3    H262795   3.303   6.011   2.819  0.2606  0.1204  0.2637
13794TIP3   OH262796   4.675   0.286  15.975 -0.1897 -0.0682  0.3520
13794TIP3    H162797   4.607   0.284  16.043  0.1047 -0.1842  0.6467
13794TIP3    H262798   4.738   0.220  16.003 -1.0789 -1.5907 -1.1127
13795TIP3   OH262799   1.624   6.774   0.227 -0.6790 -0.3976 -0.0251
13795TIP3    H162800   1.545   6.768   0.174 -1.5513 -0.1679  1.1946
13795TIP3    H262801   1.599   6.829   0.301  0.6558 -0.2547  0.3496
13796TIP3   OH262802   1.441   4.640   0.507 -0.1610  0.0679 -0.5786
13796TIP3    H162803   1.432   4.658   0.414  0.4474  0.1362 -0.6298
13796TIP3    H262804   1.418   4.548   0.517 -0.2879  0.0789 -0.7858
13797TIP3   OH262805   6.049   4.537  10.732 -0.3866  0.6643 -0.6124
13797TIP3    H162806   6.093   4.526  10.647 -0.3094  1.6238 -0.7008
13797TIP3    H262807   5.959   4.561  10.709 -0.2288  1.4577 -0.4324
13798TIP3   OH262808   0.052   0.320   1.821 -0.2407 -0.5220 -0.0330
13798TIP3    H162809   0.013   0.234   1.831 -0.3167 -0.2686  2.3806
13798TIP3    H262810   0.023   0.370   1.898  0.7423  1.2852 -0.7524
13799TIP3   OH262811   4.440   0.653   0.010 -0.1136  0.2016 -0.5716
13799TIP3    H162812   4.501   0.689   0.074 -0.1691  0.7849 -0.8437
13799TIP3    H262813   4.356   0.647   0.057 -0.4089  1.6153 -0.8872
13800TIP3   OH262814   6.679   6.259  14.751 -0.4793 -0.3735 -0.1438
13800TIP3    H162815   6.759   6.305  14.777  0.5187 -1.6476 -0.8413
13800TIP3    H262816   6.690   6.171  14.787 -1.9839 -0.3237  0.4820
13801TIP3   OH262817   3.539   6.492  12.574 -0.0288 -0.1150 -0.6289
13801TIP3    H162818   3.548   6.434  12.499  0.3868  1.7897 -2.1402
13801TIP3    H262819   3.450   6.527  12.567 -0.5808 -1.1919  0.7614
13802TIP3   OH262820   6.443   6.297  11.652  0.2109 -0.1507  0.0738
13802TIP3    H162821   6.463   6.375  11.704  2.1629 -0.7308  0.2712
13802TIP3    H262822   6.455   6.325  11.561  0.0814 -0.0166  0.0972
13803TIP3   OH262823   2.211   1.234  15.652  0.2494 -0.1463  0.3618
13803TIP3    H162824   2.215   1.295  15.725 -0.2225  0.1415  0.1530
13803TIP3    H262825   2.193   1.289  15.576 -0.7457 -0.5909  0.2510
13804TIP3   OH262826   6.524   6.153   4.475  0.6108 -0.8284  0.0599
13804TIP3    H162827   6.481   6.231   4.441 -0.6273 -1.3327  0.4149
13804TIP3    H262828   6.590   6.130   4.409  1.1841  0.6580  0.0920
13805TIP3   OH262829   4.428   6.429  14.390  0.2887  0.0529  0.4993
13805TIP3    H162830   4.438   6.407  14.482  0.4217 -0.8143  0.2897
13805TIP3    H262831   4.517   6.446  14.360  0.6383 -2.4869 -0.1220
13806TIP3   OH262832   2.478   1.848   3.329  0.0298  0.3022  0.1277
13806TIP3    H162833   2.451   1.804   3.248 -1.2384 -0.1345  0.7689
13806TIP3    H262834   2.508   1.778   3.386 -1.1680  0.3272  0.8286
13807TIP3   OH262835   4.865   2.788   3.944  0.0620  0.0989  0.1213
13807TIP3    H162836   4.793   2.768   3.884  0.8805 -0.3837 -0.7197
13807TIP3    H262837   4.871   2.884   3.942  0.7510  0.0553 -1.4104
13808TIP3   OH262838   4.305   1.493  15.279 -0.1058  0.5942 -0.6025
13808TIP3    H162839   4.341   1.405  15.294  0.4907  1.0278  0.5761
13808TIP3    H262840   4.369   1.536  15.222  0.9802  1.1481  0.9787
13809TIP3   OH262841   5.828   3.018  15.151 -0.0668  0.4556 -0.3499
13809TIP3    H162842   5.877   3.093  15.117  0.0408  1.4841  1.8508
13809TIP3    H262843   5.876   2.992  15.229 -1.7613  0.0480  0.6165
13810TIP3   OH262844   1.045   2.173   1.826  0.0270  0.4959  0.1595
13810TIP3    H162845   1.041   2.251   1.881  1.1984  1.6768 -1.3201
13810TIP3    H262846   1.000   2.198   1.745  0.2126 -0.4376 -0.2535
13811TIP3   OH262847   3.587   5.594  12.210  0.0013 -0.1210 -0.0273
13811TIP3    H162848   3.506   5.643  12.223 -0.0662 -0.6088  1.6202
13811TIP3    H262849   3.604   5.552  12.294  1.6833 -0.4731 -0.4936
13812TIP3   OH262850   0.943   0.873   0.442 -0.0812  0.2804 -0.1327
13812TIP3    H162851   0.938   0.858   0.348 -1.9062  1.4834 -0.2706
13812TIP3    H262852   0.960   0.966   0.451 -1.5436  0.4984  0.7021
13813TIP3   OH262853   5.258   3.115  15.349 -0.0274  1.0293 -0.1751
13813TIP3    H162854   5.349   3.095  15.325  0.5111  2.0751  0.8837
13813TIP3    H262855   5.263   3.142  15.440 -1.5290  0.4261  0.1059
13814TIP3   OH262856   4.351   2.696   3.600  0.1415  0.1881 -0.3883
13814TIP3    H162857   4.365   2.701   3.506  0.9072  1.2128 -0.2349
13814TIP3    H262858   4.375   2.782   3.633 -0.8542  0.0985  0.6572
13815TIP3   OH262859   4.404   4.084   3.727 -0.6444  0.4695  0.1076
13815TIP3    H162860   4.348   4.027   3.674 -1.5965 -0.8255  2.3807
13815TIP3    H262861   4.469   4.118   3.665 -1.3496 -1.3918 -1.7622
13816TIP3   OH262862   4.871   5.991  11.369 -0.2469 -0.3302 -0.2931
13816TIP3    H162863   4.829   6.034  11.295  1.5109  0.0520 -1.1295
13816TIP3    H262864   4.801   5.982  11.434 -1.3044  1.4299 -1.0934
13817TIP3   OH262865   0.037   5.487  16.082 -0.6488  0.1582 -0.9834
13817TIP3    H162866   0.046   5.502  15.988 -0.5823 -0.1885 -1.0339
13817TIP3    H262867   0.126   5.497  16.116 -0.9680  2.3181 -0.6447
13818TIP3   OH262868   1.135   5.378   0.760 -0.5683  0.1023 -0.3201
13818TIP3    H162869   1.172   5.326   0.831 -2.3092 -0.3785  0.2645
13818TIP3    H262870   1.209   5.431   0.729  0.6204 -0.8740  0.7302
13819TIP3   OH262871   6.599   0.108  14.179  0.2541  0.1579  0.2858
13819TIP3    H162872   6.554   0.096  14.096 -0.9704  1.6396  0.7002
13819TIP3    H262873   6.529   0.115  14.244  0.9887  2.8686  0.9205
13820TIP3   OH262874   5.676   3.535  14.880 -0.1141 -0.1928  0.1398
13820TIP3    H162875   5.624   3.600  14.834  0.6630  0.1973 -0.2082
13820TIP3    H262876   5.613   3.469  14.909 -0.5239 -1.1012 -2.5251
13821TIP3   OH262877   0.827   2.128   4.556  0.0242 -0.4884  0.4037
13821TIP3    H162878   0.862   2.206   4.598  0.7851 -0.0736 -0.9340
13821TIP3    H262879   0.874   2.055   4.597 -0.1818 -0.1983  1.1610
13822TIP3   OH262880   0.259   0.173  11.622 -0.4237 -0.1570 -0.3280
13822TIP3    H162881   0.267   0.207  11.711 -1.1143  0.2443 -0.4097
13822TIP3    H262882   0.205   0.238  11.576 -0.8889 -0.8344 -0.7714
13823TIP3   OH262883   3.352   6.786   0.136  0.3401 -0.2188  0.5186
13823TIP3    H162884   3.402   6.748   0.209 -0.6980  1.3194  2.0979
13823TIP3    H262885   3.356   6.880   0.150  1.2629  0.2532 -2.2581
13824TIP3   OH262886   2.099   0.661  12.285  0.5053  0.4951 -0.6615
13824TIP3    H162887   2.054   0.738  12.320  1.5565 -0.4277  3.1887
13824TIP3    H262888   2.192   0.676  12.304  0.5334 -2.7555  2.9719
13825TIP3   OH262889   1.585   5.451   0.786  0.2103 -0.8301 -0.1536
13825TIP3    H162890   1.527   5.446   0.862 -0.5484  0.3165 -0.6193
13825TIP3    H262891   1.660   5.395   0.809  0.2714 -0.0827  1.6768
13826TIP3   OH262892   4.060   2.127  11.036  0.4718 -0.0925 -0.3648
13826TIP3    H162893   4.154   2.109  11.035  0.4191 -0.3531 -0.9052
13826TIP3    H262894   4.053   2.220  11.015  0.7807  0.8245  3.0102
13827TIP3   OH262895   4.750   5.447  13.254 -0.7711 -0.2332  0.0137
13827TIP3    H162896   4.750   5.514  13.322  0.2298 -1.9321  1.7851
13827TIP3    H262897   4.779   5.368  13.298 -1.3273 -1.7251 -2.1361
13828TIP3   OH262898   0.056   2.912   0.825  0.2541  0.3449  0.3032
13828TIP3    H162899   0.058   2.981   0.891  0.8352 -0.7622  1.4894
13828TIP3    H262900   0.086   2.833   0.872  1.0679 -0.3919 -1.3809
13829TIP3   OH262901   6.232   6.166  16.057  0.3705  0.2654 -0.0543
13829TIP3    H162902   6.270   6.083  16.028 -0.6334  0.0760 -0.9015
13829TIP3    H262903   6.179   6.196  15.982  1.9066  2.4585 -0.3799
13830TIP3   OH262904   3.110   6.360  16.930 -0.7536  0.2167 -0.1601
13830TIP3    H162905   3.182   6.321  16.881 -1.4640  0.8923 -1.8220
13830TIP3    H262906   3.049   6.391  16.863 -0.8609  2.9662  1.0439
13831TIP3   OH262907   4.352   2.121   4.262  0.4877 -0.6222  0.4737
13831TIP3    H162908   4.339   2.173   4.341 -0.0455  0.1189 -0.0896
13831TIP3    H262909   4.379   2.184   4.196 -0.9639 -0.9213 -0.4396
13832TIP3   OH262910   0.688   3.357  13.534  0.1299 -0.1313  0.1493
13832TIP3    H162911   0.754   3.406  13.485  0.3529  0.9077  1.4386
13832TIP3    H262912   0.667   3.282  13.477 -0.3726  1.5331 -2.0094
13833TIP3   OH262913   5.415   5.974  16.594 -0.5811 -0.4649  0.0901
13833TIP3    H162914   5.486   5.919  16.561 -0.4292 -0.6040  0.6421
13833TIP3    H262915   5.450   6.015  16.673 -0.6857  0.4446 -0.3145
13834TIP3   OH262916   6.051   1.127   1.799  0.2739  0.4281 -0.4687
13834TIP3    H162917   6.129   1.106   1.849  0.5624  0.6723 -0.8100
13834TIP3    H262918   5.979   1.086   1.847  0.5415  0.7084  0.1716
13835TIP3   OH262919   2.336   3.432   0.975 -0.4636 -0.7049  0.3711
13835TIP3    H162920   2.294   3.456   0.892  1.0139 -0.0580 -0.2177
13835TIP3    H262921   2.371   3.344   0.960  1.1491  0.0115 -0.2559
13836TIP3   OH262922   1.215   0.292  16.695 -0.2929 -0.0299 -0.3501
13836TIP3    H162923   1.167   0.308  16.613 -2.4535 -2.4016  0.3143
13836TIP3    H262924   1.165   0.340  16.761  1.0263  1.2878 -0.2714
13837TIP3   OH262925   1.155   3.253   3.296 -0.6343 -0.2993  0.4127
13837TIP3    H162926   1.175   3.328   3.240 -2.1833  0.8719  1.3397
13837TIP3    H262927   1.153   3.289   3.385  2.4430 -2.2332  1.4134
13838TIP3   OH262928   0.509   2.047  11.937 -0.5966 -0.2203  0.4800
13838TIP3    H162929   0.566   2.099  11.880 -0.4169 -0.2101  0.6685
13838TIP3    H262930   0.539   1.957  11.926 -0.8488 -0.2766  0.2241
13839TIP3   OH262931   1.710   5.218  16.303  0.3741  0.6438 -0.4462
13839TIP3    H162932   1.689   5.143  16.247  2.3694  1.2795 -2.1730
13839TIP3    H262933   1.661   5.291  16.265  1.5542  1.0269 -1.2893
13840TIP3   OH262934   2.629   0.990  12.247  0.4852 -0.2361  0.0481
13840TIP3    H162935   2.657   1.042  12.322 -0.0168 -0.4471  0.3916
13840TIP3    H262936   2.666   1.035  12.171  3.0422 -1.3303  0.5371
13841TIP3   OH262937   3.976   4.039   2.749 -0.3666 -0.5525 -0.4003
13841TIP3    H162938   4.068   4.028   2.726  0.3221  1.0385  1.3478
13841TIP3    H262939   3.940   4.093   2.679  0.5135  0.3338 -0.1891
13842TIP3   OH262940   5.565   1.732   4.281  0.5238  0.4544 -0.2309
13842TIP3    H162941   5.536   1.653   4.327  0.7486  0.7887  0.5152
13842TIP3    H262942   5.646   1.706   4.237  0.9475  0.4153  0.5386
13843TIP3   OH262943   0.700   0.104  12.037 -0.9812  0.2858 -0.0875
13843TIP3    H162944   0.708   0.107  12.133 -0.3647  0.6706 -0.1482
13843TIP3    H262945   0.611   0.133  12.020 -0.6213  1.6964  0.2999
13844TIP3   OH262946   3.371   3.542   2.964  0.2878  0.0018  0.4797
13844TIP3    H162947   3.392   3.633   2.985  0.9739  0.5067 -2.0744
13844TIP3    H262948   3.428   3.521   2.890 -1.3651 -1.7928 -0.3744
13845TIP3   OH262949   0.182   1.354   2.903  0.1442  0.4334 -0.4353
13845TIP3    H162950   0.143   1.368   2.989 -1.4442 -0.4407 -0.9698
13845TIP3    H262951   0.233   1.433   2.887 -1.0129  1.4254  0.5310
13846TIP3   OH262952   6.152   0.924   2.096 -0.3236  0.2123 -0.5337
13846TIP3    H162953   6.200   0.855   2.049 -0.9721 -1.4751  1.1436
13846TIP3    H262954   6.060   0.904   2.080 -0.5281  1.5214 -1.1026
13847TIP3   OH262955   2.344   5.586  11.311  0.5378 -0.1757  0.5049
13847TIP3    H162956   2.302   5.512  11.355  1.2868 -0.0775  1.3928
13847TIP3    H262957   2.362   5.553  11.223 -1.1703 -0.3020  0.1503
13848TIP3   OH262958   2.843   4.125   2.692 -0.2027  0.1873  0.2245
13848TIP3    H162959   2.761   4.082   2.669 -0.1659  0.3267 -0.1591
13848TIP3    H262960   2.850   4.112   2.787 -2.1399  2.7470  0.8108
13849TIP3   OH262961   6.113   1.761  11.795 -0.5765 -0.4551  0.0743
13849TIP3    H162962   6.191   1.806  11.826  1.2878 -2.7739 -0.9024
13849TIP3    H262963   6.111   1.679  11.844 -1.3709 -1.2071 -1.1433
13850TIP3   OH262964   6.517   3.699   0.611 -0.0618 -0.4561 -0.2738
13850TIP3    H162965   6.550   3.747   0.687  1.1721 -2.0482  0.2583
13850TIP3    H262966   6.570   3.730   0.538  0.3227 -0.5503 -0.0422
13851TIP3   OH262967   2.328   5.301   3.696 -0.0110 -0.4286 -0.3475
13851TIP3    H162968   2.274   5.351   3.634 -0.2297 -0.1377  0.0728
13851TIP3    H262969   2.276   5.223   3.715  1.0890 -1.7503 -2.3768
13852TIP3   OH262970   3.638   0.833   5.467  0.4100 -0.0150 -0.5671
13852TIP3    H162971   3.607   0.746   5.493 -0.5391  0.1352 -1.1338
13852TIP3    H262972   3.652   0.879   5.549 -1.0600 -0.0447 -0.2734
13853TIP3   OH262973   0.034   1.667   2.181 -0.0214 -0.0239  0.2821
13853TIP3    H162974   0.112   1.623   2.215  0.4767 -0.4957 -1.3691
13853TIP3    H262975   0.003   1.609   2.111 -1.3268  0.6146  0.3110
13854TIP3   OH262976   0.752   0.517  12.461  0.0328  0.3785  0.0228
13854TIP3    H162977   0.757   0.445  12.524  1.5576  0.5950  0.1917
13854TIP3    H262978   0.668   0.505  12.418 -0.4362 -0.5857  1.1347
13855TIP3   OH262979   1.220   5.355   4.513 -0.3885 -0.1327 -0.2216
13855TIP3    H162980   1.128   5.339   4.533 -0.7937  1.1306 -0.9911
13855TIP3    H262981   1.221   5.438   4.466  1.0103 -0.7365 -1.3513
13856TIP3   OH262982   4.985   6.630  14.161 -1.0019 -0.3350  0.3289
13856TIP3    H162983   4.945   6.564  14.105 -1.3225 -0.3443  0.5695
13856TIP3    H262984   5.079   6.619  14.147 -1.0863  0.1098 -0.7167
13857TIP3   OH262985   5.608   5.528  16.264  0.1497  0.2378  0.2467
13857TIP3    H162986   5.627   5.471  16.190  0.6109 -1.4262  1.5773
13857TIP3    H262987   5.523   5.567  16.243 -1.9364 -3.6223  0.7161
13858TIP3   OH262988   5.941   6.037   2.453  0.5058 -0.0578  0.2106
13858TIP3    H162989   5.887   5.974   2.501  0.1426  0.6611  0.7638
13858TIP3    H262990   5.896   6.121   2.465  1.2843  0.4052 -0.0394
13859TIP3   OH262991   5.564   3.011   3.831 -0.1254  0.4774  0.0063
13859TIP3    H162992   5.530   3.047   3.750  1.1344  0.2235 -0.6555
13859TIP3    H262993   5.486   2.990   3.883 -0.9863 -0.4191 -1.5933
13860TIP3   OH262994   2.989   2.536   0.457  0.0676 -0.1528  0.0341
13860TIP3    H162995   3.032   2.573   0.379 -1.9488  0.3313 -0.9236
13860TIP3    H262996   3.031   2.451   0.469  0.6169 -0.1359 -1.4601
13861TIP3   OH262997   0.331   0.210  14.980 -0.2012  0.0452  0.0842
13861TIP3    H162998   0.423   0.185  14.991 -0.3618  0.1378  1.8171
13861TIP3    H262999   0.321   0.220  14.885  0.9357 -2.3323 -0.3636
13862TIP3   OH263000   3.758   1.340   0.574 -0.6715 -0.2314 -0.4287
13862TIP3    H163001   3.706   1.411   0.537  0.9350  1.9037  1.1291
13862TIP3    H263002   3.837   1.383   0.608  0.0282 -2.6413  1.3022
13863TIP3   OH263003   5.527   1.100   6.002  0.0598 -0.0078  0.0153
13863TIP3    H163004   5.537   1.060   6.089  0.6540  0.8145  0.3412
13863TIP3    H263005   5.607   1.152   5.991 -0.1173  0.0764 -0.9358
13864TIP3   OH263006   4.893   3.536  12.243  0.2043  0.1912 -0.1706
13864TIP3    H163007   4.867   3.626  12.262 -2.4613 -0.4434 -0.4062
13864TIP3    H263008   4.945   3.541  12.163  0.3832  1.5368  0.0176
13865TIP3   OH263009   3.108   3.918  15.522  0.1055  0.1229 -0.3853
13865TIP3    H163010   3.202   3.924  15.541 -0.0223 -0.6332  0.5779
13865TIP3    H263011   3.066   3.918  15.608 -0.8597  1.4530 -0.8333
13866TIP3   OH263012   4.352   4.875  15.935  0.1184 -0.0937  0.4566
13866TIP3    H163013   4.332   4.869  16.028 -1.7043 -0.7096  0.0750
13866TIP3    H263014   4.359   4.784  15.906  1.8037  0.0887  0.1734
13867TIP3   OH263015   0.550   4.520   4.995  0.3936 -0.4945  0.0681
13867TIP3    H163016   0.490   4.564   5.056 -1.9971 -1.2077 -1.6111
13867TIP3    H263017   0.584   4.591   4.940 -0.8781 -0.3369 -0.5399
13868TIP3   OH263018   6.277   5.759   2.411 -0.6985 -0.1662  0.2580
13868TIP3    H163019   6.367   5.728   2.411  0.0674  1.7686 -1.5527
13868TIP3    H263020   6.241   5.730   2.327 -0.7699  1.5238 -0.3346
13869TIP3   OH263021   1.188   0.067  15.925 -0.0227  0.0194 -0.2678
13869TIP3    H163022   1.216   0.045  15.837  1.3462 -0.0070  0.1560
13869TIP3    H263023   1.101   0.029  15.933  0.7247 -1.9033 -0.8578
13870TIP3   OH263024   3.666   2.396   0.580  0.2214  0.2573 -0.2965
13870TIP3    H163025   3.609   2.331   0.540 -1.4636  1.3989  0.1474
13870TIP3    H263026   3.755   2.366   0.560 -0.5234 -1.3541 -1.3604
13871TIP3   OH263027   3.985   4.610  11.097 -0.5457  0.5019  0.3289
13871TIP3    H163028   4.061   4.555  11.078 -0.0098  2.0542 -2.6179
13871TIP3    H263029   3.910   4.561  11.062 -0.5898  0.0264  1.0776
13872TIP3   OH263030   3.081   0.272  16.762 -0.2188 -0.0885  0.0814
13872TIP3    H163031   3.008   0.237  16.814 -1.1191  0.5613 -0.7070
13872TIP3    H263032   3.137   0.316  16.826  1.0444 -3.0126  1.1290
13873TIP3   OH263033   0.139   4.727  14.035 -0.1499  0.2052  0.5182
13873TIP3    H163034   0.153   4.711  13.942  2.0620  0.5825  0.7483
13873TIP3    H263035   0.074   4.797  14.037  0.4723  0.8569 -0.7858
13874TIP3   OH263036   5.488   0.811   0.969 -0.4212  0.3434  0.2277
13874TIP3    H163037   5.459   0.902   0.981  1.6652  1.7193 -3.5134
13874TIP3    H263038   5.410   0.765   0.939 -1.1895  1.2345  0.7817
13875TIP3   OH263039   5.777   4.192   4.777 -0.3863  0.4905 -0.0475
13875TIP3    H163040   5.852   4.224   4.828 -1.7108  0.7592  1.8585
13875TIP3    H263041   5.703   4.244   4.808 -1.3194  0.5529 -2.2157
13876TIP3   OH263042   2.747   3.758   5.290  0.0978 -0.1649  0.1866
13876TIP3    H163043   2.823   3.763   5.231 -1.2217 -3.3613 -2.0630
13876TIP3    H263044   2.784   3.733   5.375  1.6933  0.4088 -0.2932
13877TIP3   OH263045   4.502   0.696   4.619 -0.1048 -0.2170  0.4590
13877TIP3    H163046   4.410   0.673   4.617 -0.6818  1.9561 -0.0264
13877TIP3    H263047   4.515   0.738   4.705 -0.3894  2.3473 -0.6533
13878TIP3   OH263048   5.528   5.258  10.433 -0.2153 -0.5084  0.4984
13878TIP3    H163049   5.571   5.341  10.450  1.7870 -0.7508 -2.5482
13878TIP3    H263050   5.571   5.196  10.493  0.6627  0.0515  0.4656
13879TIP3   OH263051   0.484   2.329   5.375  0.0724  0.2927  0.0149
13879TIP3    H163052   0.496   2.374   5.291 -0.8500 -0.1089 -0.3530
13879TIP3    H263053   0.415   2.380   5.419 -0.3631 -0.2455 -0.0354
13880TIP3   OH263054   6.427   0.715  13.063 -0.2841 -0.4392 -0.0303
13880TIP3    H163055   6.380   0.778  13.008 -0.4301  0.2806  0.9096
13880TIP3    H263056   6.382   0.632  13.047 -0.4894 -0.1879 -0.7965
13881TIP3   OH263057   5.712   5.819  13.017 -0.6438  0.5043  0.4029
13881TIP3    H163058   5.732   5.895  13.072 -1.7027  2.0041 -1.1865
13881TIP3    H263059   5.744   5.843  12.930 -0.3298 -1.2037  0.0076
13882TIP3   OH263060   1.582   0.266  14.466 -0.0488 -0.1360 -0.1840
13882TIP3    H163061   1.612   0.187  14.513  2.2184  0.8520  0.1762
13882TIP3    H263062   1.599   0.247  14.374  0.5184 -0.0917 -0.0951
13883TIP3   OH263063   1.833   2.808   3.359 -0.0196 -0.6153 -0.4040
13883TIP3    H163064   1.908   2.866   3.347 -0.7483  0.4730  0.1003
13883TIP3    H263065   1.783   2.816   3.277 -0.5327  0.1092 -0.0304
13884TIP3   OH263066   4.367   3.602  16.735  0.1957 -0.3178  0.2779
13884TIP3    H163067   4.442   3.547  16.759  0.4987 -0.6066 -1.2395
13884TIP3    H263068   4.396   3.651  16.658 -0.4221  1.2584  1.0119
13885TIP3   OH263069   2.869   6.586  12.623 -0.2185 -0.3444 -0.2959
13885TIP3    H163070   2.913   6.522  12.678  0.2275  0.9116  0.8643
13885TIP3    H263071   2.825   6.645  12.684 -1.4803 -0.1161 -1.3578
13886TIP3   OH263072   2.909   3.467  15.661  0.4570  0.1394 -0.1622
13886TIP3    H163073   2.892   3.554  15.624 -0.2179 -0.0505 -0.3102
13886TIP3    H263074   3.003   3.453  15.647  0.1722 -0.0270 -2.0078
13887TIP3   OH263075   3.711   6.105   3.871  0.0312 -0.1245  0.2691
13887TIP3    H163076   3.784   6.084   3.814  1.3059  3.2723  0.4299
13887TIP3    H263077   3.742   6.086   3.959 -1.3763 -3.8586  0.1191
13888TIP3   OH263078   5.946   3.799   0.177  0.4660  0.1842 -0.1269
13888TIP3    H163079   5.859   3.765   0.158  0.0338  1.0938  0.1378
13888TIP3    H263080   5.953   3.880   0.126  0.3347  1.2118  1.4160
13889TIP3   OH263081   0.191   6.076  14.667  0.4149 -0.2529  0.3185
13889TIP3    H163082   0.125   6.054  14.733  1.5068 -2.1020  0.8686
13889TIP3    H263083   0.238   6.151  14.703 -1.7851  1.5960 -0.4178
13890TIP3   OH263084   1.949   2.895   5.823  0.5216  0.7961  0.4883
13890TIP3    H163085   1.976   2.937   5.905 -1.5717  0.9449  1.1529
13890TIP3    H263086   1.906   2.814   5.850 -0.0927  0.7818 -0.4843
13891TIP3   OH263087   6.628   2.215  12.240 -0.2286  0.3261 -0.4688
13891TIP3    H163088   6.561   2.182  12.300  1.5280  0.4167  1.6772
13891TIP3    H263089   6.700   2.242  12.297  2.1267 -0.8316 -2.6723
13892TIP3   OH263090   3.172   5.332   0.558 -0.1100 -0.9102 -0.1054
13892TIP3    H163091   3.090   5.306   0.516 -1.3410  1.1690  0.8465
13892TIP3    H263092   3.196   5.414   0.514  1.6635 -1.6514 -0.5918
13893TIP3   OH263093   1.821   5.523  13.991 -0.1225 -0.1823 -0.2166
13893TIP3    H163094   1.839   5.617  13.995  0.4586 -0.2922 -0.0773
13893TIP3    H263095   1.792   5.501  14.080 -1.1331  0.0238 -0.4800
13894TIP3   OH263096   2.091   2.706  11.331 -0.1769  0.1319 -0.2915
13894TIP3    H163097   2.073   2.681  11.422  0.3860  1.3701  0.1714
13894TIP3    H263098   2.004   2.708  11.290 -0.3493 -1.5474 -0.1129
13895TIP3   OH263099   5.155   0.658   1.808 -0.6021  0.0197 -0.4982
13895TIP3    H163100   5.142   0.700   1.723  0.9594  0.5536 -0.5122
13895TIP3    H263101   5.245   0.625   1.805 -0.7344 -0.5160  0.7182
13896TIP3   OH263102   6.107   5.408  16.300 -0.0862  0.1514 -0.2936
13896TIP3    H163103   6.043   5.397  16.231 -0.1325  1.1103 -0.4164
13896TIP3    H263104   6.168   5.335  16.289 -0.6169 -0.2212 -0.7643
13897TIP3   OH263105   4.778   5.202   1.912  0.1194  0.4789  0.2443
13897TIP3    H163106   4.755   5.223   2.003  1.7916 -0.3228  0.9068
13897TIP3    H263107   4.860   5.249   1.897 -0.2557  0.7864 -0.9457
13898TIP3   OH263108   3.617   3.602  13.858  0.0944  0.0298  0.5446
13898TIP3    H163109   3.690   3.620  13.917  1.7094 -0.6233 -1.1952
13898TIP3    H263110   3.648   3.532  13.801 -1.9171 -0.3126 -0.2143
13899TIP3   OH263111   2.654   5.590   1.671  0.5004 -0.6073  0.3660
13899TIP3    H163112   2.621   5.613   1.584  1.4027 -0.0481  0.1556
13899TIP3    H263113   2.581   5.610   1.730 -0.8197 -2.8103 -0.4307
13900TIP3   OH263114   4.899   4.016  14.773 -0.7448 -0.1989 -0.2305
13900TIP3    H163115   4.871   4.106  14.794 -1.1910  0.1019 -1.9188
13900TIP3    H263116   4.948   3.987  14.850  1.2847  2.2764 -0.4535
13901TIP3   OH263117   5.988   1.174   4.209 -1.1151  0.7604  0.1827
13901TIP3    H163118   5.997   1.110   4.280  1.2404  1.2615  0.4293
13901TIP3    H263119   5.994   1.122   4.129  1.7753  0.6142  0.3640
13902TIP3   OH263120   6.370   1.846  11.891 -0.0703  0.5027  0.0881
13902TIP3    H163121   6.442   1.902  11.919  0.7042 -1.2718  1.8324
13902TIP3    H263122   6.404   1.757  11.896 -1.7400 -0.2646 -1.1021
13903TIP3   OH263123   5.951   6.353  12.450 -0.2291 -0.4061 -0.4456
13903TIP3    H163124   5.869   6.370  12.404  0.5757 -0.4363 -1.9330
13903TIP3    H263125   5.971   6.435  12.495 -1.2229 -0.4987  0.2053
13904TIP3   OH263126   1.724   3.628   2.056  0.1588 -0.0377 -0.2746
13904TIP3    H163127   1.702   3.711   2.098  1.0484 -0.3760  0.9328
13904TIP3    H263128   1.820   3.630   2.051  0.1822 -0.9774 -0.2355
13905TIP3   OH263129   4.808   2.260   1.742  0.1716  0.4085 -0.5851
13905TIP3    H163130   4.797   2.291   1.652  0.4811 -0.6988 -1.0165
13905TIP3    H263131   4.774   2.332   1.796  0.8116  1.4671 -1.5427
13906TIP3   OH263132   5.486   5.746   0.127 -0.0189  0.2402 -0.2479
13906TIP3    H163133   5.577   5.735   0.153  0.1632  1.6850 -0.2182
13906TIP3    H263134   5.438   5.683   0.181  0.9761 -0.7879 -0.5093
13907TIP3   OH263135   5.096   4.621  13.574 -0.5399  0.4684 -0.2571
13907TIP3    H163136   5.135   4.634  13.660  0.1928  1.0771 -0.6755
13907TIP3    H263137   5.002   4.613  13.592 -0.5075  1.5825  0.4974
13908TIP3   OH263138   3.565   0.405   0.015 -0.8162  0.2048  0.0199
13908TIP3    H163139   3.549   0.497  -0.006 -0.4654  0.4937  0.9526
13908TIP3    H263140   3.570   0.361  -0.070 -0.4053  1.1498 -0.4573
13909TIP3   OH263141   5.433   5.677   3.866 -0.2863  0.1839  0.1416
13909TIP3    H163142   5.374   5.703   3.936 -0.4575  0.0165  0.0618
13909TIP3    H263143   5.386   5.607   3.820  0.1524 -0.2376  0.3350
13910TIP3   OH263144   6.408   5.817  16.506 -0.6566 -0.1841 -0.1368
13910TIP3    H163145   6.340   5.790  16.568  0.4410 -0.3107  1.0663
13910TIP3    H263146   6.413   5.912  16.516 -0.4126 -0.2153  0.0516
13911TIP3   OH263147   0.754   0.094   0.612  0.2249 -0.1030 -0.1611
13911TIP3    H163148   0.762   0.004   0.582  1.1543  0.3698 -1.4276
13911TIP3    H263149   0.676   0.094   0.668 -0.5408 -1.4198 -1.1670
13912TIP3   OH263150   2.938   4.563   1.590  0.0719 -0.1427  0.3706
13912TIP3    H163151   2.940   4.590   1.498  2.0198 -0.0768  0.4051
13912TIP3    H263152   2.921   4.469   1.587  0.4975 -0.2086 -0.0832
13913TIP3   OH263153   6.041   6.168  14.035 -0.3344 -0.1024 -0.0014
13913TIP3    H163154   5.961   6.181  14.085 -0.4347 -0.7256  0.0149
13913TIP3    H263155   6.068   6.078  14.056 -0.3121 -0.3356 -0.9682
13914TIP3   OH263156   1.704   4.105   6.116  0.8982  0.2197  0.2815
13914TIP3    H163157   1.693   4.024   6.066  0.2029 -1.0605  2.3497
13914TIP3    H263158   1.792   4.098   6.153  1.2119  0.8974 -0.3337
13915TIP3   OH263159   5.949   1.302   4.772  0.7199  0.4732  0.0458
13915TIP3    H163160   5.908   1.365   4.713 -1.8614 -1.8836 -0.9044
13915TIP3    H263161   5.966   1.351   4.852  1.8145  3.0912 -1.6490
13916TIP3   OH263162   6.268   6.532   0.301 -0.0421 -0.0162  0.4555
13916TIP3    H163163   6.290   6.608   0.355 -1.0385 -0.2746  1.2484
13916TIP3    H263164   6.332   6.465   0.325 -1.9604 -1.0255  3.3016
13917TIP3   OH263165   5.513   4.915  16.952 -0.1996 -0.1420 -0.3279
13917TIP3    H163166   5.459   4.916  17.031  0.1797 -0.3868 -0.0565
13917TIP3    H263167   5.539   5.006  16.939 -0.3686 -0.0824 -0.2405
13918TIP3   OH263168   1.136   1.122   2.807  0.0664  0.0096 -0.3953
13918TIP3    H163169   1.059   1.163   2.769 -1.0076 -0.5520  1.0840
13918TIP3    H263170   1.165   1.183   2.876  1.1733  0.3820 -1.1616
13919TIP3   OH263171   3.037   1.889  11.309  0.0865  0.1156  0.3112
13919TIP3    H163172   3.029   1.918  11.218 -0.1690 -0.8082  0.0276
13919TIP3    H263173   3.118   1.838  11.311  0.3991  0.6190  0.7430
13920TIP3   OH263174   5.933   5.289   1.789  0.4561 -0.3173 -0.1639
13920TIP3    H163175   5.881   5.220   1.830 -1.0259 -0.1825 -1.6906
13920TIP3    H263176   5.894   5.371   1.821  0.7349 -0.2001 -0.1216
13921TIP3   OH263177   4.058   2.235  12.350  0.4546 -0.2413 -0.2086
13921TIP3    H163178   4.085   2.188  12.271  1.4015 -0.4601  0.2334
13921TIP3    H263179   4.072   2.173  12.421 -1.3352 -0.4011  0.0477
13922TIP3   OH263180   3.756   2.092  13.937 -0.1743  0.6519 -0.2316
13922TIP3    H163181   3.839   2.119  13.976  0.0568  0.4786 -0.5963
13922TIP3    H263182   3.741   2.004  13.969  0.8981 -0.1845 -1.8803
13923TIP3   OH263183   4.278   0.475  15.738  0.5763  0.2616  0.1082
13923TIP3    H163184   4.237   0.511  15.817  0.5250 -0.7160  0.5441
13923TIP3    H263185   4.245   0.529  15.667 -0.7312  0.0888  0.5534
13924TIP3   OH263186   0.522   5.451   1.700  0.1806  0.8442  0.3867
13924TIP3    H163187   0.556   5.389   1.764 -0.1216  1.4503  1.1442
13924TIP3    H263188   0.600   5.490   1.661  0.3639  0.4152  0.3160
13925TIP3   OH263189   3.897   4.407  13.883  0.2616  0.0267  0.1556
13925TIP3    H163190   3.851   4.324  13.870 -0.6131  0.5540 -0.1739
13925TIP3    H263191   3.855   4.446  13.959  0.6973  0.1572  0.3323
13926TIP3   OH263192   0.584   5.587  15.756  0.7007  0.0380  0.2657
13926TIP3    H163193   0.647   5.528  15.797 -0.9227 -1.5430  0.6394
13926TIP3    H263194   0.610   5.674  15.784  1.9860 -0.6687  1.3814
13927TIP3   OH263195   6.050   4.830   3.684  0.4796  0.9357 -0.1786
13927TIP3    H163196   5.958   4.838   3.710 -0.7371 -1.5085 -3.2404
13927TIP3    H263197   6.073   4.918   3.655 -1.2135  1.3866 -0.3072
13928TIP3   OH263198   0.479   5.145   0.308  0.1811  0.0992  0.3578
13928TIP3    H163199   0.388   5.117   0.298  0.5091 -0.9406  0.1167
13928TIP3    H263200   0.492   5.151   0.403  0.0974 -0.6002  0.4198
13929TIP3   OH263201   5.602   0.309   1.803  0.2228 -0.2025 -0.0120
13929TIP3    H163202   5.627   0.283   1.892  0.0474 -1.0378 -0.2035
13929TIP3    H263203   5.507   0.302   1.801  0.1030  1.1379  0.1368
13930TIP3   OH263204   6.451   6.473   5.487  0.5679  0.2735 -0.2248
13930TIP3    H163205   6.380   6.532   5.510 -0.5958 -1.1481 -0.0695
13930TIP3    H263206   6.522   6.531   5.459 -1.2326  1.7066 -2.1563
13931TIP3   OH263207   1.515   1.511  16.670 -0.0639 -0.3837  0.2773
13931TIP3    H163208   1.472   1.595  16.684  0.7934  0.3148 -1.0678
13931TIP3    H263209   1.501   1.491  16.578  0.3616 -1.3621  0.4012
13932TIP3   OH263210   3.074   4.350   1.243 -0.2886  0.2973  0.0511
13932TIP3    H163211   3.138   4.398   1.189 -0.9512  0.5347 -0.5335
13932TIP3    H263212   3.107   4.260   1.245  1.4791  0.8802  1.9085
13933TIP3   OH263213   3.048   0.291  15.660  0.6811  0.0443 -0.5709
13933TIP3    H163214   2.964   0.319  15.625  1.4646 -0.2861 -2.8203
13933TIP3    H263215   3.063   0.350  15.734 -1.6555 -0.1200  0.1205
13934TIP3   OH263216   3.683   4.334  12.340  0.5421 -0.0339  0.6531
13934TIP3    H163217   3.647   4.417  12.370  0.2842 -0.3598  1.2891
13934TIP3    H263218   3.718   4.352  12.253 -1.4524  0.2138 -0.1391
13935TIP3   OH263219   0.769   1.010   6.320  0.0466  0.0261 -0.4338
13935TIP3    H163220   0.717   1.074   6.272  0.7291  0.0736 -1.1299
13935TIP3    H263221   0.859   1.041   6.311  0.5374 -1.6170 -1.7560
13936TIP3   OH263222   2.779   3.692   4.766 -0.3245  0.2183  0.0742
13936TIP3    H163223   2.731   3.633   4.824 -0.2292  0.2615  0.1963
13936TIP3    H263224   2.722   3.769   4.759 -0.4539  0.1096 -0.0937
13937TIP3   OH263225   2.268   5.456   5.879 -0.1537 -0.1844 -0.1077
13937TIP3    H163226   2.317   5.393   5.932 -0.1141  0.2712  0.4017
13937TIP3    H263227   2.290   5.433   5.789  0.9233 -0.0527  0.1134
13938TIP3   OH263228   5.373   2.137  14.791  0.4336 -0.0569 -0.0827
13938TIP3    H163229   5.315   2.075  14.834 -0.3060  0.7291  0.0782
13938TIP3    H263230   5.423   2.084  14.728  0.2688 -0.9054  0.4920
13939TIP3   OH263231   3.230   0.677  14.158 -0.5096  0.4954 -0.1867
13939TIP3    H163232   3.137   0.697  14.156 -0.7955 -0.8526 -1.1778
13939TIP3    H263233   3.254   0.659  14.067  1.5095  4.0336 -0.5458
13940TIP3   OH263234   1.036   3.702  11.247 -0.6997  0.1670 -0.4947
13940TIP3    H163235   1.128   3.690  11.222 -0.6704  2.1495 -1.5246
13940TIP3    H263236   0.992   3.726  11.165 -1.7738  0.9777  0.2921
13941TIP3   OH263237   0.421   0.956   2.564 -0.3814 -0.4632  0.4209
13941TIP3    H163238   0.503   1.006   2.563 -0.0365 -1.0185  0.6911
13941TIP3    H263239   0.435   0.888   2.629 -0.9302 -0.7811  0.2114
13942TIP3   OH263240   3.840   2.930   0.860  0.5385 -0.6982  0.0628
13942TIP3    H163241   3.763   2.885   0.825  0.0838  0.1607 -0.0600
13942TIP3    H263242   3.858   3.000   0.797  1.3502 -0.8146  0.1504
13943TIP3   OH263243   4.851   2.222  11.471 -0.6921 -0.3372 -0.2055
13943TIP3    H163244   4.892   2.257  11.550 -0.8994 -2.4010  0.8857
13943TIP3    H263245   4.903   2.258  11.399  3.3835 -2.9854  1.0770
13944TIP3   OH263246   4.643   4.195   4.455  0.0591  0.0402  0.4549
13944TIP3    H163247   4.553   4.192   4.488 -0.4128 -0.9076 -0.8233
13944TIP3    H263248   4.633   4.213   4.361  1.1578 -0.9910  0.1221
13945TIP3   OH263249   3.546   2.827  13.018  0.6152 -0.0627 -0.0789
13945TIP3    H163250   3.499   2.803  12.938  0.3998  0.4062 -0.0922
13945TIP3    H263251   3.622   2.876  12.988  2.2019 -2.4013 -0.2013
13946TIP3   OH263252   5.497   4.818  16.442 -0.1465  0.2333 -0.5190
13946TIP3    H163253   5.469   4.817  16.351  2.3222 -0.6541 -1.3381
13946TIP3    H263254   5.424   4.778  16.490 -1.0735 -0.2115 -2.2093
13947TIP3   OH263255   5.959   2.208   3.593  0.3818 -0.0443  0.3726
13947TIP3    H163256   6.021   2.175   3.528 -1.1195  0.5814 -1.4659
13947TIP3    H263257   6.008   2.275   3.640  1.8248 -1.2189  0.6285
13948TIP3   OH263258   6.112   5.934  13.288 -0.2030  0.2014 -0.0166
13948TIP3    H163259   6.092   5.966  13.200  2.5674 -1.2466 -1.2951
13948TIP3    H263260   6.038   5.878  13.310  0.2469 -1.6662 -2.7033
13949TIP3   OH263261   6.097   4.705   5.270 -0.5336  0.1298  1.0034
13949TIP3    H163262   6.107   4.698   5.365 -0.4824  0.4435  1.0222
13949TIP3    H263263   6.041   4.781   5.257 -1.1843 -0.3799  0.8123
13950TIP3   OH263264   1.310   0.190   2.550 -0.1539 -0.8347 -1.0547
13950TIP3    H163265   1.231   0.140   2.569 -1.3470  1.3320 -0.0376
13950TIP3    H263266   1.303   0.213   2.457 -1.3168  0.2680 -0.7205
13951TIP3   OH263267   0.556   4.964   4.779 -0.0890  0.3925 -0.1792
13951TIP3    H163268   0.558   5.002   4.691 -0.3446  2.2268  0.5502
13951TIP3    H263269   0.523   5.035   4.834  1.4332 -0.2185  1.6134
13952TIP3   OH263270   5.176   2.140   4.842 -0.3464  0.2596  0.1707
13952TIP3    H163271   5.175   2.231   4.870  0.6505 -0.0052  1.1687
13952TIP3    H263272   5.172   2.143   4.746  0.1920  1.3769  0.1728
13953TIP3   OH263273   0.298   3.120  10.917 -0.6637 -0.1189  0.5353
13953TIP3    H163274   0.236   3.166  10.861  0.3851 -0.3658 -0.8720
13953TIP3    H263275   0.309   3.179  10.992  0.6577  2.0476 -1.2190
13954TIP3   OH263276   1.863   5.688  14.353 -0.1327  0.3638 -0.1323
13954TIP3    H163277   1.807   5.643  14.290  0.0271 -0.7295  0.4772
13954TIP3    H263278   1.842   5.647  14.437  1.0241  0.4489  0.2246
13955TIP3   OH263279   0.592   3.813  13.136 -0.2413 -0.5788  0.1730
13955TIP3    H163280   0.685   3.796  13.148  0.0460  0.5220 -0.4066
13955TIP3    H263281   0.582   3.907  13.150 -1.4140 -0.8155  1.0552
13956TIP3   OH263282   5.448   5.529  10.568  0.6442  0.3431 -0.1348
13956TIP3    H163283   5.446   5.615  10.609  0.1391  0.2065  0.1356
13956TIP3    H263284   5.541   5.506  10.564  0.6926  0.2332  1.1984
13957TIP3   OH263285   5.546   2.098   3.147  0.2970 -0.4395  0.2944
13957TIP3    H163286   5.632   2.118   3.183  1.0316 -1.9493 -0.5174
13957TIP3    H263287   5.505   2.041   3.213 -0.1104  0.3103  0.6990
13958TIP3   OH263288   3.370   2.986   4.120  0.6315  0.4826  0.2709
13958TIP3    H163289   3.406   3.019   4.038  1.2595 -0.7896  0.0136
13958TIP3    H263290   3.374   2.891   4.112  0.5192  0.3290  1.7070
13959TIP3   OH263291   5.839   3.479   0.936  0.0181 -0.1973  0.0829
13959TIP3    H163292   5.754   3.435   0.938 -1.0131  1.7179 -0.2114
13959TIP3    H263293   5.849   3.516   1.024  0.4056 -0.1030  0.0024
13960TIP3   OH263294   6.547   3.937   2.481  0.1005  0.6054 -0.4224
13960TIP3    H163295   6.611   3.886   2.530 -1.6690 -1.2229  0.1545
13960TIP3    H263296   6.531   3.885   2.402 -1.1709  0.6471 -0.2099
13961TIP3   OH263297   0.142   4.356  13.928  0.1817 -0.4108 -0.3095
13961TIP3    H163298   0.094   4.339  13.847  0.2533  0.8503 -0.6304
13961TIP3    H263299   0.227   4.388  13.900  0.9339 -1.8354  0.2686
13962TIP3   OH263300   1.409   0.408  12.371 -0.0717  0.1472  0.2214
13962TIP3    H163301   1.420   0.352  12.447 -1.7726  0.2567  0.5893
13962TIP3    H263302   1.327   0.379  12.331  0.4576  0.5188 -1.1981
13963TIP3   OH263303   4.204   3.276   1.037  0.6692  0.1036  0.3408
13963TIP3    H163304   4.211   3.251   0.945 -1.4944  0.7474 -0.0366
13963TIP3    H263305   4.260   3.212   1.083 -0.2736 -1.9021 -1.1521
13964TIP3   OH263306   3.966   4.490   3.123 -0.3677  0.0573 -0.1065
13964TIP3    H163307   3.974   4.581   3.154  1.3416 -0.6741  1.8397
13964TIP3    H263308   3.962   4.438   3.204 -2.6256 -1.5591 -1.1594
13965TIP3   OH263309   5.443   5.394  13.147 -0.2171  0.2269 -0.1906
13965TIP3    H163310   5.430   5.311  13.103 -0.0915  0.2771 -0.3225
13965TIP3    H263311   5.447   5.459  13.077  1.8207  0.0943 -0.2622
13966TIP3   OH263312   4.087   3.316  13.210 -0.2937 -0.2196  0.1160
13966TIP3    H163313   4.149   3.314  13.284 -0.2869 -1.7196  0.0884
13966TIP3    H263314   4.001   3.322  13.252 -0.1792  1.8789  0.1554
13967TIP3   OH263315   1.643   6.702   1.809  0.2332  0.2115  0.0762
13967TIP3    H163316   1.635   6.740   1.896  1.6236  1.3011 -0.2382
13967TIP3    H263317   1.584   6.626   1.810 -1.3719  1.3977  1.2628
13968TIP3   OH263318   3.266   5.333  11.924 -0.1309 -0.3161 -0.6797
13968TIP3    H163319   3.302   5.348  12.012 -0.2532  1.0127 -0.8314
13968TIP3    H263320   3.196   5.269  11.937  0.6314 -1.0470 -0.0042
13969TIP3   OH263321   1.027   3.124  12.253 -0.0439 -0.5719  0.1519
13969TIP3    H163322   1.106   3.086  12.294 -0.0941 -1.4366 -0.5164
13969TIP3    H263323   0.957   3.102  12.314  0.3855  1.2828  1.3758
13970TIP3   OH263324   1.361   6.567  11.748  0.3534 -0.0389  0.0028
13970TIP3    H163325   1.327   6.639  11.801  0.3444  1.3255 -1.7722
13970TIP3    H263326   1.456   6.577  11.753  0.5203 -1.8286  2.2265
13971TIP3   OH263327   6.611   0.438  16.184 -0.6105  1.2514 -0.3247
13971TIP3    H163328   6.626   0.344  16.176 -0.8968  1.0971  0.7324
13971TIP3    H263329   6.658   0.477  16.110  0.8546  0.4009  0.1188
13972TIP3   OH263330   0.243   0.698  12.023  0.1532  0.3232  0.1058
13972TIP3    H163331   0.321   0.711  12.078  0.7170  1.2255 -0.8691
13972TIP3    H263332   0.278   0.687  11.935 -0.8574  1.2665 -0.4285
13973TIP3   OH263333   0.046   3.403   0.182 -0.3630 -0.2593 -0.3558
13973TIP3    H163334   0.067   3.318   0.223 -0.1053  0.8811  2.0678
13973TIP3    H263335   0.123   3.423   0.129  0.4727 -0.6522  0.6605
13974TIP3   OH263336   5.913   5.155   3.861  0.9503 -0.9230  0.3123
13974TIP3    H163337   5.847   5.086   3.849  1.0164 -0.9353 -0.0166
13974TIP3    H263338   5.954   5.163   3.774 -0.0560  0.5618 -0.0662
13975TIP3   OH263339   3.285   0.548   2.746 -0.4459  0.2150 -0.1829
13975TIP3    H163340   3.278   0.638   2.714  0.5108  0.6174  0.6625
13975TIP3    H263341   3.379   0.529   2.744 -0.5963 -0.5880  0.0938
13976TIP3   OH263342   2.391   6.008   2.865 -0.2640  0.1301  0.3543
13976TIP3    H163343   2.461   6.057   2.822  1.4751 -2.0514  0.4793
13976TIP3    H263344   2.332   5.984   2.794  0.5378 -0.2090 -0.2151
13977TIP3   OH263345   0.469   2.689  16.138 -0.5975 -0.1677 -0.2682
13977TIP3    H163346   0.477   2.640  16.219 -2.2816  0.2936  0.2176
13977TIP3    H263347   0.425   2.629  16.078  0.9197 -0.6210 -0.9812
13978TIP3   OH263348   5.549   5.555  11.944  0.7343 -0.8463  0.2370
13978TIP3    H163349   5.559   5.600  12.028 -1.2151 -0.2010  0.1798
13978TIP3    H263350   5.632   5.510  11.931  1.4860 -0.0701  1.9783
13979TIP3   OH263351   3.122   3.439   5.837 -0.0543 -0.6348  0.6284
13979TIP3    H163352   3.091   3.446   5.928 -1.5322 -0.3118  0.1324
13979TIP3    H263353   3.191   3.505   5.830 -0.9554  0.3910  1.1266
13980TIP3   OH263354   5.616   5.974  13.297  0.0520  0.2081  0.2179
13980TIP3    H163355   5.652   6.055  13.262  2.3016 -0.7747  0.0869
13980TIP3    H263356   5.664   5.960  13.379 -1.6633 -0.0456  1.2348
13981TIP3   OH263357   2.619   0.606  12.539 -0.2034  0.2857  0.8731
13981TIP3    H163358   2.571   0.524  12.522  0.1076  0.4061 -0.8108
13981TIP3    H263359   2.585   0.637  12.622 -1.2880 -0.8837  0.8999
13982TIP3   OH263360   1.345   5.042   5.610  0.1834  0.0031  0.3038
13982TIP3    H163361   1.372   4.969   5.554  0.8054  0.2006  0.3335
13982TIP3    H263362   1.250   5.034   5.615  0.4078 -2.5689  2.7151
13983TIP3   OH263363   5.604   6.191  12.984 -0.1390  0.2657  0.6992
13983TIP3    H163364   5.584   6.272  12.938 -2.3110 -1.0744 -0.9355
13983TIP3    H263365   5.627   6.218  13.072  2.6205  2.8508 -0.6238
13984TIP3   OH263366   6.273   1.511   1.171 -0.1591  0.5086 -0.1665
13984TIP3    H163367   6.283   1.558   1.254  2.0933 -0.7246  0.3419
13984TIP3    H263368   6.205   1.559   1.125  1.4042  3.8332  0.6342
13985TIP3   OH263369   2.911   6.483   3.155 -0.7627  0.2466  0.2975
13985TIP3    H163370   2.986   6.449   3.107 -1.8369  0.6385 -1.7428
13985TIP3    H263371   2.949   6.543   3.219  0.6352  1.1823 -1.3309
13986TIP3   OH263372   4.222   3.063   0.809  0.3915  0.2289 -0.4275
13986TIP3    H163373   4.185   3.056   0.722 -0.7689 -1.5208  0.1435
13986TIP3    H263374   4.178   2.995   0.860  1.9594  0.3268  1.1951
13987TIP3   OH263375   4.576   0.417  12.334 -0.1198  0.3961 -0.2285
13987TIP3    H163376   4.489   0.381  12.351  0.4772 -0.5586  0.9982
13987TIP3    H263377   4.592   0.476  12.407  0.1465  0.8064 -0.6136
13988TIP3   OH263378   0.443   0.207   0.005 -0.0145 -0.6276  0.0191
13988TIP3    H163379   0.369   0.153  -0.023  1.6293 -2.4702 -1.0295
13988TIP3    H263380   0.479   0.161   0.081  0.9843 -0.6758 -0.4576
13989TIP3   OH263381   2.198   6.281   0.415  0.4431 -0.6768  0.0579
13989TIP3    H163382   2.122   6.303   0.469  0.0311 -1.2072 -0.3018
13989TIP3    H263383   2.181   6.325   0.331  0.1649 -1.4142 -0.2762
13990TIP3   OH263384   4.672   2.108   0.794  0.1412 -0.2007  0.4263
13990TIP3    H163385   4.602   2.094   0.731  0.1216  0.1001  0.3801
13990TIP3    H263386   4.746   2.138   0.742  0.4439 -0.9302  0.4195
13991TIP3   OH263387   4.710   0.491   5.261  0.4937  0.9214  0.5011
13991TIP3    H163388   4.654   0.504   5.338  1.1566  0.0667  1.1532
13991TIP3    H263389   4.756   0.575   5.250 -0.5653  1.4788  0.2307
13992TIP3   OH263390   2.255   5.931  13.841  0.3357 -0.4573 -0.3609
13992TIP3    H163391   2.191   5.876  13.887  2.2038 -0.4943  2.4735
13992TIP3    H263392   2.323   5.870  13.813  0.4129 -0.0847 -1.0027
13993TIP3   OH263393   3.682   2.042  10.884  0.1735  0.2643  0.7328
13993TIP3    H163394   3.761   2.010  10.926  0.9454  2.7686  1.3390
13993TIP3    H263395   3.709   2.122  10.839 -1.8810  0.9117  0.5312
13994TIP3   OH263396   5.261   3.131   2.067 -0.0162  0.2181  0.2428
13994TIP3    H163397   5.349   3.141   2.101  0.4487  1.2652 -1.1958
13994TIP3    H263398   5.270   3.138   1.972 -1.4718 -1.0457 -0.0440
13995TIP3   OH263399   2.622   2.298  14.676  0.6617  0.0302 -0.2931
13995TIP3    H163400   2.529   2.277  14.690  0.8207 -0.6037 -0.1693
13995TIP3    H263401   2.661   2.288  14.763  0.8461  0.3153 -0.3425
13996TIP3   OH263402   4.127   1.784   5.484 -0.1274 -1.2890 -0.2004
13996TIP3    H163403   4.167   1.742   5.408  0.7000 -0.2754 -0.3472
13996TIP3    H263404   4.110   1.873   5.456 -3.1484 -1.8202 -0.3480
13997TIP3   OH263405   5.775   4.884   3.744 -0.0255 -0.4241 -0.4008
13997TIP3    H163406   5.699   4.933   3.713  0.6927 -0.0386 -1.6292
13997TIP3    H263407   5.743   4.795   3.755 -0.5505 -0.3716 -1.3699
13998TIP3   OH263408   0.115   3.831   1.514  0.1324  0.3527 -0.1417
13998TIP3    H163409   0.201   3.793   1.534  0.5498  1.7961  1.0176
13998TIP3    H263410   0.092   3.795   1.429  1.5370 -0.6760 -0.1216
13999TIP3   OH263411   6.278   3.229   5.245  0.2353 -0.1733 -0.0485
13999TIP3    H163412   6.363   3.266   5.269  0.0530  0.5541 -0.4803
13999TIP3    H263413   6.215   3.299   5.265 -0.5815 -1.4759  2.4126
14000TIP3   OH263414   5.368   3.852   4.685  0.1142 -0.1895 -0.0524
14000TIP3    H163415   5.396   3.788   4.751  0.9036 -0.7846 -0.9418
14000TIP3    H263416   5.428   3.838   4.612  0.5485  1.8354 -0.1206
14001TIP3   OH263417   1.990   3.273   4.060  0.0924 -0.1377  0.2066
14001TIP3    H163418   2.044   3.194   4.065 -0.5181 -0.5223  0.9252
14001TIP3    H263419   2.045   3.337   4.015  0.7011 -0.8832 -0.1352
14002TIP3   OH263420   6.512   0.921   2.225  0.2510  0.1245  0.2104
14002TIP3    H163421   6.577   0.890   2.287  0.2662 -0.6787 -0.1897
14002TIP3    H263422   6.428   0.906   2.268  0.3417  2.0295  1.1125
14003TIP3   OH263423   5.456   3.472  12.437 -0.3424 -0.2377  0.3873
14003TIP3    H163424   5.420   3.468  12.525 -0.4933 -0.5284  0.3164
14003TIP3    H263425   5.390   3.520  12.386 -0.1805  0.0710  0.4679
14004TIP3   OH263426   3.025   1.738   1.246  0.1984  0.2568 -0.3226
14004TIP3    H163427   3.112   1.698   1.243  1.8869  3.3399  1.4734
14004TIP3    H263428   3.008   1.767   1.156  0.6874 -0.9863 -0.8309
14005TIP3   OH263429   0.063   1.695   2.940 -0.1405  0.0315 -0.3192
14005TIP3    H163430   0.155   1.671   2.927 -0.1791  0.3992 -1.4748
14005TIP3    H263431   0.066   1.769   3.001  0.1515 -1.2584  1.2836
14006TIP3   OH263432   4.799   1.449   0.673  0.2338 -0.0701  0.2129
14006TIP3    H163433   4.752   1.466   0.754  3.4787 -1.0842  2.5065
14006TIP3    H263434   4.889   1.478   0.690  1.5810 -2.3737 -2.1745
14007TIP3   OH263435   5.729   1.944   2.483 -0.6546  0.1885  0.4060
14007TIP3    H163436   5.698   2.001   2.412 -0.7839  1.1662  1.2323
14007TIP3    H263437   5.679   1.972   2.560 -0.2964 -0.6526  0.9598
14008TIP3   OH263438   5.320   1.162   6.413 -0.3377  0.4790 -0.1138
14008TIP3    H163439   5.321   1.096   6.481 -1.2069  1.5198  0.9502
14008TIP3    H263440   5.241   1.213   6.429 -0.0688  1.3441 -1.3221
14009TIP3   OH263441   4.271   4.230  12.012  0.0538  0.4169 -0.8305
14009TIP3    H163442   4.294   4.318  12.042  1.6453 -0.2215  0.0001
14009TIP3    H263443   4.353   4.181  12.021 -0.4646 -0.8367 -2.4901
14010TIP3   OH263444   1.439   0.215  16.140 -0.2719  0.8135 -0.0394
14010TIP3    H163445   1.383   0.139  16.157  0.7859 -0.0379 -0.3168
14010TIP3    H263446   1.393   0.263  16.071 -1.3393  0.8703  0.6757
14011TIP3   OH263447   2.398   2.014  16.059  0.8977  0.5482  0.0584
14011TIP3    H163448   2.370   1.928  16.025  1.4074  0.3627  0.1041
14011TIP3    H263449   2.331   2.037  16.123  0.7417  0.1983  0.0255
14012TIP3   OH263450   3.415   4.260   4.009  0.1447 -0.7616 -0.1720
14012TIP3    H163451   3.502   4.247   3.972  0.3693 -2.5064  0.8152
14012TIP3    H263452   3.425   4.333   4.070  1.0086 -1.0985  0.1102
14013TIP3   OH263453   1.836   6.026  12.309 -0.7979 -0.3619  0.0572
14013TIP3    H163454   1.749   6.064  12.323 -0.9278 -1.1817  1.8229
14013TIP3    H263455   1.844   6.019  12.214 -2.2043  0.7361 -0.1888
14014TIP3   OH263456   3.344   0.040  11.668 -0.4829  0.0248 -0.0016
14014TIP3    H163457   3.344   0.043  11.763 -3.3053 -2.5673  0.2247
14014TIP3    H263458   3.381  -0.045  11.646 -3.4008 -1.1050 -0.9398
14015TIP3   OH263459   1.858   1.697   0.864 -0.4018 -0.0373 -0.3882
14015TIP3    H163460   1.812   1.710   0.781 -1.6429  0.8485  0.4020
14015TIP3    H263461   1.866   1.602   0.873 -0.0657 -0.1341 -1.6057
14016TIP3   OH263462   3.505   3.061  16.916  0.2482  0.5418 -0.2651
14016TIP3    H163463   3.411   3.075  16.931  0.5903  1.1195  1.5216
14016TIP3    H263464   3.512   3.045  16.822 -1.6455  0.4471 -0.4267
14017TIP3   OH263465   0.819   6.098  16.233 -0.1271  0.1972 -0.1145
14017TIP3    H163466   0.765   6.054  16.168 -0.6634  1.1116 -0.3047
14017TIP3    H263467   0.835   6.185  16.196 -1.2254  1.0788  1.3574
14018TIP3   OH263468   1.096   1.167  15.503  0.5458  0.0135 -0.7332
14018TIP3    H163469   1.069   1.209  15.421 -0.3303 -1.8669 -1.4789
14018TIP3    H263470   1.045   1.212  15.571 -0.0724  0.4082 -1.4374
14019TIP3   OH263471   5.471   5.847   1.212  0.2345  0.7080  0.5402
14019TIP3    H163472   5.461   5.885   1.299 -1.0649 -0.3007  0.8605
14019TIP3    H263473   5.500   5.920   1.157 -0.5735  1.7695  1.4796
14020TIP3   OH263474   4.214   2.231   3.211  0.6601 -0.1859 -0.7928
14020TIP3    H163475   4.244   2.141   3.197  0.6500 -0.4000  0.5071
14020TIP3    H263476   4.284   2.273   3.260  0.2671  0.2521 -0.5939
14021TIP3   OH263477   5.433   5.272  11.926  0.1865  0.0491  0.6351
14021TIP3    H163478   5.492   5.203  11.894  0.1230  0.1092  0.3899
14021TIP3    H263479   5.491   5.346  11.943  0.4430 -0.4297  2.0403
14022TIP3   OH263480   1.271   4.093   4.352 -0.2766  0.2321  0.4611
14022TIP3    H163481   1.286   4.004   4.321  0.9551 -0.5353  3.0048
14022TIP3    H263482   1.340   4.145   4.311 -0.7462 -0.0522 -0.7125
14023TIP3   OH263483   5.990   3.649  10.452 -0.6710 -0.4508  0.3980
14023TIP3    H163484   5.996   3.740  10.424 -0.2152 -0.8178 -0.8033
14023TIP3    H263485   5.941   3.606  10.382  0.4023 -1.4017  0.2035
14024TIP3   OH263486   5.393   0.238  13.312 -0.0960 -0.8029 -0.0329
14024TIP3    H163487   5.390   0.327  13.277  2.5651  1.0459  3.7148
14024TIP3    H263488   5.456   0.193  13.257  0.9030  0.6607 -0.1407
14025TIP3   OH263489   1.047   5.899   2.959 -0.1383 -0.4692  0.0684
14025TIP3    H163490   0.988   5.852   2.900  0.0940 -1.0000  0.2438
14025TIP3    H263491   1.020   5.990   2.953  0.1239 -0.4550 -1.1482
14026TIP3   OH263492   1.087   4.882   4.299 -0.1807  0.6684  0.2697
14026TIP3    H163493   1.136   4.833   4.365 -0.3030 -2.1086 -1.5528
14026TIP3    H263494   1.005   4.905   4.342  0.3824  0.3439  1.5637
14027TIP3   OH263495   2.455   2.717   3.239  0.3694  0.3746 -1.2215
14027TIP3    H163496   2.544   2.718   3.273  0.0911 -0.5830 -0.4142
14027TIP3    H263497   2.420   2.804   3.259  1.6111  1.3248 -2.9700
14028TIP3   OH263498   4.564   2.968   2.023 -0.5090  0.5430  0.0045
14028TIP3    H163499   4.660   2.967   2.019 -0.5529 -0.0745 -2.1824
14028TIP3    H263500   4.541   3.061   2.018 -0.0346  0.5858 -2.9540
14029TIP3   OH263501   2.521   2.497  12.428  0.2543  0.1634 -0.2672
14029TIP3    H163502   2.569   2.478  12.509 -0.6773  0.1091  0.2824
14029TIP3    H263503   2.439   2.448  12.436 -0.0832  0.5845 -1.0043
14030TIP3   OH263504   4.840   6.300   2.850 -0.1777 -0.3655  0.6470
14030TIP3    H163505   4.772   6.360   2.820  1.4299  0.6531 -1.1418
14030TIP3    H263506   4.891   6.351   2.913  0.4837 -0.2334  0.0132
14031TIP3   OH263507   4.000   6.799  15.209 -0.0777  0.2185 -0.4106
14031TIP3    H163508   3.914   6.756  15.212 -0.7383  1.5206  0.9908
14031TIP3    H263509   4.017   6.824  15.300  0.9241  1.5926 -0.9468
14032TIP3   OH263510   2.708   4.743   1.608  0.2218 -0.4097 -0.1269
14032TIP3    H163511   2.767   4.669   1.617  2.7322  1.6172  1.4959
14032TIP3    H263512   2.676   4.760   1.696  0.4042  0.9436 -0.2916
14033TIP3   OH263513   3.631   6.597  14.605  0.4969  0.4353  0.0307
14033TIP3    H163514   3.659   6.650  14.530 -1.1479 -2.0830 -2.5949
14033TIP3    H263515   3.708   6.547  14.630  0.8351  0.6358 -0.6023
14034TIP3   OH263516   5.022   4.552   5.065 -0.9473 -0.0751  0.7746
14034TIP3    H163517   5.049   4.542   5.156 -0.7239  0.5907  0.7861
14034TIP3    H263518   4.936   4.510   5.061 -0.5532 -0.9266  1.0695
14035TIP3   OH263519   3.057   5.906  15.140  0.4133 -0.0166  0.7715
14035TIP3    H163520   3.116   5.963  15.091  0.4013  0.7229  1.5837
14035TIP3    H263521   2.969   5.937  15.118  0.3482 -0.6596  0.1071
14036TIP3   OH263522   6.697   5.119  14.988 -0.1547 -0.0833 -0.1022
14036TIP3    H163523   6.787   5.122  14.956 -0.8339  1.6322 -2.1878
14036TIP3    H263524   6.659   5.041  14.948  0.2385 -0.4540  0.2538
14037TIP3   OH263525   0.446   1.711  14.217 -0.1560  0.0297 -0.4239
14037TIP3    H163526   0.448   1.805  14.196 -1.3696 -0.1835 -1.6021
14037TIP3    H263527   0.453   1.668  14.132  1.4830 -0.9987  0.1869
14038TIP3   OH263528   2.653   5.938  12.702  0.3315 -0.2464 -0.2337
14038TIP3    H163529   2.567   5.944  12.744  0.3052 -2.3534  0.1118
14038TIP3    H263530   2.715   5.940  12.775  0.6664  1.9323 -0.5188
14039TIP3   OH263531   5.221   0.181   4.245 -0.5441 -0.1076 -0.4112
14039TIP3    H163532   5.266   0.187   4.329 -0.9006 -1.4333 -0.0964
14039TIP3    H263533   5.212   0.087   4.230 -2.2578  0.1061 -0.9601
14040TIP3   OH263534   2.554   3.562  11.911 -0.3965 -0.6469  0.1438
14040TIP3    H163535   2.589   3.584  11.824  0.6606  1.6857  1.0916
14040TIP3    H263536   2.566   3.467  11.918 -0.4161 -0.8763 -2.2026
14041TIP3   OH263537   1.686   1.820   3.706 -0.1964 -0.4464 -0.6344
14041TIP3    H163538   1.641   1.836   3.789  1.3327  0.5246  0.0491
14041TIP3    H263539   1.621   1.840   3.639 -0.4151  2.2852  0.2895
14042TIP3   OH263540   2.674   3.341   5.925 -0.3130 -0.1764  0.7467
14042TIP3    H163541   2.722   3.404   5.979 -0.5225  0.9237 -0.3039
14042TIP3    H263542   2.645   3.274   5.987  2.3392 -0.7723  1.4432
14043TIP3   OH263543   5.862   5.700   5.653 -0.4164  0.6815  0.0434
14043TIP3    H163544   5.923   5.648   5.705 -1.4797 -0.0976  0.5552
14043TIP3    H263545   5.776   5.667   5.678 -1.0193  1.3175 -1.1301
14044TIP3   OH263546   0.013   2.553   0.236  0.0571 -0.8639  0.1956
14044TIP3    H163547   0.038   2.472   0.280  2.5643 -0.2154  0.1207
14044TIP3    H263548   0.026   2.621   0.302 -0.9686 -0.3733 -0.0819
14045TIP3   OH263549   3.849   3.214   6.771 -0.0706  0.0808  0.0125
14045TIP3    H163550   3.852   3.306   6.744 -0.3542  0.0430 -0.1505
14045TIP3    H263551   3.756   3.191   6.767  0.2007 -0.8670 -2.1956
14046TIP3   OH263552   6.214   4.786  14.399 -0.4238 -0.0422 -0.5920
14046TIP3    H163553   6.184   4.860  14.453  0.0257  0.0416 -0.4494
14046TIP3    H263554   6.306   4.806  14.382  0.0007 -1.1109  0.3624
14047TIP3   OH263555   6.472   6.184  14.579  0.3274 -0.7375 -0.2222
14047TIP3    H163556   6.400   6.137  14.621 -0.0736 -0.7358 -0.8889
14047TIP3    H263557   6.538   6.194  14.648 -0.2481 -0.8623  0.3585
14048TIP3   OH263558   1.176   5.873  10.391 -0.0189  0.7731 -0.0412
14048TIP3    H163559   1.128   5.802  10.433  1.5221 -1.0822 -1.2187
14048TIP3    H263560   1.145   5.873  10.300  1.4353  0.1835 -0.5730
14049TIP3   OH263561   0.973   5.549  14.090 -0.4120  0.2176 -0.1264
14049TIP3    H163562   1.024   5.499  14.027  0.4927  0.5064  0.3627
14049TIP3    H263563   0.923   5.484  14.138  0.3387 -0.1745  0.1339
14050TIP3   OH263564   1.596   2.636  16.816  0.1812 -0.4724  0.0764
14050TIP3    H163565   1.555   2.641  16.730  1.1528  0.0083 -0.3774
14050TIP3    H263566   1.553   2.704  16.868 -0.4622 -0.8181  0.0074
14051TIP3   OH263567   3.691   0.059  11.067 -0.1770 -0.5013 -0.4323
14051TIP3    H163568   3.668   0.121  11.136  0.8738  0.0904 -0.5824
14051TIP3    H263569   3.717  -0.020  11.114  0.9896  0.0522 -0.0995
14052TIP3   OH263570   6.098   5.264   0.903 -0.3168  0.2022  0.7360
14052TIP3    H163571   6.115   5.351   0.938  1.4161  1.2227 -2.3285
14052TIP3    H263572   6.009   5.268   0.870 -0.2711  0.7836  0.6761
14053TIP3   OH263573   1.898   2.220  16.690 -0.1180  0.4766 -0.9601
14053TIP3    H163574   1.928   2.293  16.636 -0.6962  0.1833 -1.6838
14053TIP3    H263575   1.938   2.237  16.776 -0.6084  1.8801 -0.9804
14054TIP3   OH263576   4.459   0.559   3.891 -0.4556 -0.1172 -0.7813
14054TIP3    H163577   4.545   0.562   3.935 -2.0028  0.2862  2.4953
14054TIP3    H263578   4.443   0.649   3.865 -0.5116  0.1121  0.0091
14055TIP3   OH263579   5.349   5.335   4.007  0.8816 -0.4040  0.1524
14055TIP3    H163580   5.401   5.297   4.077  0.7837 -0.8218  0.0010
14055TIP3    H263581   5.275   5.377   4.052 -0.0719 -2.0688  0.2217
14056TIP3   OH263582   0.441   1.941  14.767  0.6362  0.1833  0.2205
14056TIP3    H163583   0.432   1.903  14.680  0.5055  0.3771  0.1489
14056TIP3    H263584   0.493   2.020  14.754 -0.6085  1.0207  0.0774
14057TIP3   OH263585   1.560   5.411  12.806 -0.0239  0.0739 -0.1204
14057TIP3    H163586   1.640   5.359  12.807 -0.3376 -0.4535 -0.8914
14057TIP3    H263587   1.493   5.355  12.845  0.2132  0.9548  1.6317
14058TIP3   OH263588   1.473   3.661  12.937 -0.0830  0.6496 -0.3839
14058TIP3    H163589   1.518   3.598  12.880 -0.4214  1.2298 -1.3172
14058TIP3    H263590   1.455   3.736  12.880  0.2507  1.5706  0.6932
14059TIP3   OH263591   2.153   3.243  15.273 -0.1486  0.7026 -0.1318
14059TIP3    H163592   2.142   3.338  15.268  1.1690  0.9885  1.5132
14059TIP3    H263593   2.185   3.227  15.362 -0.2658 -1.2795 -0.4031
14060TIP3   OH263594   3.073   2.378   4.584 -0.2420  0.2652 -0.4332
14060TIP3    H163595   3.168   2.368   4.591 -0.3714 -3.6179 -1.9026
14060TIP3    H263596   3.059   2.418   4.498  0.0109  1.8967  0.2453
14061TIP3   OH263597   1.412   6.693   4.704  0.4758  0.1603  0.8688
14061TIP3    H163598   1.403   6.709   4.610  0.1464 -1.1026  0.6774
14061TIP3    H263599   1.404   6.780   4.743  2.0396  0.9173 -0.3568
14062TIP3   OH263600   1.014   2.393   1.971  0.1336 -0.0531 -0.2500
14062TIP3    H163601   0.943   2.371   2.030 -0.3015 -0.3678 -0.8768
14062TIP3    H263602   1.093   2.391   2.026 -0.2351 -0.5224  0.2710
14063TIP3   OH263603   3.530   0.591   5.533  0.4170  0.2954  0.1240
14063TIP3    H163604   3.446   0.554   5.504 -0.0347  0.9778  0.5353
14063TIP3    H263605   3.522   0.596   5.628  1.5309 -1.0687  0.3286
14064TIP3   OH263606   3.902   5.792  12.418  0.3369 -0.1515  0.4260
14064TIP3    H163607   3.968   5.725  12.438  0.0016 -1.0750 -1.2997
14064TIP3    H263608   3.951   5.861  12.374  0.2473 -0.6579 -0.4981
14065TIP3   OH263609   3.733   1.211  13.129 -0.1437  0.1997 -0.0717
14065TIP3    H163610   3.786   1.283  13.164  0.4977  0.1775 -0.9724
14065TIP3    H263611   3.651   1.253  13.102 -0.0644  0.4622  0.0952
14066TIP3   OH263612   0.702   2.869   5.069  0.3914  0.6142  0.1501
14066TIP3    H163613   0.691   2.801   5.002  1.7627  1.2779 -0.7882
14066TIP3    H263614   0.675   2.950   5.025  1.4642  1.0801  0.3199
14067TIP3   OH263615   3.352   4.192   3.617  0.0786  0.4457 -0.3138
14067TIP3    H163616   3.315   4.108   3.590  0.5607  0.3615 -0.7129
14067TIP3    H263617   3.446   4.176   3.622  0.2247  1.1134 -0.9303
14068TIP3   OH263618   0.562   4.759  14.238 -0.5731 -0.1974  0.3373
14068TIP3    H163619   0.509   4.804  14.303  0.0890 -1.7136  2.0012
14068TIP3    H263620   0.633   4.719  14.288  0.7594 -0.2535 -1.5112
14069TIP3   OH263621   3.881   2.681   5.364 -0.7757  0.1700  0.2542
14069TIP3    H163622   3.918   2.595   5.344  1.7720  1.3333 -0.4906
14069TIP3    H263623   3.828   2.667   5.443  0.5244 -1.8745  0.8415
14070TIP3   OH263624   0.670   3.123   4.907  0.7213  0.0096 -0.3376
14070TIP3    H163625   0.675   3.218   4.916  1.7405 -0.2215  4.8157
14070TIP3    H263626   0.759   3.097   4.882  1.0654  0.3851  0.4330
14071TIP3   OH263627   6.808   4.486  12.709 -0.3445  0.5763  0.7173
14071TIP3    H163628   6.879   4.487  12.773  1.6861 -0.5640 -1.3550
14071TIP3    H263629   6.837   4.546  12.640 -1.7328  0.6393  0.1612
14072TIP3   OH263630   3.264   4.552   5.038  0.1085 -0.4973  0.1611
14072TIP3    H163631   3.270   4.467   5.081 -1.1749 -0.9658 -0.5170
14072TIP3    H263632   3.196   4.599   5.087  0.2003 -0.1919 -0.0027
14073TIP3   OH263633   0.282   0.863  15.462  0.2773  0.3458  0.0811
14073TIP3    H163634   0.213   0.874  15.527 -0.5572 -1.3987 -0.4373
14073TIP3    H263635   0.253   0.789  15.409  1.3684  1.1408 -1.7176
14074TIP3   OH263636   3.574   2.682  16.129 -0.8090 -0.2168  0.0376
14074TIP3    H163637   3.607   2.619  16.193  0.1056 -1.5540 -1.6441
14074TIP3    H263638   3.492   2.645  16.098 -1.1561  0.3266  0.3021
14075TIP3   OH263639   4.567   3.297  16.058 -0.7483  0.8530 -0.3169
14075TIP3    H163640   4.542   3.381  16.021 -0.5798  0.4305 -1.4285
14075TIP3    H263641   4.494   3.273  16.115  0.0616  2.6524  1.6262
14076TIP3   OH263642   4.682   0.302  11.553 -0.1043 -0.2295 -0.2893
14076TIP3    H163643   4.697   0.344  11.469  0.7748  0.6056  0.2654
14076TIP3    H263644   4.726   0.217  11.546  2.8773  1.1196  0.3886
14077TIP3   OH263645   5.079   2.179   2.484  0.1306  0.0691 -0.0892
14077TIP3    H163646   5.012   2.244   2.502 -0.5712 -1.0692  1.7186
14077TIP3    H263647   5.139   2.186   2.559  0.3154 -1.0192 -0.1240
14078TIP3   OH263648   1.385   2.667  11.912 -0.0122 -0.1797 -0.0055
14078TIP3    H163649   1.359   2.749  11.956 -0.6551 -1.6345  2.5645
14078TIP3    H263650   1.379   2.687  11.819 -0.5696  2.5703  0.5233
14079TIP3   OH263651   5.436   0.218  13.689 -0.0129  0.2559 -0.1442
14079TIP3    H163652   5.360   0.159  13.683 -0.8139  1.1497  0.8440
14079TIP3    H263653   5.495   0.187  13.620  0.1988 -2.5421  1.1250
14080TIP3   OH263654   2.190   0.850  11.472 -0.1725  0.1009 -0.4095
14080TIP3    H163655   2.284   0.868  11.462  0.1021 -0.5132  0.8338
14080TIP3    H263656   2.170   0.788  11.402  1.0701 -2.0758  1.0021
14081TIP3   OH263657   0.800   5.406   2.754  0.3852 -0.3150 -0.1700
14081TIP3    H163658   0.756   5.467   2.695 -0.6868 -3.3367 -2.8228
14081TIP3    H263659   0.879   5.380   2.707  1.1597 -0.4649  1.1888
14082TIP3   OH263660   4.502   0.276  15.395 -0.5325 -0.4831 -0.1970
14082TIP3    H163661   4.411   0.288  15.419 -0.8580 -1.2137 -1.0030
14082TIP3    H263662   4.525   0.190  15.431  0.3710  0.4150  1.4987
14083TIP3   OH263663   1.628   3.185  14.598 -0.3231  0.5251 -0.0186
14083TIP3    H163664   1.592   3.226  14.676  0.0903  0.1861  0.3597
14083TIP3    H263665   1.617   3.091  14.613  1.7360  0.3234  0.6678
14084TIP3   OH263666   4.162   5.912   3.115  0.0052  0.1455 -0.4688
14084TIP3    H163667   4.144   5.818   3.112 -1.1984  0.3876 -2.7550
14084TIP3    H263668   4.104   5.945   3.183 -0.3568 -0.6215 -0.3947
14085TIP3   OH263669   0.133   2.219   2.490  0.5427  0.4413 -0.1467
14085TIP3    H163670   0.093   2.133   2.479 -0.2462  0.4098  2.2931
14085TIP3    H263671   0.214   2.202   2.539  0.0956  1.0861  0.8595
14086TIP3   OH263672   2.270   4.118   6.081  0.1858  0.5347 -0.3785
14086TIP3    H163673   2.185   4.160   6.088 -0.5787 -1.1562  1.8494
14086TIP3    H263674   2.262   4.058   6.007 -0.3191  0.8710 -0.5967
14087TIP3   OH263675   4.080   0.199   6.190 -0.3115  0.3714 -0.5519
14087TIP3    H163676   3.994   0.239   6.204 -0.0028  1.3001 -1.1532
14087TIP3    H263677   4.143   0.267   6.215  0.3135 -0.9888  1.8699
14088TIP3   OH263678   0.642   5.699   2.983 -0.0039 -0.2097 -0.5673
14088TIP3    H163679   0.704   5.627   2.977  0.5922  0.1867  0.4801
14088TIP3    H263680   0.628   5.710   3.077  0.7756  1.7321 -0.6350
14089TIP3   OH263681   0.345   0.458  11.412  0.5764  0.0199 -0.0859
14089TIP3    H163682   0.432   0.421  11.426  0.6126 -0.6412 -1.7612
14089TIP3    H263683   0.355   0.512  11.334  0.0152  1.8925  1.0755
14090TIP3   OH263684   0.569   0.733   2.342 -0.3326  0.0051  0.6225
14090TIP3    H163685   0.519   0.757   2.264 -0.0526 -0.2594  0.3563
14090TIP3    H263686   0.646   0.791   2.339 -0.6443  0.4409  1.0524
14091TIP3   OH263687   5.217   0.611  15.910  0.2452 -0.7752 -0.2743
14091TIP3    H163688   5.306   0.621  15.876  0.4509 -0.7840  0.2546
14091TIP3    H263689   5.227   0.556  15.988  0.0825  1.0478  1.0926
14092TIP3   OH263690   3.399   3.990   4.117  0.0083 -0.1279  0.2784
14092TIP3    H163691   3.332   4.007   4.051  0.1511 -0.5783  0.0128
14092TIP3    H263692   3.349   3.974   4.197 -0.1404  1.1613  0.4631
14093TIP3   OH263693   1.386   5.897   1.847 -0.3043 -0.4819  0.3796
14093TIP3    H163694   1.430   5.813   1.864 -0.5187 -0.5815  0.4418
14093TIP3    H263695   1.398   5.947   1.927  0.2753 -0.2508  0.1579
14094TIP3   OH263696   2.163   6.541  13.600 -0.4519 -1.0179  0.2373
14094TIP3    H163697   2.164   6.466  13.541 -0.7135  0.0353 -1.1567
14094TIP3    H263698   2.070   6.561  13.612 -0.3710  0.0682 -0.7420
14095TIP3   OH263699   0.355   5.987  15.689 -0.4907 -0.0259  0.1749
14095TIP3    H163700   0.362   5.896  15.663 -0.6434 -0.3830  1.3251
14095TIP3    H263701   0.277   5.991  15.745 -0.6449  0.8601 -0.0750
14096TIP3   OH263702   0.639   1.174   4.668 -0.0793  0.4794  0.0411
14096TIP3    H163703   0.574   1.244   4.660  0.0812  0.6202 -0.0455
14096TIP3    H263704   0.661   1.171   4.761 -0.4395  0.2198  0.1218
14097TIP3   OH263705   5.829   6.567   3.204  0.0080  0.4594 -0.0478
14097TIP3    H163706   5.835   6.661   3.189  0.3619  0.3846 -0.4050
14097TIP3    H263707   5.793   6.533   3.122 -0.5671  0.3360  0.2547
14098TIP3   OH263708   5.394   3.316   5.765 -0.0026  0.0355  0.2643
14098TIP3    H163709   5.474   3.363   5.786  1.2475 -2.3897  1.2450
14098TIP3    H263710   5.345   3.377   5.709  0.6326  3.1943  2.8162
14099TIP3   OH263711   2.181   6.131   1.929  0.3426  0.2597  0.4224
14099TIP3    H163712   2.162   6.147   2.021 -2.3427  2.4181 -0.3622
14099TIP3    H263713   2.132   6.052   1.907  0.0740  0.3703  0.6218
14100TIP3   OH263714   4.914   1.638  13.351 -0.1460  0.0125  0.0183
14100TIP3    H163715   4.978   1.662  13.283  0.4329 -0.6679  0.3084
14100TIP3    H263716   4.855   1.576  13.307  0.4409 -0.7060  0.2104
14101TIP3   OH263717   2.960   3.531   0.049 -0.2386  0.0918  0.0017
14101TIP3    H163718   2.891   3.567  -0.007  0.6380  2.0097  0.0561
14101TIP3    H263719   2.921   3.453   0.088 -1.4796 -0.3030 -1.8902
14102TIP3   OH263720   1.205   2.380  14.304  0.5197  0.0654 -0.5466
14102TIP3    H163721   1.262   2.447  14.267  0.6355 -0.3415 -1.1215
14102TIP3    H263722   1.161   2.341  14.228  0.6581 -0.6894 -0.2447
14103TIP3   OH263723   4.409   3.632  12.314 -0.3908  0.5073  0.3493
14103TIP3    H163724   4.496   3.599  12.291 -0.1879  0.6111  0.9704
14103TIP3    H263725   4.381   3.679  12.235  0.3972  1.0547  0.3793
14104TIP3   OH263726   0.575   3.133   3.570 -0.0784 -0.2279 -0.0303
14104TIP3    H163727   0.481   3.119   3.560 -0.2718 -1.3912  2.4901
14104TIP3    H263728   0.582   3.223   3.603 -0.4205 -0.4530  0.6869
14105TIP3   OH263729   0.702   3.604   4.003  0.1384  0.2774 -0.3152
14105TIP3    H163730   0.767   3.538   3.981 -1.8686 -1.9830  0.1630
14105TIP3    H263731   0.720   3.626   4.095 -0.4680 -1.2244  0.1856
14106TIP3   OH263732   1.865   2.347  13.927 -0.1112  0.0049 -0.4480
14106TIP3    H163733   1.884   2.353  13.833 -0.2839  0.4900 -0.4512
14106TIP3    H263734   1.932   2.401  13.968  0.6172 -1.0448 -0.2066
14107TIP3   OH263735   1.417   4.938  16.383 -0.4462 -0.2465  0.7731
14107TIP3    H163736   1.449   4.876  16.319 -0.5892 -0.6721  1.1078
14107TIP3    H263737   1.322   4.940  16.369 -0.2833  1.0958 -0.2978
14108TIP3   OH263738   3.727   3.528   2.514  0.3362  0.2426  0.0801
14108TIP3    H163739   3.692   3.585   2.446  2.2925  0.4729 -0.7783
14108TIP3    H263740   3.819   3.551   2.520  0.1009  0.8056  3.4146
14109TIP3   OH263741   0.382   3.019  13.518  0.1252 -0.2533  0.6216
14109TIP3    H163742   0.451   3.074  13.483  0.3798 -1.2211 -0.4781
14109TIP3    H263743   0.304   3.075  13.519  0.4313  0.2092 -0.2509
14110TIP3   OH263744   0.490   1.423  11.667 -0.1561 -0.4331 -0.4007
14110TIP3    H163745   0.514   1.369  11.592  0.9929 -0.8908  0.2820
14110TIP3    H263746   0.409   1.466  11.640  0.6042 -0.0276 -2.1841
14111TIP3   OH263747   1.764   5.656  14.924  0.6951  0.1519  0.1664
14111TIP3    H163748   1.747   5.734  14.871  1.0470  0.2619  0.2130
14111TIP3    H263749   1.847   5.622  14.890  0.0640 -0.7621 -0.5079
14112TIP3   OH263750   1.986   4.350   0.301 -0.3979  0.3553  0.3390
14112TIP3    H163751   1.914   4.296   0.333 -0.6581  0.6349  0.2302
14112TIP3    H263752   2.027   4.298   0.232 -1.1268  0.6091 -0.2946
14113TIP3   OH263753   5.448   3.054  11.573  0.1175 -0.3138  0.0631
14113TIP3    H163754   5.379   3.119  11.588 -0.5817 -0.7855 -0.9699
14113TIP3    H263755   5.493   3.047  11.657 -1.2263 -0.1340  0.8372
14114TIP3   OH263756   2.578   0.291  11.337 -0.1895 -0.1241  0.1506
14114TIP3    H163757   2.674   0.294  11.332 -0.2222  1.5911  0.0178
14114TIP3    H263758   2.549   0.333  11.256 -1.0448  0.3626  0.7001
14115TIP3   OH263759   1.374   2.240  15.796  0.1636 -0.4951  0.0768
14115TIP3    H163760   1.286   2.202  15.794 -0.2444  0.4316 -0.6908
14115TIP3    H263761   1.360   2.333  15.777  1.3484 -0.4054 -0.4601
14116TIP3   OH263762   2.972   2.734  16.729  0.0849 -0.2590  0.6061
14116TIP3    H163763   3.033   2.753  16.657 -1.6851 -1.7410 -1.4227
14116TIP3    H263764   3.010   2.658  16.772  1.7271  1.2878  2.0298
14117TIP3   OH263765   4.739   0.206  14.379  0.0006  0.7576  0.2149
14117TIP3    H163766   4.768   0.115  14.381  2.1144  1.3690 -0.5231
14117TIP3    H263767   4.701   0.217  14.292  1.1770  0.9581 -0.2934
14118TIP3   OH263768   2.545   1.461  14.817  0.6498  0.3211 -0.2167
14118TIP3    H163769   2.492   1.497  14.889  2.3205  2.4301  0.0486
14118TIP3    H263770   2.500   1.490  14.738  0.5973  0.8396 -0.0030
14119TIP3   OH263771   3.838   3.493   0.012  0.1405  0.1330  0.2417
14119TIP3    H163772   3.805   3.581   0.035  0.2273 -0.0845  1.2525
14119TIP3    H263773   3.847   3.449   0.096  0.0896 -0.8579 -0.2648
14120TIP3   OH263774   1.586   4.280  13.281  0.1546 -0.0830  0.0061
14120TIP3    H163775   1.506   4.312  13.239 -0.4421 -1.7150 -0.1871
14120TIP3    H263776   1.562   4.193  13.314  0.6959  0.9279  3.4687
14121TIP3   OH263777   5.496   5.732  10.778 -0.1876 -0.3039 -0.2570
14121TIP3    H163778   5.450   5.716  10.860  0.3182 -1.6009 -0.2053
14121TIP3    H263779   5.501   5.828  10.772 -1.1468 -0.1690  0.6924
14122TIP3   OH263780   0.198   3.438  11.978 -0.7841 -0.7671  0.3017
14122TIP3    H163781   0.243   3.507  12.027 -0.9500 -0.8076  0.5091
14122TIP3    H263782   0.106   3.449  12.000 -1.2506  1.0135 -2.1834
14123TIP3   OH263783   1.321   3.596   4.815  0.2008 -0.2513 -0.3014
14123TIP3    H163784   1.413   3.571   4.820  0.3752  0.3299 -0.4695
14123TIP3    H263785   1.274   3.515   4.798  0.7300 -0.4843 -0.6622
14124TIP3   OH263786   3.546   4.447  13.412  0.0816 -0.3956 -0.2140
14124TIP3    H163787   3.483   4.391  13.458  1.9561 -2.0066  0.5005
14124TIP3    H263788   3.544   4.530  13.460 -0.6153 -0.8280  0.5266
14125TIP3   OH263789   3.701   4.662  13.195  0.1998  0.3328  0.5456
14125TIP3    H163790   3.622   4.710  13.169  0.9735  0.8074 -1.0698
14125TIP3    H263791   3.676   4.570  13.191 -0.1445  0.4580 -0.4798
14126TIP3   OH263792   5.648   2.755  14.663 -0.2507  0.3342 -0.0828
14126TIP3    H163793   5.679   2.715  14.744 -0.2373  2.4305  1.0223
14126TIP3    H263794   5.573   2.702  14.637  1.1862 -1.8153 -0.0639
14127TIP3   OH263795   3.676   5.453   5.313 -0.3504  0.1559 -0.2761
14127TIP3    H163796   3.721   5.536   5.331  1.3568 -1.3257  3.4256
14127TIP3    H263797   3.587   5.467   5.346  0.1004  0.4074  0.9079
14128TIP3   OH263798   4.849   5.063   6.351 -0.2060  0.0434  1.2613
14128TIP3    H163799   4.823   5.017   6.431  1.5638 -2.4565  0.5157
14128TIP3    H263800   4.942   5.043   6.341 -0.4363 -0.0028 -1.5687
14129TIP3   OH263801   3.495   3.643   2.243 -0.1454 -0.1332 -0.2052
14129TIP3    H163802   3.560   3.686   2.298 -0.5909 -0.8679  0.9329
14129TIP3    H263803   3.538   3.564   2.211 -0.7132 -1.0686  1.2438
14130TIP3   OH263804   3.980   1.952  16.805 -0.4251  0.0946  0.3833
14130TIP3    H163805   3.930   2.033  16.815 -0.3562  0.2262 -0.2575
14130TIP3    H263806   4.071   1.978  16.817 -0.5282 -0.2649  2.2289
14131TIP3   OH263807   2.909   6.635   4.806 -0.6637  0.0789  0.4832
14131TIP3    H163808   2.974   6.660   4.741 -0.3360 -1.9671 -0.0432
14131TIP3    H263809   2.909   6.707   4.869 -0.2839  1.6649 -1.2204
14132TIP3   OH263810   1.631   2.137  16.832 -0.0342 -0.4826  0.3352
14132TIP3    H163811   1.696   2.169  16.769  1.0033 -0.6254  1.3006
14132TIP3    H263812   1.560   2.102  16.778  0.8019 -0.5576 -0.7460
14133TIP3   OH263813   2.370   5.395  12.729 -0.0838  0.0932  0.3482
14133TIP3    H163814   2.392   5.487  12.714 -0.2251  0.0065 -0.4201
14133TIP3    H263815   2.347   5.391  12.822 -0.1409  0.8445  0.3753
14134TIP3   OH263816   5.694   5.711  13.501 -0.2126 -0.7300 -0.0737
14134TIP3    H163817   5.635   5.728  13.575 -0.9927  1.6544 -1.1501
14134TIP3    H263818   5.650   5.643  13.451 -0.6654 -0.9635  0.6245
14135TIP3   OH263819   4.813   0.777  13.349  0.0398 -0.1344 -0.3191
14135TIP3    H163820   4.737   0.795  13.293 -0.2236 -0.9998 -0.2469
14135TIP3    H263821   4.795   0.692  13.388  0.8198 -0.1206  0.0901
14136TIP3   OH263822   1.553   0.632   1.165 -0.4405 -0.4587  0.2505
14136TIP3    H163823   1.502   0.696   1.116  0.2825 -1.2400 -1.6194
14136TIP3    H263824   1.487   0.573   1.202 -1.0131  0.2984  0.4601
14137TIP3   OH263825   0.135   1.540   0.563 -0.0392 -0.2701  0.9929
14137TIP3    H163826   0.057   1.566   0.611 -1.3909 -1.6894 -0.3369
14137TIP3    H263827   0.197   1.514   0.631  0.1445  2.8327  2.1942
14138TIP3   OH263828   4.679   4.158   1.416 -0.5403 -0.3718 -0.1378
14138TIP3    H163829   4.612   4.226   1.408 -0.0762  0.0937 -0.1190
14138TIP3    H263830   4.754   4.193   1.368  0.7223  0.4472  2.2536
14139TIP3   OH263831   6.272   0.287   5.734  0.0997 -0.3985  0.1265
14139TIP3    H163832   6.352   0.319   5.692  0.3296 -0.0822  0.7937
14139TIP3    H263833   6.286   0.303   5.827 -1.4196  1.2756  0.1271
14140TIP3   OH263834   5.268   3.004  13.747 -0.1104 -0.3219  0.4379
14140TIP3    H163835   5.298   2.913  13.744  1.2602  0.1284 -0.1076
14140TIP3    H263836   5.347   3.055  13.765 -0.7308  0.8281  0.0016
14141TIP3   OH263837   4.836   5.118   3.402  0.0015 -0.3348  0.1990
14141TIP3    H163838   4.752   5.109   3.446  1.0605 -0.2781  2.3831
14141TIP3    H263839   4.826   5.068   3.321 -1.2934 -2.6478  1.6479
14142TIP3   OH263840   4.633   4.687  12.416 -0.2654 -0.0964 -0.1470
14142TIP3    H163841   4.538   4.678  12.421 -0.3509 -0.1271 -1.4053
14142TIP3    H263842   4.649   4.781  12.418 -0.3174 -0.0915  0.0679
14143TIP3   OH263843   6.044   0.551   4.516 -0.1735 -0.3324  0.0365
14143TIP3    H163844   6.057   0.490   4.589 -2.1257  0.5535  1.1943
14143TIP3    H263845   6.040   0.637   4.557 -0.2449  0.3018 -1.2643
14144TIP3   OH263846   3.107   3.793   2.701 -0.0976 -0.1428  0.0921
14144TIP3    H163847   3.105   3.783   2.606  0.7529  0.5042 -0.0061
14144TIP3    H263848   3.186   3.745   2.727  0.5304  0.9730  0.2928
14145TIP3   OH263849   5.005   1.225  15.321  0.7530  0.2876  0.2633
14145TIP3    H163850   5.023   1.133  15.302 -0.4177 -0.0509  0.7024
14145TIP3    H263851   4.967   1.259  15.240  1.9196  0.6044 -0.1632
14146TIP3   OH263852   2.530   6.106   1.428 -0.2483 -0.0088 -0.0634
14146TIP3    H163853   2.594   6.100   1.358  0.2321 -0.6300  0.4208
14146TIP3    H263854   2.502   6.198   1.428  0.1842  0.1241 -0.6716
14147TIP3   OH263855   6.018   6.758   4.955 -0.3443  0.1411  0.3822
14147TIP3    H163856   5.931   6.797   4.962 -1.2047 -1.8151  1.4351
14147TIP3    H263857   6.064   6.787   5.034  0.7123  2.6503 -1.0029
14148TIP3   OH263858   0.806   2.997   1.877  0.4658  0.0328 -0.1441
14148TIP3    H163859   0.844   3.066   1.931  0.8603 -0.1419 -0.1983
14148TIP3    H263860   0.764   3.044   1.804  0.4946  0.2308 -0.0341
14149TIP3   OH263861   2.793   1.789   3.318 -1.1562 -0.3504  0.4207
14149TIP3    H163862   2.749   1.745   3.245 -0.4468 -0.3281 -0.0295
14149TIP3    H263863   2.872   1.736   3.334 -1.6800 -0.8002  1.6779
14150TIP3   OH263864   2.808   1.360  10.177  0.4743 -0.4012 -0.0878
14150TIP3    H163865   2.742   1.386  10.113  0.1964 -1.2274 -0.1457
14150TIP3    H263866   2.867   1.301  10.130  0.2073 -1.0971  0.4377
14151TIP3   OH263867   4.438   0.797  10.405  0.2639 -0.3073  0.2426
14151TIP3    H163868   4.453   0.716  10.355 -0.5093 -0.2129 -0.1462
14151TIP3    H263869   4.526   0.825  10.430  0.5240 -1.4975  0.7526
14152TIP3   OH263870   2.042   3.394   4.617 -0.0349 -0.5149  0.5895
14152TIP3    H163871   2.063   3.486   4.630 -0.2298 -0.5967  1.5674
14152TIP3    H263872   2.045   3.356   4.705  0.1120 -1.4562  0.1894
14153TIP3   OH263873   5.620   3.197  16.645  0.3625 -0.5402 -0.6467
14153TIP3    H163874   5.546   3.235  16.598  0.8978  0.7842 -0.4670
14153TIP3    H263875   5.673   3.156  16.577 -0.7064 -1.8681 -0.7325
14154TIP3   OH263876   5.883   0.005  14.177  0.1495  0.4263  0.3177
14154TIP3    H163877   5.874   0.097  14.202  1.7397  0.7844 -0.3261
14154TIP3    H263878   5.977  -0.009  14.168 -0.1292 -0.8582 -1.0955
14155TIP3   OH263879   4.939   4.598   3.507 -0.1325  0.1943  0.1480
14155TIP3    H163880   4.892   4.583   3.425 -0.3610  0.9301  0.1383
14155TIP3    H263881   4.983   4.682   3.495 -1.6287  1.2242  1.4169
14156TIP3   OH263882   1.943   2.604   2.398  0.5603 -0.4556 -0.3401
14156TIP3    H163883   1.914   2.695   2.392 -1.6597 -0.7160  3.6278
14156TIP3    H263884   2.000   2.601   2.474  0.1617 -2.4508 -0.0545
14157TIP3   OH263885   2.619   2.350  13.166 -0.3951  0.2651  0.1586
14157TIP3    H163886   2.656   2.347  13.078  0.6565 -0.7168  0.6159
14157TIP3    H263887   2.690   2.381  13.222 -1.0064  0.7371  0.6900
14158TIP3   OH263888   5.892   3.011  11.092 -0.4654 -0.2166 -0.1204
14158TIP3    H163889   5.891   3.068  11.170 -1.9948 -0.0682 -0.2196
14158TIP3    H263890   5.848   3.062  11.024  1.3381 -0.1231 -1.2888
14159TIP3   OH263891   4.365   6.379  16.813 -0.0260  0.0643  0.0442
14159TIP3    H163892   4.362   6.298  16.762 -0.5955  0.2624 -0.2423
14159TIP3    H263893   4.371   6.351  16.904 -2.2577 -0.3411  0.1192
14160TIP3   OH263894   6.660   6.217   0.050  0.3187 -0.4889  0.0450
14160TIP3    H163895   6.578   6.201   0.098  0.6227  0.4105  0.8900
14160TIP3    H263896   6.669   6.140  -0.007 -1.2715 -0.4632 -0.2984
14161TIP3   OH263897   5.787   2.245  15.480 -0.4827  0.0090  0.0350
14161TIP3    H163898   5.758   2.334  15.500 -1.1472  0.0118 -0.8558
14161TIP3    H263899   5.808   2.248  15.387  1.5686 -0.2337  0.4377
14162TIP3   OH263900   0.307   2.091  15.853 -0.1080  0.5308 -0.3381
14162TIP3    H163901   0.292   2.138  15.935 -0.8054 -0.0493 -0.1199
14162TIP3    H263902   0.276   2.150  15.785 -0.6016  0.5526 -0.0978
14163TIP3   OH263903   1.291   5.431  11.065  0.3189 -0.4321 -0.1004
14163TIP3    H163904   1.379   5.438  11.028 -0.5184  1.7252 -1.9426
14163TIP3    H263905   1.243   5.505  11.027 -1.2450  0.8358  3.8088
14164TIP3   OH263906   6.814   0.421   0.129 -0.5461  0.2128 -0.4760
14164TIP3    H163907   6.805   0.511   0.098  0.8603  0.5236 -0.0574
14164TIP3    H263908   6.844   0.430   0.219 -0.0076 -0.6660 -0.5589
14165TIP3   OH263909   0.096   2.894  15.526 -0.0566  0.6157  0.2501
14165TIP3    H163910   0.105   2.816  15.580  0.4021 -0.6818 -1.6068
14165TIP3    H263911   0.002   2.899  15.506 -0.0158  0.2236 -0.0506
14166TIP3   OH263912   2.124   3.085   1.653  0.0049  0.7667 -0.2200
14166TIP3    H163913   2.054   3.099   1.716  0.1720  0.5971  0.0077
14166TIP3    H263914   2.185   3.158   1.667  1.3775 -0.6380  1.6504
14167TIP3   OH263915   3.073   5.256   1.070 -0.3377  0.1643  0.3089
14167TIP3    H163916   3.168   5.259   1.059 -0.2132 -1.2506  0.7507
14167TIP3    H263917   3.040   5.235   0.983 -0.1679 -0.3031  0.3540
14168TIP3   OH263918   1.511   6.364   0.517  0.3752 -0.0942  0.3399
14168TIP3    H163919   1.568   6.408   0.581  0.4446  0.7176 -0.2659
14168TIP3    H263920   1.567   6.353   0.440 -0.6043  1.8355 -0.7107
14169TIP3   OH263921   5.825   1.634  12.414  0.0531  0.9744  0.1778
14169TIP3    H163922   5.776   1.642  12.332  2.0294  0.2364 -1.1544
14169TIP3    H263923   5.778   1.567  12.464 -0.9018  1.0820 -0.5415
14170TIP3   OH263924   4.903   0.829  14.549  0.2304  0.1572 -0.1353
14170TIP3    H163925   4.831   0.853  14.491 -0.4228 -1.7392 -0.1802
14170TIP3    H263926   4.982   0.846  14.498 -0.2951 -0.2298 -1.1017
14171TIP3   OH263927   5.439   1.946  14.595  0.4037  0.5968  0.2799
14171TIP3    H163928   5.443   1.882  14.666  1.9315 -0.8273 -0.9981
14171TIP3    H263929   5.364   1.919  14.542  0.3778  0.5254  0.3528
14172TIP3   OH263930   1.479   1.191  15.440  0.2122  0.4357  0.0015
14172TIP3    H163931   1.524   1.268  15.406 -0.6089  0.8878 -0.0918
14172TIP3    H263932   1.482   1.128  15.367  0.8626  0.3857  0.0704
14173TIP3   OH263933   5.491   1.936  15.749  0.0864  0.4311  0.1405
14173TIP3    H163934   5.515   1.854  15.706 -1.9129  1.5792 -3.6331
14173TIP3    H263935   5.564   1.995  15.730  0.6872  0.0612  1.2476
14174TIP3   OH263936   4.168   0.524   1.765 -0.2872  0.3289  0.0333
14174TIP3    H163937   4.263   0.523   1.777  0.0044  1.2064 -1.8059
14174TIP3    H263938   4.156   0.515   1.671 -2.0836 -0.6360  0.3120
14175TIP3   OH263939   4.369   2.879   6.352 -0.1059 -0.0640  0.0505
14175TIP3    H163940   4.440   2.913   6.406 -1.1250  1.2020  0.6654
14175TIP3    H263941   4.388   2.785   6.343  0.6099 -0.1321  1.8138
14176TIP3   OH263942   0.690   6.354  16.895  0.3491 -0.2843  0.3849
14176TIP3    H163943   0.714   6.361  16.803  0.4854  2.0986  0.5293
14176TIP3    H263944   0.723   6.268  16.922  0.7035 -0.8470 -1.6516
14177TIP3   OH263945   4.960   4.700  14.168  0.6075  0.1542 -0.1851
14177TIP3    H163946   4.926   4.739  14.087  0.8810  0.8771  0.0387
14177TIP3    H263947   4.973   4.775  14.227 -0.1922 -0.4128  0.7582
14178TIP3   OH263948   2.145   2.841   1.551 -0.1891 -0.3327  0.4855
14178TIP3    H163949   2.147   2.913   1.614  0.6060  1.3693 -1.3766
14178TIP3    H263950   2.062   2.851   1.505  1.0118  1.0482 -1.5123
14179TIP3   OH263951   3.467   6.631   3.892 -0.3896  0.1304 -0.4327
14179TIP3    H163952   3.451   6.691   3.965 -0.2944  0.3666 -0.6035
14179TIP3    H263953   3.409   6.557   3.908 -0.9822  0.5582 -0.5620
14180TIP3   OH263954   6.557   3.766  13.463  0.2492  0.4487 -0.4920
14180TIP3    H163955   6.567   3.788  13.371  0.5766  2.1686 -0.0968
14180TIP3    H263956   6.646   3.762  13.497  0.1099  1.5009  0.0667
14181TIP3   OH263957   2.652   1.640   5.254 -0.9160  0.2083 -0.0520
14181TIP3    H163958   2.657   1.699   5.179  0.2972  0.8919  0.5327
14181TIP3    H263959   2.633   1.554   5.217  1.8423  0.0766 -1.4140
14182TIP3   OH263960   0.511   2.808  11.985  0.4316 -0.2000 -0.2642
14182TIP3    H163961   0.577   2.754  11.940  0.3147  0.1430 -0.8515
14182TIP3    H263962   0.442   2.821  11.921  0.1229  0.0522  0.1123
14183TIP3   OH263963   1.932   3.636   2.923 -0.2693  0.6749 -0.5443
14183TIP3    H163964   2.004   3.632   2.859 -1.4604 -1.4657 -1.8560
14183TIP3    H263965   1.903   3.727   2.919  1.0966  1.1135 -1.4385
14184TIP3   OH263966   1.157   6.035  11.707 -0.0299  0.2715  0.4457
14184TIP3    H163967   1.217   6.100  11.670  2.0358 -1.1109  1.1306
14184TIP3    H263968   1.083   6.085  11.741  0.4747  2.0204 -0.9240
14185TIP3   OH263969   1.299   3.019   0.158 -0.1647 -0.4250  0.0329
14185TIP3    H163970   1.244   3.058   0.226  1.4728 -0.7918  1.6514
14185TIP3    H263971   1.388   3.040   0.184  0.5563 -1.1627 -1.6716
14186TIP3   OH263972   2.159   1.810   3.791 -0.4735 -0.3220  0.5550
14186TIP3    H163973   2.099   1.735   3.801 -2.0178  1.1082  3.0422
14186TIP3    H263974   2.146   1.862   3.870  2.2540  1.4264 -0.0077
14187TIP3   OH263975   5.115   0.485   5.293 -0.0384 -0.2334  0.0770
14187TIP3    H163976   5.049   0.551   5.270  1.0503  0.7801 -0.2103
14187TIP3    H263977   5.097   0.465   5.385 -0.4622  0.3660  0.1329
14188TIP3   OH263978   0.687   4.609   1.578  0.4332  0.6538  0.3113
14188TIP3    H163979   0.676   4.675   1.510  0.6180  0.3095 -0.0556
14188TIP3    H263980   0.779   4.614   1.602  0.0195  1.9531  1.7577
14189TIP3   OH263981   1.924   1.017   3.446  0.2124 -0.2143 -0.1659
14189TIP3    H163982   2.007   1.041   3.404  0.8557  0.4506  1.4243
14189TIP3    H263983   1.873   1.097   3.445  0.0172 -0.3385 -0.1501
14190TIP3   OH263984   4.619   5.472   5.845  0.1605 -0.1076  0.8806
14190TIP3    H163985   4.572   5.477   5.928 -0.4948 -0.2661  0.5251
14190TIP3    H263986   4.712   5.471   5.870 -0.0347 -0.3682  1.6147
14191TIP3   OH263987   5.712   6.024   0.750  0.2482 -0.0345  0.2581
14191TIP3    H163988   5.749   5.936   0.743 -0.0220 -0.1590  0.3943
14191TIP3    H263989   5.788   6.082   0.749  0.3511 -0.0952 -2.3887
14192TIP3   OH263990   1.900   4.251   0.956  0.0107 -0.0620 -0.0542
14192TIP3    H163991   1.951   4.321   0.916 -1.7369  0.5426 -1.3861
14192TIP3    H263992   1.960   4.207   1.016  1.4686  1.8616 -0.0359
14193TIP3   OH263993   6.394   4.852   5.461  0.0865 -0.6597 -0.0297
14193TIP3    H163994   6.442   4.880   5.383  2.8287 -3.7440  0.3514
14193TIP3    H263995   6.386   4.932   5.513  1.8341  0.6835 -1.6533
14194TIP3   OH263996   3.903   5.732   1.802  0.2587  0.3220 -0.1924
14194TIP3    H163997   3.865   5.810   1.762 -0.1756  0.2809  0.1260
14194TIP3    H263998   3.965   5.766   1.867  0.0643  0.4063 -0.0480
14195TIP3   OH263999   0.173   2.461   1.431 -0.2860  0.0004  0.0238
14195TIP3    H164000   0.217   2.462   1.346 -0.3510 -0.0337 -0.0104
14195TIP3    H264001   0.096   2.406   1.417 -1.6018  1.9216 -0.5460
14196TIP3   OH264002   4.940   6.259  15.830  0.1304  0.1651  0.1449
14196TIP3    H164003   5.008   6.314  15.790  1.0995  0.6838  2.3556
14196TIP3    H264004   4.938   6.180  15.775  3.4215 -0.4084  0.5958
14197TIP3   OH264005   3.477   6.736   5.563 -0.2233 -0.0174  0.2805
14197TIP3    H164006   3.566   6.728   5.595 -0.4676  0.4378  1.0938
14197TIP3    H264007   3.483   6.799   5.491  0.0348  0.3582  0.6322
14198TIP3   OH264008   2.552   2.671  11.772  0.2539 -0.0785 -0.3913
14198TIP3    H164009   2.549   2.718  11.689 -1.2967  0.4690 -0.0552
14198TIP3    H264010   2.483   2.711  11.825  0.7897 -0.8491  0.9274
14199TIP3   OH264011   0.116   4.486   3.789 -0.1649 -0.0223 -0.2683
14199TIP3    H164012   0.142   4.416   3.729 -2.0891  0.2426 -1.4911
14199TIP3    H264013   0.057   4.445   3.851 -1.5197  0.5344 -1.1560
14200TIP3   OH264014   0.681   4.950  16.364  0.3032  0.2167 -0.0437
14200TIP3    H164015   0.654   4.964  16.455  0.8974 -0.6921  0.2814
14200TIP3    H264016   0.660   5.033  16.321 -1.0319  0.2835  0.6561
14201TIP3   OH264017   2.120   0.455  11.020  0.2788 -0.0270  0.3825
14201TIP3    H164018   2.039   0.498  11.047  0.9996  0.2089  2.3036
14201TIP3    H264019   2.117   0.456  10.924 -1.8673  0.1717  0.4107
14202TIP3   OH264020   0.472   1.422   4.630  0.0958 -0.3589  0.5978
14202TIP3    H164021   0.439   1.368   4.559  1.7269 -0.5345 -0.0762
14202TIP3    H264022   0.486   1.508   4.591 -0.4340 -0.0317  1.1106
14203TIP3   OH264023   0.275   4.042   1.392 -0.4708  0.9413 -0.3813
14203TIP3    H164024   0.275   3.949   1.414  0.7638  0.9077 -0.4238
14203TIP3    H264025   0.318   4.084   1.466  1.2100  1.1575 -1.4073
14204TIP3   OH264026   5.671   4.235   4.411 -0.2365 -0.1995 -0.1906
14204TIP3    H164027   5.601   4.202   4.466  0.2777 -2.6495 -0.8842
14204TIP3    H264028   5.709   4.308   4.461 -0.9330 -1.1524  1.8288
14205TIP3   OH264029   3.255   2.248   5.923 -0.0387 -0.3323 -0.5009
14205TIP3    H164030   3.160   2.239   5.916 -0.6676  0.3909  4.1351
14205TIP3    H264031   3.272   2.342   5.913  0.5161 -0.6206 -2.8929
14206TIP3   OH264032   1.538   1.806  16.457  0.2943  0.9462  0.4379
14206TIP3    H164033   1.598   1.753  16.509  1.9201  1.9362 -0.3566
14206TIP3    H264034   1.594   1.851  16.393 -1.6081 -0.4929 -2.4626
14207TIP3   OH264035   1.432   0.268  14.994  0.3451  0.3392 -0.9484
14207TIP3    H164036   1.354   0.253  15.047  0.2367 -0.0512 -1.2193
14207TIP3    H264037   1.468   0.351  15.027  0.0908  0.2690 -0.4949
14208TIP3   OH264038   6.729   0.924   3.764 -0.9153 -0.0807  0.1826
14208TIP3    H164039   6.780   0.935   3.683 -1.9093  1.6945 -0.2514
14208TIP3    H264040   6.763   0.991   3.823 -2.7823  1.2457 -0.1674
14209TIP3   OH264041   5.929   2.551   6.025  0.8828  0.3296 -0.1423
14209TIP3    H164042   5.934   2.587   6.113  0.8406 -0.1001  0.0364
14209TIP3    H264043   6.018   2.560   5.990  0.8037  0.8886 -0.2149
14210TIP3   OH264044   1.920   5.229  10.430 -0.6870  0.4591  0.0577
14210TIP3    H164045   1.855   5.290  10.395  0.0789  0.6976 -1.0138
14210TIP3    H264046   1.991   5.285  10.461 -0.2920  0.1592 -0.2793
14211TIP3   OH264047   6.210   1.737  14.373 -0.4216  0.5323 -0.7561
14211TIP3    H164048   6.178   1.826  14.389  0.8689  0.7475  0.9302
14211TIP3    H264049   6.305   1.745  14.376 -0.2857 -1.0751  0.6415
14212TIP3   OH264050   2.928   0.460   0.810  0.1256  0.4379  0.4173
14212TIP3    H164051   2.895   0.480   0.898  1.0378  0.7603  0.6969
14212TIP3    H264052   2.941   0.365   0.810  0.7813  0.5265  0.8635
14213TIP3   OH264053   3.470   0.858  14.810  0.3658  0.7975  0.6160
14213TIP3    H164054   3.545   0.852  14.751 -0.0092 -2.4466  0.2874
14213TIP3    H264055   3.499   0.816  14.891 -0.6626  0.7296  0.9626
14214TIP3   OH264056   1.109   1.727   5.585 -0.4000 -0.0196  0.4372
14214TIP3    H164057   1.088   1.713   5.493  1.2214 -1.9901  0.2892
14214TIP3    H264058   1.025   1.747   5.627 -1.3687 -0.4523 -1.2248
14215TIP3   OH264059   6.543   4.015  14.467  0.0110 -0.2087 -0.4143
14215TIP3    H164060   6.589   4.097  14.484 -0.8348  0.0626  0.6780
14215TIP3    H264061   6.536   3.973  14.553 -1.2613 -0.4930 -0.6348
14216TIP3   OH264062   2.263   0.861   5.969 -0.1392  0.4532 -0.3900
14216TIP3    H164063   2.316   0.781   5.960  0.8694  1.0543  0.0721
14216TIP3    H264064   2.324   0.927   6.001 -1.3607  0.9643  0.9640
14217TIP3   OH264065   5.941   1.868   3.133 -0.7874  0.2972  0.1394
14217TIP3    H164066   5.887   1.926   3.186  0.8876 -0.7248  3.1925
14217TIP3    H264067   6.029   1.906   3.138 -0.3659 -0.4730 -1.0146
14218TIP3   OH264068   3.688   3.389  11.040  0.1580  0.1795  0.4930
14218TIP3    H164069   3.645   3.438  10.970  0.7418  0.3845  0.2697
14218TIP3    H264070   3.701   3.302  11.004  3.4458  1.1202 -0.9784
14219TIP3   OH264071   5.466   2.273  13.665 -0.2773 -0.3388 -0.0399
14219TIP3    H164072   5.555   2.258  13.697 -0.9817 -2.1951  1.1774
14219TIP3    H264073   5.449   2.200  13.605  0.0678  1.6754 -2.8085
14220TIP3   OH264074   1.754   5.831   6.164 -0.5624 -0.0976  0.2719
14220TIP3    H164075   1.717   5.896   6.223  0.9553  1.8708 -0.8049
14220TIP3    H264076   1.703   5.751   6.180 -3.2340  1.6175  0.8977
14221TIP3   OH264077   3.985   3.881  14.602  0.0400  0.6811 -0.6165
14221TIP3    H164078   4.046   3.932  14.655  0.4654  1.3923 -1.7527
14221TIP3    H264079   3.909   3.938  14.591  0.4064  0.9996 -1.6601
14222TIP3   OH264080   2.397   0.643  11.600  0.3147 -0.1931  0.1997
14222TIP3    H164081   2.410   0.551  11.577  2.4230 -0.4610  2.0727
14222TIP3    H264082   2.475   0.687  11.566  0.3323  0.5156  1.1166
14223TIP3   OH264083   1.459   4.026   3.966 -0.3263 -0.2068 -0.0583
14223TIP3    H164084   1.470   3.937   3.935  1.6971  0.1442 -0.4845
14223TIP3    H264085   1.464   4.019   4.062 -0.9827 -0.6325 -0.0531
14224TIP3   OH264086   3.397   3.141   2.705  0.1955  0.5277  0.1206
14224TIP3    H164087   3.352   3.161   2.787 -1.2837  1.4582 -0.8725
14224TIP3    H264088   3.330   3.152   2.638  0.4215 -3.3794 -1.0004
14225TIP3   OH264089   1.422   2.192  16.228 -0.3825  0.3310 -0.0008
14225TIP3    H164090   1.482   2.222  16.296 -0.0122 -2.0728  0.8188
14225TIP3    H264091   1.344   2.163  16.275  0.8867 -3.9382 -0.1026
14226TIP3   OH264092   2.596   4.764   1.109  0.2059 -0.2820 -0.3017
14226TIP3    H164093   2.583   4.678   1.069  0.8318 -0.6937  0.3602
14226TIP3    H264094   2.583   4.826   1.037 -1.0541 -0.8729 -0.6087
14227TIP3   OH264095   2.558   3.525   1.879 -0.2524 -0.3020 -0.6072
14227TIP3    H164096   2.606   3.446   1.852  0.8086 -0.1964  0.8077
14227TIP3    H264097   2.590   3.594   1.820  0.5445 -0.4736 -0.3936
14228TIP3   OH264098   1.865   3.697   2.380 -0.4610 -0.1699 -0.3468
14228TIP3    H164099   1.803   3.629   2.404 -0.5569  0.5773  1.8115
14228TIP3    H264100   1.902   3.726   2.464  0.9210  1.1638 -1.3511
14229TIP3   OH264101   1.206   1.484   3.382 -0.2617  0.4002 -0.5105
14229TIP3    H164102   1.272   1.428   3.423 -0.1675  1.1408  0.3903
14229TIP3    H264103   1.173   1.538   3.454 -2.9544 -0.9563 -0.6043
14230TIP3   OH264104   2.533   1.188   1.956 -0.4196 -0.1999  0.4137
14230TIP3    H164105   2.510   1.211   1.866  1.5851 -0.0810 -0.1116
14230TIP3    H264106   2.450   1.165   1.997 -1.5670  1.1063 -1.0618
14231TIP3   OH264107   4.229   1.175  16.035 -0.3770 -0.8790  0.0339
14231TIP3    H164108   4.211   1.117  15.961 -1.6342  0.1876 -0.5345
14231TIP3    H264109   4.168   1.146  16.103  1.6488 -2.7054  1.2067
14232TIP3   OH264110   4.793   0.726   1.624  0.1086 -0.1822  0.2922
14232TIP3    H164111   4.883   0.692   1.623  0.3616  0.4762 -0.4161
14232TIP3    H264112   4.770   0.736   1.532 -0.7153 -0.3956  0.4719
14233TIP3   OH264113   2.811   1.009   6.425  0.0267 -0.6732  0.1751
14233TIP3    H164114   2.781   1.020   6.515 -1.5629 -1.8514 -0.1764
14233TIP3    H264115   2.851   0.922   6.423  0.0433 -0.6599 -0.2524
14234TIP3   OH264116   4.737   1.195  13.792  1.3486  0.0445  0.3822
14234TIP3    H164117   4.673   1.133  13.826 -0.2970  1.1437 -0.5852
14234TIP3    H264118   4.754   1.255  13.864 -0.6267  1.1948 -0.0356
14235TIP3   OH264119   0.153   6.105  13.391  0.6177  0.5678 -0.4500
14235TIP3    H164120   0.206   6.089  13.313  0.6107  0.7070 -0.4841
14235TIP3    H264121   0.116   6.193  13.377  0.3184  0.4396 -0.4626
14236TIP3   OH264122   1.371   5.781  14.659  1.0114 -0.3524 -0.1769
14236TIP3    H164123   1.413   5.787  14.573  1.9786  0.2098  0.3163
14236TIP3    H264124   1.395   5.694  14.691  2.3792  0.1865  0.3632
14237TIP3   OH264125   4.537   2.692  15.074 -0.6529 -0.5932 -0.3383
14237TIP3    H164126   4.512   2.600  15.082  0.5761 -0.8688  0.6801
14237TIP3    H264127   4.630   2.690  15.054 -0.2167  0.4339  1.4192
14238TIP3   OH264128   4.842   2.850   0.004 -0.5539  0.7623 -0.0877
14238TIP3    H164129   4.813   2.830  -0.085 -2.0419 -0.3058  0.5888
14238TIP3    H264130   4.914   2.912  -0.007  0.1826 -0.3774 -2.0808
14239TIP3   OH264131   1.885   0.153  11.081 -0.4903  0.3547 -0.1376
14239TIP3    H164132   1.889   0.191  10.994 -0.5158  0.1009 -0.2499
14239TIP3    H264133   1.796   0.172  11.112 -0.6184  0.0755 -0.3344
14240TIP3   OH264134   3.844   0.409  13.998 -0.7108  0.3197 -0.0212
14240TIP3    H164135   3.823   0.490  14.046 -0.8840  1.5750 -2.1030
14240TIP3    H264136   3.936   0.418  13.975 -0.4059 -0.6669  0.7524
14241TIP3   OH264137   4.544   0.297  13.716 -0.7992 -0.1327  0.3112
14241TIP3    H164138   4.595   0.351  13.778 -2.4922 -0.7833  2.3654
14241TIP3    H264139   4.467   0.350  13.697 -0.9250 -0.5011 -0.2089
14242TIP3   OH264140   3.667   1.958  16.314 -0.2365  0.5387 -0.3927
14242TIP3    H164141   3.655   2.053  16.314 -1.7672  0.4154 -2.2421
14242TIP3    H264142   3.734   1.942  16.247 -1.3666  0.2430 -1.4947
14243TIP3   OH264143   5.872   0.071  15.015 -0.4333 -0.2625 -0.6807
14243TIP3    H164144   5.816   0.022  14.955 -0.5949  2.3504 -2.8499
14243TIP3    H264145   5.849   0.038  15.102 -3.2553 -1.3016 -1.7002
14244TIP3   OH264146   1.277   6.733   3.980  0.1075 -0.2208  0.3570
14244TIP3    H164147   1.300   6.753   4.070  1.4121 -0.6406  0.1444
14244TIP3    H264148   1.348   6.676   3.949 -0.3235 -0.1051 -0.9245
14245TIP3   OH264149   3.407   1.679   4.984  0.3552 -0.2546 -0.3229
14245TIP3    H164150   3.313   1.666   4.983  0.1660  0.9006  0.2544
14245TIP3    H264151   3.444   1.594   4.962 -0.8206 -0.6813 -0.7109
14246TIP3   OH264152   5.880   0.010   3.127 -0.5031  0.2911  0.2795
14246TIP3    H164153   5.816   0.072   3.093  0.1732  0.1829 -1.2871
14246TIP3    H264154   5.940   0.064   3.179 -0.5873  0.7642 -0.1016
14247TIP3   OH264155   2.131   6.253   2.164 -0.1331 -0.0612 -0.6336
14247TIP3    H164156   2.206   6.266   2.223 -1.3127  0.4702  0.8102
14247TIP3    H264157   2.130   6.332   2.109  0.0845  0.1554 -0.3300
14248TIP3   OH264158   5.710   4.245  12.948 -0.5099  0.6744 -0.0749
14248TIP3    H164159   5.795   4.288  12.959  0.1828 -0.5675 -0.2798
14248TIP3    H264160   5.724   4.157  12.983 -1.8563  0.5924  0.2968
14249TIP3   OH264161   2.573   1.925   4.754 -0.1580 -0.0408  0.3911
14249TIP3    H164162   2.532   1.938   4.839 -3.5420 -0.5404 -1.0197
14249TIP3    H264163   2.521   1.857   4.712  1.1784  0.4021 -2.2228
14250TIP3   OH264164   6.170   4.770  11.459 -0.0741  0.2553 -0.4568
14250TIP3    H164165   6.256   4.730  11.456 -0.2565 -0.3047  0.9030
14250TIP3    H264166   6.176   4.845  11.399  0.9324 -0.5336 -1.3758
14251TIP3   OH264167   4.164   3.298   2.932 -0.9212  0.6723  0.6131
14251TIP3    H164168   4.241   3.278   2.986 -0.2384 -1.8883 -1.1473
14251TIP3    H264169   4.100   3.232   2.958 -1.4446  0.9353 -0.0055
14252TIP3   OH264170   6.227   5.604   3.901  0.7068  0.1122 -0.3326
14252TIP3    H164171   6.243   5.661   3.826  1.4875 -0.2788 -0.4795
14252TIP3    H264172   6.314   5.587   3.936  0.2658  1.4236  1.5391
14253TIP3   OH264173   3.070   1.590  15.332  0.3201  0.1398 -0.1761
14253TIP3    H164174   2.991   1.596  15.387  0.8294 -1.6999  0.8575
14253TIP3    H264175   3.133   1.649  15.373  0.4026 -0.5609  0.7488
14254TIP3   OH264176   4.621   6.376   6.163  0.2875 -0.8223 -0.2844
14254TIP3    H164177   4.708   6.338   6.159  0.4741 -0.5010  0.4513
14254TIP3    H264178   4.631   6.463   6.123  0.4854 -0.5001  0.4311
14255TIP3   OH264179   1.320   5.792  10.966  0.2017  0.1626  0.1991
14255TIP3    H164180   1.364   5.763  11.045 -0.5355 -1.5069  0.0424
14255TIP3    H264181   1.269   5.716  10.937 -1.0537  1.3279 -0.8188
14256TIP3   OH264182   4.690   3.164  11.478  0.3952 -1.0707  0.1343
14256TIP3    H164183   4.767   3.218  11.459 -0.5754  0.2669 -0.1305
14256TIP3    H264184   4.639   3.215  11.540 -0.7703 -1.4740 -0.4527
14257TIP3   OH264185   0.080   3.187   3.721  0.2141  0.2011  0.0928
14257TIP3    H164186   0.015   3.249   3.688 -0.3809 -0.1805  0.5257
14257TIP3    H264187   0.151   3.190   3.657 -0.0244  0.9669 -0.1424
14258TIP3   OH264188   1.706   6.292   1.227  0.3660 -0.2383 -0.0536
14258TIP3    H164189   1.795   6.292   1.192  0.1698  0.9157 -0.5929
14258TIP3    H264190   1.715   6.329   1.315  0.5405 -1.0044  0.2581
14259TIP3   OH264191   0.290   1.277  15.686  0.1601 -0.7073 -0.6649
14259TIP3    H164192   0.223   1.278  15.617 -0.2907 -0.7542 -0.2267
14259TIP3    H264193   0.307   1.369  15.705  1.3047 -0.6406 -1.8096
14260TIP3   OH264194   2.584   4.005   0.686  0.1028  0.4417 -0.7482
14260TIP3    H164195   2.514   3.943   0.706  1.0346 -0.3753  0.1192
14260TIP3    H264196   2.665   3.955   0.700  0.9102  2.0314  0.6964
14261TIP3   OH264197   1.708   3.178  16.431 -0.9508  0.0516  0.2909
14261TIP3    H164198   1.785   3.223  16.467 -0.2926 -2.4019  2.2574
14261TIP3    H264199   1.634   3.232  16.457 -0.1172  0.7764  1.2465
14262TIP3   OH264200   4.649   2.001  12.905 -0.1671  0.5695  0.2190
14262TIP3    H164201   4.574   1.956  12.944  0.0470 -0.7026 -0.7697
14262TIP3    H264202   4.610   2.063  12.843 -0.4102 -0.8206 -1.0610
14263TIP3   OH264203   2.017   0.203   4.258  0.5649 -0.2863  0.1970
14263TIP3    H164204   2.029   0.202   4.163 -1.4004  0.3199 -0.0891
14263TIP3    H264205   2.091   0.255   4.291  1.9131 -1.4578 -0.8552
14264TIP3   OH264206   1.891   4.278   4.943  0.0344 -0.5101 -0.0288
14264TIP3    H164207   1.927   4.274   5.032  1.0487  1.6802 -0.2706
14264TIP3    H264208   1.806   4.321   4.953  0.5138  0.4986 -0.1806
14265TIP3   OH264209   4.844   0.172   1.169 -0.0394 -0.7938 -0.1730
14265TIP3    H164210   4.759   0.131   1.186 -0.0347 -1.0098 -0.6700
14265TIP3    H264211   4.903   0.098   1.156  0.3377 -0.6551  0.6750
14266TIP3   OH264212   6.618   3.398   2.515  0.4742  0.0099  0.6197
14266TIP3    H164213   6.653   3.349   2.589  0.3884 -2.8068 -1.0813
14266TIP3    H264214   6.693   3.412   2.457  0.0659 -0.1099  0.0472
14267TIP3   OH264215   5.273   0.612   3.529  0.9170 -0.2183  0.1815
14267TIP3    H164216   5.330   0.643   3.459  1.8453  0.0456  1.0351
14267TIP3    H264217   5.197   0.669   3.525  0.6295 -0.6542 -1.0521
14268TIP3   OH264218   6.010   1.013   4.434  0.0260  0.1666 -0.4676
14268TIP3    H164219   5.942   0.967   4.385 -2.3795  1.9545  0.9654
14268TIP3    H264220   6.061   0.943   4.475 -1.7008 -1.2642 -0.6276
14269TIP3   OH264221   6.136   1.331   0.038  0.2833  0.6987  0.5881
14269TIP3    H164222   6.170   1.266  -0.024  0.0477 -0.2450  1.4052
14269TIP3    H264223   6.153   1.415  -0.003  1.1190  0.1421 -0.2535
14270TIP3   OH264224   5.205   2.455  12.068  0.0083  0.1567 -0.2458
14270TIP3    H164225   5.288   2.407  12.070  0.1495  0.3812  1.9876
14270TIP3    H264226   5.215   2.523  12.135 -2.2715 -0.3382  0.6954
14271TIP3   OH264227   6.235   5.102  13.994 -1.0935  0.3664 -0.0023
14271TIP3    H164228   6.247   5.029  14.055 -0.4302  0.5432  0.0866
14271TIP3    H264229   6.322   5.119  13.959 -0.6887  2.8290  1.9415
14272TIP3   OH264230   2.852   0.693   5.940 -0.1410 -0.4588 -0.0647
14272TIP3    H164231   2.944   0.679   5.919  0.0738 -2.5760  1.8779
14272TIP3    H264232   2.850   0.779   5.981  1.0709 -0.5866  0.3035
14273TIP3   OH264233   3.722   6.747   0.529  0.5259  0.1407  0.4879
14273TIP3    H164234   3.775   6.700   0.594  1.6813  0.0956 -0.4486
14273TIP3    H264235   3.718   6.836   0.563  0.1173 -0.1420  1.2095
14274TIP3   OH264236   5.289   6.781   0.415 -0.4447 -0.3362 -0.3821
14274TIP3    H164237   5.215   6.735   0.376 -1.2862 -0.3529  1.1196
14274TIP3    H264238   5.258   6.804   0.503  0.9969  0.5303 -0.0713
14275TIP3   OH264239   1.243   4.716  14.555  0.6003 -0.3133 -0.1664
14275TIP3    H164240   1.208   4.804  14.562  0.4398 -0.4397  0.7698
14275TIP3    H264241   1.318   4.724  14.497 -0.7593  0.0130 -1.9527
14276TIP3   OH264242   1.450   0.842   5.664 -0.3416 -0.3789  0.2562
14276TIP3    H164243   1.428   0.822   5.754 -0.5411  0.3511  0.3773
14276TIP3    H264244   1.427   0.763   5.615 -0.7861 -0.5597  0.7511
14277TIP3   OH264245   5.458   6.758  12.280 -0.1058 -0.6814 -0.2087
14277TIP3    H164246   5.379   6.750  12.334 -0.4259 -1.0780 -0.7161
14277TIP3    H264247   5.528   6.777  12.342 -0.4425 -1.2425  0.3623
14278TIP3   OH264248   5.393   2.044   2.393  0.4856  0.1070 -0.7891
14278TIP3    H164249   5.413   1.999   2.475 -0.9447  2.7655  1.1828
14278TIP3    H264250   5.303   2.018   2.372 -0.1176  1.4185  0.0166
14279TIP3   OH264251   6.548   4.923   5.154  0.0579 -0.6526  0.3904
14279TIP3    H164252   6.545   5.019   5.157  0.7119 -0.2953 -3.9255
14279TIP3    H264253   6.456   4.896   5.144 -0.1297 -0.5443  1.6428
14280TIP3   OH264254   5.533   1.396  12.077  0.0071  0.0568  0.5718
14280TIP3    H164255   5.509   1.332  12.009 -1.2477 -0.4706  1.4709
14280TIP3    H264256   5.567   1.471  12.028 -1.2549 -0.1445 -0.6823
14281TIP3   OH264257   6.094   6.501   2.595  0.4024  0.3126 -1.0996
14281TIP3    H164258   6.126   6.584   2.633  2.6137 -0.8708 -0.1824
14281TIP3    H264259   6.076   6.446   2.671 -1.8501  0.1557 -1.6776
14282TIP3   OH264260   3.763   3.946   6.227 -0.3670 -0.4190 -0.0965
14282TIP3    H164261   3.851   3.959   6.261 -0.4522  0.4293 -0.1878
14282TIP3    H264262   3.736   3.861   6.264  0.2389 -0.3840  0.4527
14283TIP3   OH264263   4.242   2.443  14.402  0.3731 -0.2112 -0.2910
14283TIP3    H164264   4.237   2.419  14.495 -0.4838 -2.7552 -0.9180
14283TIP3    H264265   4.152   2.438  14.371  0.8004 -0.6430 -1.5308
14284TIP3   OH264266   5.419   5.642  13.997 -0.7017  0.8050  0.7947
14284TIP3    H164267   5.502   5.676  13.964 -0.6238 -0.0688  0.0338
14284TIP3    H264268   5.401   5.693  14.076  0.7373  0.7733  1.1723
14285TIP3   OH264269   5.824   1.787  16.930  0.6768 -0.0416  0.0612
14285TIP3    H164270   5.744   1.828  16.897  1.2753  1.7950  0.7969
14285TIP3    H264271   5.878   1.773  16.852 -0.4846 -1.7152 -0.5074
14286TIP3   OH264272   4.966   3.599  12.600 -0.6506 -0.1516 -0.0791
14286TIP3    H164273   4.974   3.514  12.558 -0.0611  0.8534 -2.1739
14286TIP3    H264274   5.024   3.594  12.677  2.1789 -0.5935 -2.0758
14287TIP3   OH264275   4.330   5.668  12.418  0.3260  1.0808  0.6613
14287TIP3    H164276   4.353   5.623  12.337 -0.2397 -1.5650  1.8630
14287TIP3    H264277   4.280   5.745  12.390  1.0331  0.8035 -1.4999
14288TIP3   OH264278   3.792   4.290   4.107 -0.1331 -0.5962 -0.7944
14288TIP3    H164279   3.840   4.347   4.168  0.9358 -0.9485 -1.2973
14288TIP3    H264280   3.722   4.252   4.161  1.7289 -2.1553  0.6833
14289TIP3   OH264281   5.016   6.093   5.485  0.1698 -0.5318  0.3362
14289TIP3    H164282   5.030   6.047   5.567  1.0534  1.5914  1.4578
14289TIP3    H264283   5.097   6.078   5.435  1.1316  0.9413  1.3433
14290TIP3   OH264284   2.326   4.629   0.207 -0.3352 -0.1815  0.1886
14290TIP3    H164285   2.357   4.694   0.270  0.3896  0.2008 -0.5395
14290TIP3    H264286   2.337   4.545   0.251  0.5067  0.0548  0.4457
14291TIP3   OH264287   6.605   5.810   1.384 -0.6336 -0.8615 -0.1027
14291TIP3    H164288   6.637   5.774   1.302 -1.5056 -1.2079 -0.3038
14291TIP3    H264289   6.664   5.776   1.450 -0.1297 -0.8573 -0.5450
14292TIP3   OH264290   5.590   4.677   5.684 -0.0107 -0.6850 -0.1625
14292TIP3    H164291   5.615   4.728   5.760 -2.2074 -2.4151  1.8635
14292TIP3    H264292   5.518   4.725   5.645  1.1910  0.2639 -1.3250
14293TIP3   OH264293   3.684   0.169  14.866 -0.2731  0.1656 -0.4401
14293TIP3    H164294   3.628   0.094  14.848 -0.0771  0.1956 -1.2051
14293TIP3    H264295   3.747   0.137  14.931  0.5763 -0.7099 -1.6478
14294TIP3   OH264296   2.480   2.718  13.930  0.1575  0.1528 -0.0099
14294TIP3    H164297   2.552   2.691  13.987 -0.2846 -0.9052  0.0802
14294TIP3    H264298   2.500   2.808  13.906  2.1538 -0.4917 -0.9616
14295TIP3   OH264299   1.024   3.296  13.000 -0.2740  0.2169 -0.2928
14295TIP3    H164300   0.962   3.360  12.965  0.2418 -0.4792 -2.5933
14295TIP3    H264301   0.969   3.235  13.050 -1.4278 -0.0784 -1.8337
14296TIP3   OH264302   4.493   5.076  15.845 -0.0298  0.0771 -0.0482
14296TIP3    H164303   4.444   4.997  15.870  1.3981 -0.5615  0.8690
14296TIP3    H264304   4.584   5.055  15.866  0.5694  1.4434 -1.1567
14297TIP3   OH264305   0.025   5.170   2.693  0.3071  0.1133 -0.4797
14297TIP3    H164306   0.077   5.243   2.727 -0.8708  1.0315 -0.5807
14297TIP3    H264307  -0.033   5.147   2.766 -0.8231  0.7470 -1.1456
14298TIP3   OH264308   6.123   2.069   1.384  0.3513 -0.2861  0.3829
14298TIP3    H164309   6.098   2.109   1.468 -2.2931 -3.5254  1.3771
14298TIP3    H264310   6.044   2.074   1.331  0.6919 -1.8593 -0.3350
14299TIP3   OH264311   3.197   4.137   1.871 -0.6729 -0.3111 -0.3389
14299TIP3    H164312   3.207   4.191   1.949 -0.4179 -0.5030 -0.2362
14299TIP3    H264313   3.105   4.146   1.847 -1.2589 -1.8596  1.1717
14300TIP3   OH264314   0.126   6.777  11.453 -0.3276 -0.5897 -0.2440
14300TIP3    H164315   0.138   6.837  11.527  0.2896  1.4984 -1.9007
14300TIP3    H264316   0.035   6.792  11.425  0.3097  0.9260 -1.6762
14301TIP3   OH264317   5.113   2.464  16.235 -0.2397  0.2575 -0.1464
14301TIP3    H164318   5.052   2.533  16.261  0.4861  0.7291  0.3648
14301TIP3    H264319   5.058   2.387  16.218 -0.9447  0.6030  0.5412
14302TIP3   OH264320   3.033   1.302   3.120  0.6664  0.0715 -0.2559
14302TIP3    H164321   3.075   1.352   3.049 -1.8461  0.9354 -1.2339
14302TIP3    H264322   3.029   1.212   3.086  1.6079 -0.0150 -0.1734
14303TIP3   OH264323   2.746   5.115  11.132  0.2960 -0.4964 -0.1534
14303TIP3    H164324   2.747   5.171  11.055  0.8328  1.4549  1.1877
14303TIP3    H264325   2.834   5.125  11.170  0.6410 -2.7916 -0.1909
14304TIP3   OH264326   0.672   5.463   0.722  0.3731  0.3497 -0.2595
14304TIP3    H164327   0.643   5.552   0.744  1.9466  1.2180 -1.4466
14304TIP3    H264328   0.750   5.449   0.775  0.2232 -0.2585 -0.1947
14305TIP3   OH264329   4.778   4.852  10.920  0.4907 -0.4074 -0.2927
14305TIP3    H164330   4.867   4.840  10.887  1.4047  3.6177  0.1069
14305TIP3    H264331   4.744   4.927  10.870 -2.9060 -2.0557 -0.7205
14306TIP3   OH264332   4.886   4.887   3.624 -0.5488  0.1576 -0.7394
14306TIP3    H164333   4.971   4.931   3.618 -1.1116  2.1294  2.8402
14306TIP3    H264334   4.834   4.929   3.555  0.1968  2.0577 -0.2149
14307TIP3   OH264335   2.816   3.345  14.560  0.2671  0.0368 -0.4008
14307TIP3    H164336   2.796   3.389  14.642 -1.5792 -0.3892 -0.5802
14307TIP3    H264337   2.839   3.416  14.500 -2.3378  0.8051 -0.5975
14308TIP3   OH264338   0.180   4.693  12.778  0.3190  0.0073 -0.0074
14308TIP3    H164339   0.252   4.648  12.735  0.7483  1.1977 -0.5988
14308TIP3    H264340   0.197   4.684  12.871  1.0936  0.0347 -0.1396
14309TIP3   OH264341   5.140   4.140   1.164 -0.5437 -0.3403 -0.1866
14309TIP3    H164342   5.179   4.091   1.091 -1.3603 -0.0844 -0.8184
14309TIP3    H264343   5.047   4.118   1.160 -0.5640 -0.5106  0.9465
14310TIP3   OH264344   1.813   6.004  16.841 -0.2227 -0.2453  0.3008
14310TIP3    H164345   1.785   5.913  16.851  0.0174 -0.4966 -1.0959
14310TIP3    H264346   1.735   6.056  16.862 -0.5675 -0.7938  0.3783
14311TIP3   OH264347   0.197   2.956  14.985  0.0418  0.3493  0.1054
14311TIP3    H164348   0.142   2.885  14.952 -0.1053  0.7052 -0.4341
14311TIP3    H264349   0.145   2.995  15.056 -0.3421  0.5891 -0.3030
14312TIP3   OH264350   4.702   1.808   5.439  0.1390  0.1262 -0.2646
14312TIP3    H164351   4.628   1.833   5.383 -0.3790  0.6086  0.6267
14312TIP3    H264352   4.743   1.891   5.464  2.2792 -0.1727 -2.4073
14313TIP3   OH264353   3.126   4.914  12.576  0.3822 -0.2338  0.3414
14313TIP3    H164354   3.217   4.884  12.572  0.6629  0.1004  2.8036
14313TIP3    H264355   3.077   4.838  12.608 -0.3508 -0.5842 -1.4912
14314TIP3   OH264356   0.122   6.357  15.791 -0.0063  0.3263  0.6254
14314TIP3    H164357   0.121   6.270  15.751  0.4034  0.7271 -0.3043
14314TIP3    H264358   0.118   6.417  15.716 -0.0030  1.1036  1.2409
14315TIP3   OH264359   3.801   0.327   3.003  0.4344 -0.3486  0.0314
14315TIP3    H164360   3.816   0.243   3.045  1.2773  0.2587  0.9967
14315TIP3    H264361   3.727   0.312   2.944  0.3387 -1.6591  0.4597
14316TIP3   OH264362   5.677   1.776   3.295  0.1163 -0.0553 -0.0667
14316TIP3    H164363   5.611   1.844   3.312 -0.0550 -0.2113 -0.1008
14316TIP3    H264364   5.749   1.798   3.353 -0.4754 -0.5993  0.8996
14317TIP3   OH264365   4.771   1.677  12.235 -0.3262  0.1851  0.1888
14317TIP3    H164366   4.739   1.690  12.146  0.1868  3.1085  0.3274
14317TIP3    H264367   4.848   1.620  12.226  0.6060  1.6212 -1.4818
14318TIP3   OH264368   5.392   4.726  15.543  0.7043  0.6692 -0.0683
14318TIP3    H164369   5.404   4.752  15.634  1.2583  0.2545 -0.0179
14318TIP3    H264370   5.330   4.790  15.508  0.2424  0.6440  0.6797
14319TIP3   OH264371   4.607   4.503  15.083  0.6333  0.6205  0.0524
14319TIP3    H164372   4.520   4.496  15.043 -0.1648 -0.6349  1.8856
14319TIP3    H264373   4.646   4.581  15.043 -0.6240  0.2156 -2.1037
14320TIP3   OH264374   0.515   0.484   6.358 -0.0697  0.3084  0.3566
14320TIP3    H164375   0.444   0.471   6.420 -1.9756  1.1458 -1.5116
14320TIP3    H264376   0.505   0.412   6.295  1.0756  0.1401  0.3422
14321TIP3   OH264377   2.832   3.341  13.077  1.1041  0.6986 -0.0950
14321TIP3    H164378   2.827   3.376  13.166 -0.9158 -0.9565  0.5452
14321TIP3    H264379   2.788   3.256  13.083  2.5997 -0.3223 -2.3002
14322TIP3   OH264380   0.079   6.115  11.071  0.0938 -0.0106 -0.2207
14322TIP3    H164381   0.145   6.149  11.131  0.7033  0.1669 -0.9852
14322TIP3    H264382   0.038   6.192  11.033 -1.6695 -0.0673  1.3901
14323TIP3   OH264383   5.642   0.718  15.674  0.6648  0.0785 -0.2584
14323TIP3    H164384   5.626   0.803  15.633 -2.2795  0.0675  0.6863
14323TIP3    H264385   5.689   0.668  15.606 -0.9824  1.1831 -2.3364
14324TIP3   OH264386   0.957   5.354  12.060 -0.1055 -0.6850  0.9627
14324TIP3    H164387   1.037   5.302  12.073  0.8645  0.4991 -0.0872
14324TIP3    H264388   0.988   5.443  12.045 -1.5264 -0.5097 -1.2830
14325TIP3   OH264389   3.962   2.760  12.528  0.0027  0.0413 -0.0818
14325TIP3    H164390   3.897   2.739  12.595  0.0431 -0.4263 -0.1854
14325TIP3    H264391   4.025   2.817  12.573 -0.6997  0.8403 -0.0940
14326TIP3   OH264392   0.275   4.021  12.159 -0.1271 -0.1960 -0.0235
14326TIP3    H164393   0.363   4.049  12.133 -0.1919 -1.4046 -1.7613
14326TIP3    H264394   0.270   4.039  12.253  2.6061 -1.6415  0.4915
14327TIP3   OH264395   1.044   3.916  14.717  0.4503 -0.2923  0.3767
14327TIP3    H164396   1.008   3.840  14.671 -0.6515  0.4901 -0.1314
14327TIP3    H264397   1.138   3.902  14.718  0.5926 -0.2194 -2.4480
14328TIP3   OH264398   4.813   4.921  12.286 -0.0029 -0.2143 -0.3582
14328TIP3    H164399   4.853   4.859  12.348 -2.4107 -2.6097 -1.0111
14328TIP3    H264400   4.859   5.003  12.302  2.7592 -1.8908  1.2291
14329TIP3   OH264401   2.966   5.809   6.121 -0.4252 -0.1807 -0.2823
14329TIP3    H164402   2.972   5.719   6.153 -2.1852  0.2407  1.4033
14329TIP3    H264403   2.890   5.846   6.167  0.2237  2.1562 -0.9674
14330TIP3   OH264404   2.002   0.977  14.095  0.2519 -0.2446  0.1276
14330TIP3    H164405   1.968   0.906  14.149  0.9194 -0.7194 -0.0727
14330TIP3    H264406   1.997   0.944  14.005  1.2494 -0.3278  0.0943
14331TIP3   OH264407   1.422   1.059   0.766  0.1106 -0.1822 -0.1441
14331TIP3    H164408   1.347   1.046   0.824  0.2370 -1.0887 -0.1839
14331TIP3    H264409   1.384   1.099   0.687 -0.4089 -1.0594 -0.3508
14332TIP3   OH264410   3.827   0.100   1.611 -0.6628  0.0093  0.1461
14332TIP3    H164411   3.867   0.183   1.584 -0.0055 -0.0801  0.8047
14332TIP3    H264412   3.862   0.084   1.698  2.0694 -2.7380 -1.2474
14333TIP3   OH264413   1.394   5.882   2.277 -0.0329 -0.4550  0.7446
14333TIP3    H164414   1.326   5.854   2.339 -0.3780 -1.6607 -0.1320
14333TIP3    H264415   1.450   5.806   2.266 -0.8896 -0.8464 -1.5827
14334TIP3   OH264416   3.827   2.781   3.293  0.2775  0.3243 -0.0473
14334TIP3    H164417   3.808   2.732   3.373  0.5994 -1.3019 -0.9214
14334TIP3    H264418   3.771   2.859   3.299  1.0777  0.8084  2.2409
14335TIP3   OH264419   5.322   3.721  12.347 -0.9116  0.2620  0.2211
14335TIP3    H164420   5.230   3.723  12.372 -0.4796  1.8401  1.8974
14335TIP3    H264421   5.364   3.786  12.404  1.4303 -1.1580  0.2358
14336TIP3   OH264422   0.138   5.386  14.966  0.3690  0.1947 -0.2716
14336TIP3    H164423   0.122   5.385  15.061  1.9931  2.0980  0.1024
14336TIP3    H264424   0.072   5.447  14.932  0.3718  0.2220 -0.2287
14337TIP3   OH264425   0.400   4.756   2.868  0.4451 -0.2215  0.1308
14337TIP3    H164426   0.482   4.744   2.915 -0.2438 -2.9762  0.8009
14337TIP3    H264427   0.338   4.698   2.912 -1.3361  0.2604 -1.5986
14338TIP3   OH264428   0.670   0.049   0.901 -0.0115 -0.1065 -0.7228
14338TIP3    H164429   0.639   0.039   0.991  1.7219 -1.5016 -0.2370
14338TIP3    H264430   0.590   0.053   0.848 -1.1165  1.9330  0.9350
14339TIP3   OH264431   3.233   0.700   0.904  0.2282 -0.1279 -0.4937
14339TIP3    H164432   3.213   0.737   0.818  1.4380  1.4761 -0.1286
14339TIP3    H264433   3.186   0.756   0.966  1.7719  0.6581  0.0425
14340TIP3   OH264434   0.686   3.854  15.844  0.3668 -0.5411  0.5584
14340TIP3    H164435   0.734   3.921  15.893  0.1670  0.6622 -0.8380
14340TIP3    H264436   0.749   3.784  15.832  0.7656 -0.3693  1.5348
14341TIP3   OH264437   1.257   5.619   6.119  0.0369  0.0767 -0.6189
14341TIP3    H164438   1.258   5.534   6.162  0.1273  0.4267  0.0824
14341TIP3    H264439   1.197   5.672   6.172 -0.0537  0.4359 -1.0748
14342TIP3   OH264440   0.586   4.319   4.572  0.0037  0.1788  0.5148
14342TIP3    H164441   0.609   4.229   4.550 -3.0193  0.0418 -3.0571
14342TIP3    H264442   0.507   4.311   4.627  0.6353  0.6973  1.5349
14343TIP3   OH264443   2.366   0.829  15.417  0.3124  0.0075 -0.3318
14343TIP3    H164444   2.454   0.811  15.447  0.1822  0.9743  0.6510
14343TIP3    H264445   2.375   0.904  15.359  0.1694 -0.0900 -0.4827
14344TIP3   OH264446   3.703   2.749  11.922  0.7161  0.2293  0.1872
14344TIP3    H164447   3.634   2.752  11.988  2.1596  0.5813  1.7430
14344TIP3    H264448   3.771   2.808  11.955  2.0396 -0.5956 -0.9515
14345TIP3   OH264449   3.146   4.839   0.414 -0.7726  0.9507 -0.3565
14345TIP3    H164450   3.142   4.904   0.485 -0.3535 -0.0660  0.6257
14345TIP3    H264451   3.087   4.769   0.442 -0.0678  0.2101 -0.6631
14346TIP3   OH264452   1.679   3.612  11.461  0.0589 -0.3519  0.0117
14346TIP3    H164453   1.684   3.518  11.447  1.8712 -0.5163  1.4030
14346TIP3    H264454   1.714   3.651  11.381 -0.0043 -0.8801 -0.2720
14347TIP3   OH264455   1.732   0.598  11.964  0.4995  0.8624 -0.3083
14347TIP3    H164456   1.671   0.530  11.934  0.6049 -0.8368  2.9485
14347TIP3    H264457   1.818   0.566  11.937  0.5106 -0.1694  0.8648
14348TIP3   OH264458   0.783   6.415   5.620 -0.4988  0.1501 -0.0149
14348TIP3    H164459   0.786   6.509   5.637  2.1774 -0.2562  2.6309
14348TIP3    H264460   0.829   6.405   5.536 -1.5842  1.2012 -0.7775
14349TIP3   OH264461   3.662   3.207   4.396  0.1717 -0.6049  0.7073
14349TIP3    H164462   3.604   3.187   4.470 -0.4059  0.7673  0.6454
14349TIP3    H264463   3.662   3.127   4.343 -0.6916 -1.0450  1.3562
14350TIP3   OH264464   6.427   2.695  12.523  0.0053 -0.1203 -0.0679
14350TIP3    H164465   6.387   2.627  12.468 -1.8366 -0.3072  1.3859
14350TIP3    H264466   6.488   2.647  12.579 -1.0260 -0.5641  0.7103
14351TIP3   OH264467   2.968   0.800  14.159 -0.5011 -0.4645  0.1245
14351TIP3    H164468   2.920   0.748  14.223 -2.0783 -0.0550 -0.6801
14351TIP3    H264469   2.928   0.887  14.163  0.1200 -0.1294 -0.6300
14352TIP3   OH264470   2.066   2.712   4.505 -0.2870  0.6240  0.1063
14352TIP3    H164471   2.148   2.702   4.455 -0.7282  1.1952 -0.7590
14352TIP3    H264472   2.085   2.780   4.569 -0.1283  0.8967 -0.2237
14353TIP3   OH264473   3.935   4.386   4.347  0.7358  0.0358  0.7312
14353TIP3    H164474   3.967   4.296   4.352 -1.8925 -1.1490 -1.2980
14353TIP3    H264475   3.845   4.381   4.379  0.3020  1.7935 -0.1068
14354TIP3   OH264476   0.633   2.043  12.218 -0.5981 -0.1020 -0.0348
14354TIP3    H164477   0.644   2.011  12.128  0.6502  1.4460 -0.4791
14354TIP3    H264478   0.538   2.041  12.232 -0.7861 -0.7421 -1.2350
14355TIP3   OH264479   0.552   5.508  12.803  0.2560  0.2712 -0.6620
14355TIP3    H164480   0.484   5.576  12.803  1.8111  1.9559 -2.6291
14355TIP3    H264481   0.567   5.489  12.711  1.1802 -1.4225 -0.1929
14356TIP3   OH264482   4.494   1.083   5.638  0.1680  0.4910 -0.1656
14356TIP3    H164483   4.425   1.022   5.662 -0.1487 -0.2309 -2.6201
14356TIP3    H264484   4.573   1.029   5.631  0.4780  0.8736  0.2827
14357TIP3   OH264485   3.625   4.573   6.581  0.5811 -0.0684 -0.4273
14357TIP3    H164486   3.598   4.555   6.671  1.7177 -0.9350 -0.2306
14357TIP3    H264487   3.550   4.617   6.542  0.0438  0.2910  0.9246
14358TIP3   OH264488   4.977   1.389   2.263  0.0160  0.1711  0.1918
14358TIP3    H164489   4.941   1.351   2.183 -1.8015  0.4730  0.8159
14358TIP3    H264490   4.989   1.315   2.322 -1.1583  0.2349  0.5355
14359TIP3   OH264491   4.010   3.926   3.903  0.6583  0.1196  0.5546
14359TIP3    H164492   3.929   3.876   3.911  0.1757  1.0800  2.1349
14359TIP3    H264493   3.982   4.013   3.876  1.5013 -0.3882 -2.3345
14360TIP3   OH264494   4.471   3.409   0.815  0.9142 -0.0992 -0.1354
14360TIP3    H164495   4.514   3.327   0.791 -0.8000 -0.9359 -0.5413
14360TIP3    H264496   4.454   3.453   0.732 -0.1085 -0.3934 -0.1016
14361TIP3   OH264497   0.601   1.091  10.948  0.7003 -0.2486 -0.4481
14361TIP3    H164498   0.641   1.173  10.919  1.6178  0.0548  1.4797
14361TIP3    H264499   0.623   1.028  10.880 -0.0866  1.0881 -2.0056
14362TIP3   OH264500   5.523   6.218   5.027 -0.0482 -0.4108 -1.1926
14362TIP3    H164501   5.578   6.297   5.026  0.2397 -0.4649  1.4228
14362TIP3    H264502   5.563   6.160   4.963  1.1823  0.6721 -1.4544
14363TIP3   OH264503   0.620   3.896   6.252  0.0603  0.4504 -0.0515
14363TIP3    H164504   0.555   3.921   6.317  0.0255  0.7664 -0.2062
14363TIP3    H264505   0.704   3.906   6.296  0.2293  3.2648 -0.8438
14364TIP3   OH264506   2.509   0.060   4.248 -0.1087  0.0175  0.0250
14364TIP3    H164507   2.509   0.009   4.167  1.8475  0.3358 -0.2259
14364TIP3    H264508   2.420   0.050   4.283 -1.1785  0.2916 -2.4070
14365TIP3   OH264509   2.582   0.491  15.786  0.1840 -0.3001 -0.3297
14365TIP3    H164510   2.560   0.402  15.815  0.7497 -0.1110  0.7503
14365TIP3    H264511   2.521   0.547  15.835  2.5953  0.2003  2.3842
14366TIP3   OH264512   1.684   2.166  14.408  0.1762  0.4326 -0.2035
14366TIP3    H164513   1.721   2.241  14.361 -0.5570  0.4479 -0.7778
14366TIP3    H264514   1.709   2.091  14.355 -1.2948  0.5160 -1.0593
14367TIP3   OH264515   0.957   0.738   5.085  0.2764  0.0771 -0.2208
14367TIP3    H164516   1.021   0.677   5.121  1.2114 -0.1532 -2.1362
14367TIP3    H264517   0.874   0.713   5.125  0.9211 -1.4204  0.2474
14368TIP3   OH264518   1.124   5.274   3.113 -0.2716  0.2365  0.3535
14368TIP3    H164519   1.152   5.195   3.066 -0.1274 -1.5219  3.1903
14368TIP3    H264520   1.050   5.306   3.062 -0.1124 -1.5142 -1.1090
14369TIP3   OH264521   4.596   4.873  14.690 -1.2162  0.0884  0.0077
14369TIP3    H164522   4.511   4.902  14.655 -1.3884  1.6102  1.5474
14369TIP3    H264523   4.577   4.848  14.781 -0.6058 -2.8292 -0.5454
14370TIP3   OH264524   0.816   1.498   0.523  0.1724 -0.3544 -0.4261
14370TIP3    H164525   0.793   1.589   0.510 -1.9222 -0.7801  0.0072
14370TIP3    H264526   0.832   1.490   0.617  0.7660 -0.3626 -0.5229
14371TIP3   OH264527   4.504   6.752   4.872 -0.5663  0.8043 -0.9137
14371TIP3    H164528   4.574   6.812   4.847 -0.9768  1.3214 -0.8329
14371TIP3    H264529   4.517   6.675   4.817  1.2971  0.0328  0.5180
14372TIP3   OH264530   2.942   2.712   1.047  0.1723 -0.0797 -0.1118
14372TIP3    H164531   3.021   2.658   1.047  1.4398  1.6654  1.5881
14372TIP3    H264532   2.953   2.772   0.974 -0.1546 -0.5973 -0.5927
14373TIP3   OH264533   1.808   3.529  15.268 -0.3722 -0.3608 -0.3464
14373TIP3    H164534   1.799   3.616  15.228 -0.2489 -0.5259 -0.7355
14373TIP3    H264535   1.903   3.515  15.272 -0.3796 -0.2694  0.1724
14374TIP3   OH264536   1.183   2.980   3.946 -0.1874  0.3815 -0.3791
14374TIP3    H164537   1.157   2.940   4.029  1.4028  1.4629  0.6939
14374TIP3    H264538   1.273   2.949   3.931  0.2015  1.6204 -0.7536
14375TIP3   OH264539   6.627   1.782   1.875  0.4427  0.4456 -0.1327
14375TIP3    H164540   6.701   1.721   1.879  0.3625  0.4004  1.4204
14375TIP3    H264541   6.562   1.737   1.820  0.5463 -0.7170  0.6526
14376TIP3   OH264542   0.612   4.914   2.184  0.3211  0.3082 -0.2106
14376TIP3    H164543   0.652   4.995   2.216 -1.0376  0.9628 -0.1336
14376TIP3    H264544   0.669   4.887   2.112  2.4646 -0.2801  1.5766
14377TIP3   OH264545   4.950   2.584  15.822 -0.1332  0.0637  0.8842
14377TIP3    H164546   4.999   2.653  15.778  0.9692 -0.2054  1.6613
14377TIP3    H264547   5.010   2.549  15.887 -0.6857 -1.5890  0.5572
14378TIP3   OH264548   4.491   3.118  13.752  0.6640 -0.6485 -0.1779
14378TIP3    H164549   4.450   3.161  13.828  1.4952 -1.3151  0.6805
14378TIP3    H264550   4.584   3.132  13.765  0.9405 -2.4121 -0.0303
14379TIP3   OH264551   1.538   1.057  16.942 -0.3753  0.2707  0.3979
14379TIP3    H164552   1.460   1.003  16.929 -0.4306  0.3205  0.5221
14379TIP3    H264553   1.566   1.039  17.032  1.0323 -1.4169 -0.3110
14380TIP3   OH264554   5.436   1.598   5.687  0.2242  0.2702  0.5561
14380TIP3    H164555   5.361   1.574   5.632  1.4507 -1.0220 -0.5992
14380TIP3    H264556   5.463   1.516   5.728  0.1702  0.9783  2.0948
14381TIP3   OH264557   5.435   6.516   5.495  0.0346  0.3934 -0.1057
14381TIP3    H164558   5.389   6.598   5.514  0.3035  0.3939  0.5532
14381TIP3    H264559   5.526   6.541   5.483  0.0514  0.2407 -0.3158
14382TIP3   OH264560   4.403   2.400   3.327  0.3983 -0.1754 -0.5963
14382TIP3    H164561   4.447   2.387   3.411  0.6800 -2.0637 -0.9793
14382TIP3    H264562   4.451   2.471   3.284  1.0572 -0.0736  0.3041
14383TIP3   OH264563   5.954   6.120  12.349 -0.2954  0.1010  0.4885
14383TIP3    H164564   5.991   6.201  12.383  1.0475  0.2889 -1.2839
14383TIP3    H264565   5.935   6.138  12.257  0.0130 -1.5748  0.0521
14384TIP3   OH264566   6.102   5.575   0.018 -0.3543 -0.3401  0.4577
14384TIP3    H164567   6.086   5.545   0.107  0.6507 -0.1036  0.7265
14384TIP3    H264568   6.196   5.594   0.015 -0.6543  1.2366 -0.1524
14385TIP3   OH264569   1.130   6.628   4.204 -0.1281  0.3225  0.3388
14385TIP3    H164570   1.076   6.632   4.283  0.9067  1.5383  1.0181
14385TIP3    H264571   1.204   6.686   4.222 -0.1363  1.0778 -1.7427
14386TIP3   OH264572   4.080   6.703   0.649 -0.0779  0.1098  0.1127
14386TIP3    H164573   4.076   6.709   0.553  0.7710  0.2237  0.0749
14386TIP3    H264574   4.019   6.769   0.679  0.3158  0.7059 -0.3585
14387TIP3   OH264575   3.786   5.989   0.469  0.0312  0.3558  0.3964
14387TIP3    H164576   3.852   5.991   0.539 -0.7389  0.3583  1.1393
14387TIP3    H264577   3.801   5.906   0.425  0.7306  0.4929  0.3568
14388TIP3   OH264578   2.470   1.592  12.131 -0.0642  0.3881  0.0787
14388TIP3    H164579   2.433   1.543  12.058 -2.7663 -1.0573  2.1997
14388TIP3    H264580   2.411   1.574  12.204  1.8695  2.5763  2.3870
14389TIP3   OH264581   0.834   0.765   0.656  0.5640  0.2140 -0.2865
14389TIP3    H164582   0.857   0.804   0.571  2.4341 -1.9782 -0.8838
14389TIP3    H264583   0.741   0.744   0.649  1.2778 -2.6889 -3.0702
14390TIP3   OH264584   1.656   6.187  15.758 -0.2526 -0.6757  0.0692
14390TIP3    H164585   1.712   6.118  15.794 -0.3423 -0.1847  1.1792
14390TIP3    H264586   1.568   6.165  15.788 -0.3613 -0.3543 -0.0139
14391TIP3   OH264587   0.462   2.826   4.582 -0.4772 -0.2610 -0.3718
14391TIP3    H164588   0.385   2.789   4.537  1.3287  0.6939 -4.8635
14391TIP3    H264589   0.447   2.920   4.580  0.0885 -0.1557  0.2567
14392TIP3   OH264590   6.154   5.297   0.537 -0.3302  0.2291  0.5488
14392TIP3    H164591   6.241   5.323   0.569  0.5232  0.8518 -2.0262
14392TIP3    H264592   6.100   5.375   0.545  0.2641  0.7969 -0.6903
14393TIP3   OH264593   4.085   0.880  16.943  0.1558 -0.0313  0.2018
14393TIP3    H164594   4.135   0.913  17.017 -0.9139  0.9837  0.5021
14393TIP3    H264595   4.059   0.959  16.895 -1.1003 -0.5209  0.0363
14394TIP3   OH264596   0.862   2.500  12.137  0.2093  0.3484 -0.6801
14394TIP3    H164597   0.868   2.435  12.068  0.3372  1.8745 -2.1802
14394TIP3    H264598   0.911   2.576  12.103 -0.5369  1.4864  0.6748
14395TIP3   OH264599   4.341   4.989  10.318  0.1024  0.2779  0.7017
14395TIP3    H164600   4.284   5.036  10.380  0.5119  0.6598  0.7953
14395TIP3    H264601   4.427   4.992  10.359 -0.1152 -1.9106  1.4741
14396TIP3   OH264602   4.318   0.387   1.362  0.8932 -0.2961  0.1348
14396TIP3    H164603   4.320   0.431   1.277 -1.6912 -1.2293 -0.5001
14396TIP3    H264604   4.265   0.445   1.417 -1.1772 -1.7286 -0.2416
14397TIP3   OH264605   2.578   4.443  11.736 -0.2085 -0.6618  0.1731
14397TIP3    H164606   2.649   4.407  11.684 -0.4161 -1.2985  0.3208
14397TIP3    H264607   2.567   4.381  11.808 -2.8864 -2.2468 -1.4421
14398TIP3   OH264608   1.583   0.843   3.672 -0.1349 -0.9372  0.4259
14398TIP3    H164609   1.609   0.912   3.733 -1.9602 -0.2099  0.4520
14398TIP3    H264610   1.561   0.769   3.727  0.8131 -1.1881  0.4694
14399TIP3   OH264611   2.571   1.775  10.355 -0.6858 -0.3423 -0.1359
14399TIP3    H164612   2.507   1.846  10.355 -0.2702  0.0446 -0.5071
14399TIP3    H264613   2.651   1.816  10.322 -0.0073 -0.6074  1.1359
14400TIP3   OH264614   6.315   6.701   5.157 -0.2610  0.6534  0.3646
14400TIP3    H164615   6.225   6.720   5.180 -0.2531  0.0689  0.9130
14400TIP3    H264616   6.316   6.607   5.140 -0.1654  0.9775 -1.5902
14401TIP3   OH264617   5.908   4.551   2.395  0.0494 -0.0418 -0.6369
14401TIP3    H164618   5.955   4.583   2.472  2.3046 -2.2474 -0.9784
14401TIP3    H264619   5.837   4.614   2.382  0.9035  1.5814  1.9309
14402TIP3   OH264620   1.877   3.885   4.724  0.3039 -0.5614  0.1435
14402TIP3    H164621   1.873   3.843   4.638  1.2988  1.0310 -0.7445
14402TIP3    H264622   1.965   3.863   4.756  0.1149 -0.7431  0.5382
14403TIP3   OH264623   6.268   6.008  10.942 -0.2398  0.3989 -0.2378
14403TIP3    H164624   6.281   5.922  10.903 -1.1590 -0.6219  1.5909
14403TIP3    H264625   6.341   6.019  11.003 -0.6381  0.4992  0.2250
14404TIP3   OH264626   4.550   6.544   3.691 -0.1977  0.6413  0.3294
14404TIP3    H164627   4.592   6.459   3.697 -0.9724  0.2600  0.5156
14404TIP3    H264628   4.619   6.604   3.661  0.0656 -0.2836 -1.0132
14405TIP3   OH264629   4.837   6.623  10.899 -0.6242 -0.3797 -0.0532
14405TIP3    H164630   4.922   6.607  10.858  0.4825  0.0985  1.8901
14405TIP3    H264631   4.813   6.711  10.872  0.6676  0.3940  1.1512
14406TIP3   OH264632   5.143   5.005   1.179 -0.3990 -0.7136 -0.0557
14406TIP3    H164633   5.071   5.034   1.123 -0.3487 -0.2778  0.1021
14406TIP3    H264634   5.103   4.991   1.265  0.2125  2.5352  0.8876
14407TIP3   OH264635   1.723   4.688  15.715 -0.0603  0.0222 -0.5234
14407TIP3    H164636   1.717   4.778  15.746 -0.2209 -0.0918 -0.2245
14407TIP3    H264637   1.747   4.697  15.622  1.3654  0.3326 -0.1488
14408TIP3   OH264638   0.025   0.039  11.822  0.0206  0.0232 -0.2096
14408TIP3    H164639   0.115   0.044  11.853 -1.0780 -0.0575  3.4115
14408TIP3    H264640  -0.010   0.128  11.836 -1.1163 -0.5602  0.8687
14409TIP3   OH264641   5.734   1.091   5.289  0.3668 -0.2717 -0.5821
14409TIP3    H164642   5.753   1.116   5.199 -1.5047 -0.9657 -1.2339
14409TIP3    H264643   5.760   0.999   5.294  0.9754 -0.0831 -0.2429
14410TIP3   OH264644   1.916   0.734  14.668  0.0252  0.1298  0.2662
14410TIP3    H164645   1.950   0.645  14.670 -1.1023 -0.3697 -1.0901
14410TIP3    H264646   1.952   0.775  14.746  3.3776 -0.4478 -0.7979
14411TIP3   OH264647   0.963   6.396  11.014 -0.0744 -0.1824 -0.5576
14411TIP3    H164648   1.052   6.383  10.980  1.3044  2.3790  1.6056
14411TIP3    H264649   0.969   6.476  11.066 -3.4181 -0.5395  0.6493
14412TIP3   OH264650   2.802   5.958   2.885  0.2249  0.2630 -0.5500
14412TIP3    H164651   2.884   5.909   2.895 -1.1097 -1.9109  0.4354
14412TIP3    H264652   2.782   5.952   2.791  0.2877 -0.8276 -0.5145
14413TIP3   OH264653   2.395   5.638  13.376 -0.1206  0.2979 -0.1424
14413TIP3    H164654   2.479   5.615  13.338  0.7460  1.7382  0.8045
14413TIP3    H264655   2.392   5.589  13.459 -0.5691 -0.3506 -0.5374
14414TIP3   OH264656   6.305   4.835  16.070  0.2160 -1.0982 -0.2126
14414TIP3    H164657   6.373   4.775  16.102 -0.4557 -2.3163 -1.0023
14414TIP3    H264658   6.354   4.901  16.021  0.9787 -0.9136  0.7502
14415TIP3   OH264659   0.960   2.003   0.920  0.5923  0.3850  0.0006
14415TIP3    H164660   1.045   2.047   0.918  0.5900  0.3948  0.0762
14415TIP3    H264661   0.957   1.950   0.841  0.8568  0.0268  0.2339
14416TIP3   OH264662   2.162   4.943  14.566 -0.1235  0.7247  0.4090
14416TIP3    H164663   2.113   4.879  14.515  0.8191 -1.3977  2.0146
14416TIP3    H264664   2.211   4.994  14.502 -0.9142 -0.1503 -0.9251
14417TIP3   OH264665   2.116   5.364   1.741  0.0791  0.0593 -0.3882
14417TIP3    H164666   2.166   5.387   1.663  0.6228  1.3729  0.2994
14417TIP3    H264667   2.039   5.318   1.709 -0.1086  1.2581 -1.7648
14418TIP3   OH264668   4.466   6.549   4.207 -0.0503  0.7697 -0.3819
14418TIP3    H164669   4.527   6.583   4.141 -0.0804 -1.1913 -1.5003
14418TIP3    H264670   4.397   6.507   4.156 -1.8461  2.0584  0.8913
14419TIP3   OH264671   2.757   0.778  12.377 -0.3136  0.7033 -0.5793
14419TIP3    H164672   2.698   0.720  12.425 -0.0233  0.6134 -0.3280
14419TIP3    H264673   2.699   0.843  12.337 -0.6854 -0.0709 -1.3074
14420TIP3   OH264674   2.907   2.833   1.765  0.2713  0.4462 -0.2676
14420TIP3    H164675   2.911   2.779   1.844  2.6783  1.9654  0.8031
14420TIP3    H264676   2.824   2.811   1.724 -0.8391 -0.8146  2.4141
14421TIP3   OH264677   5.291   6.324   5.306 -0.6654  0.0687 -0.3628
14421TIP3    H164678   5.289   6.377   5.385  0.2594  0.3705 -0.5285
14421TIP3    H264679   5.367   6.356   5.257  0.2895 -1.7965 -0.1960
14422TIP3   OH264680   5.609   6.018  14.496  0.1983 -1.0055 -0.2828
14422TIP3    H164681   5.654   5.985  14.574  0.6066 -0.2383 -0.1874
14422TIP3    H264682   5.634   6.110  14.490  0.2494 -1.0731 -1.3729
14423TIP3   OH264683   3.327   0.648   2.014 -0.4089  0.0354  0.1330
14423TIP3    H164684   3.311   0.712   2.083  1.1131  1.8459 -1.0951
14423TIP3    H264685   3.256   0.662   1.951  0.9075  1.8971 -1.0291
14424TIP3   OH264686   6.226   2.822  15.912 -0.3006 -0.6820 -0.1726
14424TIP3    H164687   6.206   2.729  15.923 -0.3746 -0.7071 -0.5217
14424TIP3    H264688   6.174   2.865  15.980  2.7182 -1.2044  2.7023
14425TIP3   OH264689   0.378   3.955   1.843 -0.3010  0.1812 -0.5718
14425TIP3    H164690   0.305   3.987   1.896 -1.2510 -1.1196 -1.0167
14425TIP3    H264691   0.453   3.956   1.902 -1.4448 -1.7878  1.0495
14426TIP3   OH264692   3.423   2.458  16.687 -0.0720  0.0848  0.3123
14426TIP3    H164693   3.459   2.481  16.773 -1.5009  0.7921  0.7487
14426TIP3    H264694   3.348   2.402  16.707  0.4767 -0.9933 -0.5540
14427TIP3   OH264695   2.615   4.352  14.757 -0.1758 -0.1327 -0.0524
14427TIP3    H164696   2.570   4.422  14.804 -0.4369 -0.8272  0.7606
14427TIP3    H264697   2.688   4.396  14.714  0.0304  0.5437  0.9457
14428TIP3   OH264698   6.302   1.659   4.351  0.0905 -0.1623  0.9638
14428TIP3    H164699   6.242   1.606   4.403 -1.2931  2.5096  2.3303
14428TIP3    H264700   6.296   1.746   4.390  0.7374  1.4938 -2.3045
14429TIP3   OH264701   1.236   0.553  13.181  0.8542  0.1727  0.5933
14429TIP3    H164702   1.186   0.505  13.248 -0.5191  0.0951 -0.4534
14429TIP3    H264703   1.178   0.558  13.106  1.5420  2.1613  0.1211
14430TIP3   OH264704   2.728   6.563  14.943 -0.2639 -0.9210  0.9120
14430TIP3    H164705   2.773   6.566  14.858 -0.0240 -0.3155  1.0586
14430TIP3    H264706   2.636   6.554  14.921 -0.1648 -1.1968  0.5938
14431TIP3   OH264707   4.885   3.093  12.615  0.1886 -0.3161  0.0193
14431TIP3    H164708   4.832   3.156  12.566 -0.2854 -0.6287  0.1194
14431TIP3    H264709   4.975   3.121  12.600  0.0158 -0.0035 -0.4736
14432TIP3   OH264710   0.826   4.753   4.166 -0.7118  0.5894  0.5108
14432TIP3    H164711   0.921   4.769   4.162 -0.7097  0.4962  0.0658
14432TIP3    H264712   0.817   4.678   4.225 -0.4821  0.4225  0.3382
14433TIP3   OH264713   0.673   4.319   4.256  0.3888 -0.2830  0.1771
14433TIP3    H164714   0.591   4.324   4.305  0.6710  0.7592  0.5643
14433TIP3    H264715   0.706   4.231   4.272 -1.5085 -1.3479 -1.3930
14434TIP3   OH264716   0.888   0.050  15.514  0.0197  0.3804 -0.3818
14434TIP3    H164717   0.796   0.048  15.485  0.3381  1.5339 -1.5785
14434TIP3    H264718   0.901  -0.035  15.557 -2.2252  1.0669  1.9066
14435TIP3   OH264719   0.352   0.992  15.871 -0.5260  0.3338 -0.2998
14435TIP3    H164720   0.409   0.940  15.814  0.1078 -0.9024  1.3900
14435TIP3    H264721   0.264   0.977  15.837 -0.2362 -0.9674 -0.5276
14436TIP3   OH264722   0.577   2.422   2.548 -0.1626  0.0485  0.1926
14436TIP3    H164723   0.497   2.372   2.559 -0.0828  0.0490  0.8549
14436TIP3    H264724   0.547   2.510   2.525 -0.3529  0.0358  0.3855
14437TIP3   OH264725   5.144   6.639  16.157  0.6199 -0.1117  0.5189
14437TIP3    H164726   5.095   6.585  16.095  2.6046  1.1132 -2.3158
14437TIP3    H264727   5.121   6.603  16.243 -1.8740 -2.2581 -0.9005
14438TIP3   OH264728   0.387   4.574  11.970  0.0541 -0.2614 -0.0460
14438TIP3    H164729   0.422   4.503  11.917  1.1792 -0.6182  1.1294
14438TIP3    H264730   0.349   4.635  11.906  1.2410 -0.7257 -1.2338
14439TIP3   OH264731   0.074   3.556   4.423  0.2481  0.3669 -0.2733
14439TIP3    H164732   0.042   3.547   4.333 -1.1905  0.8597  0.1760
14439TIP3    H264733   0.088   3.650   4.435 -1.0448  0.4826  0.4925
14440TIP3   OH264734   1.768   1.326   2.131  0.4917  0.2483  0.2408
14440TIP3    H164735   1.851   1.368   2.156  0.6966  0.0800 -0.1350
14440TIP3    H264736   1.795   1.240   2.097 -0.0743 -1.2227  3.1668
14441TIP3   OH264737   6.134   4.512  15.266 -0.5337 -0.2743  0.7353
14441TIP3    H164738   6.135   4.424  15.305 -0.4706 -0.6329 -0.0423
14441TIP3    H264739   6.044   4.541  15.275 -0.7028 -0.6936  0.4120
14442TIP3   OH264740   4.575   0.341  14.563 -0.5247 -0.3988  0.1608
14442TIP3    H164741   4.649   0.310  14.510  0.4058  1.3102  0.3921
14442TIP3    H264742   4.528   0.261  14.587  1.4814 -1.6090  0.3589
14443TIP3   OH264743   2.762   3.684  16.674 -0.1486  0.8404 -0.4611
14443TIP3    H164744   2.775   3.747  16.603  2.0453  0.1532 -0.7533
14443TIP3    H264745   2.765   3.599  16.630  2.0596  0.3631  0.4851
14444TIP3   OH264746   3.077   1.122   0.877 -0.2234 -0.2189 -0.0454
14444TIP3    H164747   3.064   1.043   0.825 -0.3273  0.4802 -1.1024
14444TIP3    H264748   3.009   1.182   0.846 -0.6010  0.0438  1.2416
14445TIP3   OH264749   4.037   6.035   3.951 -0.5228 -1.1998 -0.2601
14445TIP3    H164750   4.079   6.072   3.873  0.8231 -1.3112  0.3783
14445TIP3    H264751   4.051   6.101   4.019  0.5204 -2.1533  0.4964
14446TIP3   OH264752   3.550   0.988   4.962  0.0874 -0.0246  0.7158
14446TIP3    H164753   3.509   0.932   5.027  1.1432  0.3503  1.7495
14446TIP3    H264754   3.632   1.016   5.004  0.5344  0.6526 -0.5715
14447TIP3   OH264755   1.522   1.055  16.339  0.2178 -0.6077  0.7607
14447TIP3    H164756   1.498   0.974  16.293 -0.4238 -0.0046  0.0179
14447TIP3    H264757   1.454   1.066  16.406 -0.0732 -0.3237  0.4182
14448TIP3   OH264758   6.692   6.337  16.641  0.0499  0.4492  1.1210
14448TIP3    H164759   6.699   6.413  16.584 -0.6364  0.3992  0.9536
14448TIP3    H264760   6.776   6.333  16.687  0.7990  0.2247 -0.2110
14449TIP3   OH264761   3.378   0.967   4.026 -0.2411 -0.1183 -0.1925
14449TIP3    H164762   3.346   0.933   4.109 -0.8251 -0.3445 -0.5059
14449TIP3    H264763   3.356   0.900   3.961 -2.7044  1.3912 -1.0661
14450TIP3   OH264764   6.605   5.271   3.901  0.8700 -0.2395 -0.2349
14450TIP3    H164765   6.546   5.276   3.826  0.0231 -0.5207  0.3896
14450TIP3    H264766   6.636   5.181   3.901  0.8961 -0.2307 -0.2656
14451TIP3   OH264767   6.809   2.327   5.439 -0.6103  0.3631  0.4401
14451TIP3    H164768   6.716   2.328   5.418 -0.4336  0.6647 -0.3420
14451TIP3    H264769   6.814   2.370   5.525 -0.9359  2.7249 -0.6490
14452TIP3   OH264770   2.074   1.612  14.033 -0.2421  0.0028  0.2576
14452TIP3    H164771   2.131   1.562  14.092  0.6660  0.7546  0.0460
14452TIP3    H264772   2.109   1.702  14.037 -0.3768  0.1373 -1.1556
14453TIP3   OH264773   6.353   5.981  12.242  0.5878 -0.1708  0.2868
14453TIP3    H164774   6.283   5.948  12.298  1.6163 -1.7529  0.7060
14453TIP3    H264775   6.307   6.030  12.173 -0.7735  0.6840  1.7407
14454TIP3   OH264776   2.217   3.480   3.175  0.2709  0.4407  0.0871
14454TIP3    H164777   2.250   3.534   3.103 -0.0237 -0.6391 -0.8814
14454TIP3    H264778   2.122   3.490   3.170  0.2761  1.0738  0.9209
14455TIP3   OH264779   4.289   4.614  12.726  0.2930 -0.5174 -0.0244
14455TIP3    H164780   4.277   4.689  12.784 -2.0265 -1.8995  1.4391
14455TIP3    H264781   4.359   4.563  12.768  1.0605  0.2047 -0.3957
14456TIP3   OH264782   0.590   4.636   4.054 -0.3972 -0.2049 -0.1734
14456TIP3    H164783   0.681   4.663   4.066 -0.2063 -0.4897 -0.9067
14456TIP3    H264784   0.539   4.695   4.110  0.0630  1.1987 -1.1801
14457TIP3   OH264785   6.379   5.707   3.650 -0.0173 -0.2958  0.0878
14457TIP3    H164786   6.417   5.760   3.579 -0.9564  0.9373  0.4662
14457TIP3    H264787   6.452   5.693   3.710  0.3856  0.1044 -0.2947
14458TIP3   OH264788   4.557   4.142   5.376  0.1529  0.4822  0.0763
14458TIP3    H164789   4.642   4.098   5.367 -0.2071 -0.4125  0.8564
14458TIP3    H264790   4.493   4.073   5.359 -0.4290  1.1116 -0.3294
14459TIP3   OH264791   6.223   3.214  13.873 -0.2145 -0.1224  0.5335
14459TIP3    H164792   6.150   3.193  13.814 -0.3325  1.1306  0.1954
14459TIP3    H264793   6.195   3.294  13.918  2.1610  2.2474 -1.8623
14460TIP3   OH264794   1.097   5.137   3.637 -0.0542 -0.0373 -0.3304
14460TIP3    H164795   1.175   5.082   3.644 -0.3608 -0.3735  0.5260
14460TIP3    H264796   1.131   5.226   3.636  0.3772 -0.2013 -0.5107
14461TIP3   OH264797   5.517   2.089   4.685  0.0070  0.1674 -0.4628
14461TIP3    H164798   5.455   2.161   4.696 -0.5514 -0.1736 -1.1936
14461TIP3    H264799   5.461   2.012   4.672  0.5223 -0.8372  2.4774
14462TIP3   OH264800   2.871   1.650   4.549  0.3572 -0.2579  0.5824
14462TIP3    H164801   2.882   1.583   4.617  0.6318 -2.0017 -1.0935
14462TIP3    H264802   2.921   1.725   4.580 -0.8988 -0.3442  3.0863
14463TIP3   OH264803   0.414   5.196   4.837  0.3848  0.1779  0.7045
14463TIP3    H164804   0.353   5.226   4.904 -1.1493 -0.4017 -0.3669
14463TIP3    H264805   0.484   5.261   4.836 -1.5023  2.3083  0.2610
14464TIP3   OH264806   5.285   2.224  11.761 -0.8976  0.4986  0.1722
14464TIP3    H164807   5.268   2.190  11.673 -0.7800 -1.5169  0.8549
14464TIP3    H264808   5.366   2.181  11.788  1.4543  4.2738 -0.2283
14465TIP3   OH264809   0.985   5.782  12.601 -0.0905 -0.3884  0.2065
14465TIP3    H164810   0.958   5.697  12.634 -0.8540  0.8456  3.0613
14465TIP3    H264811   1.065   5.765  12.551 -1.5559 -3.0422 -1.4465
14466TIP3   OH264812   6.538   6.233  15.722 -0.1494 -0.5103  0.0380
14466TIP3    H164813   6.515   6.148  15.685  0.9355 -0.3485 -1.0625
14466TIP3    H264814   6.633   6.230  15.730  0.0364  1.0910 -1.2500
14467TIP3   OH264815   4.557   3.595  14.724 -0.2181 -0.0974 -0.3028
14467TIP3    H164816   4.502   3.670  14.702 -0.0118  0.7031  1.7273
14467TIP3    H264817   4.497   3.521  14.723 -1.0307  0.5268  0.3542
14468TIP3   OH264818   6.388   2.320  16.950 -0.0982 -0.3097  0.1765
14468TIP3    H164819   6.442   2.397  16.968  1.0835 -1.0886  0.0409
14468TIP3    H264820   6.326   2.317  17.022  1.3831 -0.5827  1.4824
14469TIP3   OH264821   3.170   4.438  13.013  0.7560 -0.1903  0.0658
14469TIP3    H164822   3.194   4.358  12.967  2.4215  0.4026 -0.1825
14469TIP3    H264823   3.077   4.429  13.031  0.7293 -1.7878 -0.7208
14470TIP3   OH264824   5.684   4.703  14.544 -0.0975  0.3220 -0.2693
14470TIP3    H164825   5.645   4.788  14.566  1.2644  0.6025  1.2399
14470TIP3    H264826   5.662   4.647  14.618  1.4363  0.1984  0.1201
14471TIP3   OH264827   0.046   5.669   0.500  0.5481  0.0006 -0.2779
14471TIP3    H164828   0.097   5.723   0.440 -1.0121  1.9406  0.0508
14471TIP3    H264829   0.025   5.590   0.450  3.5603 -0.7964 -0.5104
14472TIP3   OH264830   6.112   3.904  13.310 -0.1332  0.1424 -0.6157
14472TIP3    H164831   6.088   3.844  13.240 -2.2221 -0.8233  0.8364
14472TIP3    H264832   6.028   3.934  13.347  0.8721  1.0135  1.1260
14473TIP3   OH264833   1.734   6.069  16.413 -1.1609  0.4491 -0.1514
14473TIP3    H164834   1.774   6.146  16.374 -0.6566 -0.5925 -1.8242
14473TIP3    H264835   1.806   6.025  16.459 -1.1996  0.4415 -0.0984
14474TIP3   OH264836   4.691   3.096   0.034  0.0180 -0.2136 -0.6724
14474TIP3    H164837   4.746   3.164   0.074  0.3553 -0.5361 -0.5821
14474TIP3    H264838   4.745   3.017   0.037 -0.1808 -0.3733 -1.2362
14475TIP3   OH264839   2.996   6.803   0.220  0.5523 -0.2201  0.5659
14475TIP3    H164840   3.027   6.760   0.141  2.1489  1.8840 -0.0339
14475TIP3    H264841   2.993   6.896   0.198 -0.5302  0.2614  2.4861
14476TIP3   OH264842   1.106   4.846  15.367  0.0877 -0.2170 -0.6514
14476TIP3    H164843   1.200   4.855  15.385 -0.0179  0.9237 -0.6027
14476TIP3    H264844   1.064   4.907  15.428 -0.6994 -0.8196 -0.5798
14477TIP3   OH264845   2.997   2.447   0.106 -0.2188  0.0160 -0.0442
14477TIP3    H164846   3.012   2.385   0.178 -0.9697 -0.2845 -0.1346
14477TIP3    H264847   2.973   2.529   0.150  1.2917  0.4107  0.0909
14478TIP3   OH264848   6.082   5.919  15.518  0.3089  0.5025  0.5678
14478TIP3    H164849   6.135   5.921  15.438  1.5509 -1.1236  1.3101
14478TIP3    H264850   6.116   5.846  15.569 -0.7924  1.1666  2.3828
14479TIP3   OH264851   3.789   6.208  14.391  0.2491  0.5123 -0.3676
14479TIP3    H164852   3.709   6.233  14.437 -0.1745 -0.7895 -0.3453
14479TIP3    H264853   3.810   6.282  14.335 -0.5132  1.1952  0.2320
14480TIP3   OH264854   5.216   2.713   5.647 -0.1986 -0.1597  0.2909
14480TIP3    H164855   5.221   2.681   5.737 -1.2308  1.3712  0.9437
14480TIP3    H264856   5.290   2.773   5.639  0.5010 -1.0771 -0.2371
14481TIP3   OH264857   0.583   6.039   3.062 -0.5751  0.1505 -0.0353
14481TIP3    H164858   0.580   6.024   2.968 -0.2591  0.6109 -0.1212
14481TIP3    H264859   0.595   5.951   3.100  1.5518  0.1449 -0.5449
14482TIP3   OH264860   3.144   4.801   3.831  0.0526 -0.1190  0.4873
14482TIP3    H164861   3.108   4.746   3.900  2.6713 -1.0297  1.2359
14482TIP3    H264862   3.180   4.877   3.877  1.0635 -0.3242  0.0611
14483TIP3   OH264863   3.947   1.731  11.269 -0.2198 -0.7663 -0.5568
14483TIP3    H164864   3.952   1.685  11.354  0.6308  1.4003  0.6533
14483TIP3    H264865   4.036   1.725  11.234 -0.1498 -0.2353 -0.4785
14484TIP3   OH264866   6.206   2.985  11.092  0.0143 -0.8802 -0.1071
14484TIP3    H164867   6.114   3.008  11.077  0.0331  0.6094  1.7198
14484TIP3    H264868   6.255   3.059  11.058  0.3622 -0.4353  1.2976
14485TIP3   OH264869   1.644   1.644   4.283  0.1300 -0.5578  0.0624
14485TIP3    H164870   1.660   1.666   4.191 -0.5647  0.8479  0.2447
14485TIP3    H264871   1.620   1.552   4.282  0.7937 -0.7381 -1.0800
14486TIP3   OH264872   4.126   3.787   5.890 -0.0770  0.2549 -0.3767
14486TIP3    H164873   4.200   3.729   5.909 -1.2787 -1.0702  0.5066
14486TIP3    H264874   4.118   3.843   5.967  0.0426  0.4493 -0.5040
14487TIP3   OH264875   1.759   0.367  15.226 -0.0647 -0.2279  0.1863
14487TIP3    H164876   1.815   0.411  15.290  2.3619 -1.9963 -0.5483
14487TIP3    H264877   1.781   0.408  15.143  0.0348 -0.8116 -0.0837
14488TIP3   OH264878   0.559   1.856  15.555  0.0060  0.1695  0.5827
14488TIP3    H164879   0.502   1.821  15.485 -1.6255  0.8352  1.5328
14488TIP3    H264880   0.614   1.921  15.511  0.7507 -1.1691 -0.5479
14489TIP3   OH264881   2.092   2.756  17.015 -0.5203  0.3327 -0.5340
14489TIP3    H164882   2.034   2.706  16.958 -0.0933 -0.0247 -0.6696
14489TIP3    H264883   2.173   2.764  16.965  0.2371 -0.9159  0.4190
14490TIP3   OH264884   1.533   5.650  11.071 -0.4812 -0.3478  0.6338
14490TIP3    H164885   1.479   5.626  11.146 -0.1594 -1.2597  0.5887
14490TIP3    H264886   1.544   5.569  11.022  1.4323 -0.3405  0.9722
14491TIP3   OH264887   3.067   2.189  15.921 -0.2396 -0.4475  0.3286
14491TIP3    H164888   3.067   2.273  15.968 -0.9367 -0.9588  1.2754
14491TIP3    H264889   3.119   2.130  15.977 -0.0527 -0.7452 -0.1554
14492TIP3   OH264890   2.706   5.771  14.149  0.0533  0.0999  0.0003
14492TIP3    H164891   2.633   5.798  14.094 -0.5030  0.5650  0.9338
14492TIP3    H264892   2.784   5.793  14.099 -0.4335  0.9947 -0.3827
14493TIP3   OH264893   2.260   4.755   6.733  0.0579  0.0778  0.0401
14493TIP3    H164894   2.222   4.739   6.647  1.1197 -0.9555 -0.2651
14493TIP3    H264895   2.227   4.684   6.787 -1.7811  1.5261  0.9258
14494TIP3   OH264896   0.516   4.851   0.314 -0.2952  0.1301 -0.0912
14494TIP3    H164897   0.532   4.915   0.244  2.6522  1.3657  1.5199
14494TIP3    H264898   0.582   4.784   0.301  0.2836  0.3647  1.4418
14495TIP3   OH264899   6.269   2.867   2.156 -0.4261  0.1838 -0.7111
14495TIP3    H164900   6.187   2.915   2.160 -0.0779  0.8203 -1.0211
14495TIP3    H264901   6.314   2.902   2.079 -0.7985 -1.6942 -1.8408
14496TIP3   OH264902   4.954   3.136   0.463 -0.6327 -0.2250 -0.0851
14496TIP3    H164903   5.045   3.155   0.440 -0.7834  1.3368  0.4872
14496TIP3    H264904   4.903   3.188   0.402 -1.0665  1.6470  1.7454
14497TIP3   OH264905   1.050   1.583  15.500 -0.0904  0.5300 -0.5198
14497TIP3    H164906   0.976   1.641  15.484  1.2955  1.9471 -2.2027
14497TIP3    H264907   1.125   1.641  15.512  0.9158 -0.8756  0.3649
14498TIP3   OH264908   0.336   5.942  11.456  0.1200  0.2913 -0.5926
14498TIP3    H164909   0.417   5.956  11.506  0.1342  0.4169 -0.6499
14498TIP3    H264910   0.366   5.924  11.367  0.0976 -0.0218 -0.5369
14499TIP3   OH264911   3.127   6.037   1.550  0.1846  0.2727 -0.1118
14499TIP3    H164912   3.148   5.954   1.592 -0.2814 -0.2448 -0.8753
14499TIP3    H264913   3.037   6.056   1.577  0.6114  1.0278  0.8349
14500TIP3   OH264914   0.596   0.617  16.696  0.1748 -0.3975  0.2233
14500TIP3    H164915   0.612   0.554  16.766  0.4294  0.7294  1.2028
14500TIP3    H264916   0.544   0.686  16.737  0.9498  0.6504 -0.4884
14501TIP3   OH264917   6.434   4.975  13.330  0.7764 -0.4358 -0.0685
14501TIP3    H164918   6.482   4.994  13.411 -0.2006 -1.0873  0.6880
14501TIP3    H264919   6.485   4.905  13.289  0.4074 -1.2494  0.8172
14502TIP3   OH264920   2.187   0.118  12.351  0.4229 -0.0289 -0.3058
14502TIP3    H164921   2.135   0.037  12.356  0.2438  0.1293  0.5865
14502TIP3    H264922   2.211   0.126  12.258 -0.7488 -0.3494 -0.6482
14503TIP3   OH264923   4.094   5.139   4.776 -0.3213  0.3344  0.0242
14503TIP3    H164924   4.158   5.132   4.847 -1.3608 -0.1224  0.9470
14503TIP3    H264925   4.103   5.229   4.745 -0.0970  0.6554  0.9842
14504TIP3   OH264926   2.071   2.069  13.318 -0.8081 -0.1933 -0.0527
14504TIP3    H164927   2.131   2.143  13.331 -1.4606  0.5415 -1.1029
14504TIP3    H264928   1.991   2.096  13.364 -0.8883 -0.4582 -0.0385
14505TIP3   OH264929   1.238   5.634  16.600  0.0804 -0.0519 -0.2673
14505TIP3    H164930   1.179   5.660  16.529  0.3591  1.0131 -0.1224
14505TIP3    H264931   1.200   5.674  16.678 -0.1719 -1.1435  0.1767
14506TIP3   OH264932   5.908   0.050  16.358  0.4505  0.1781  0.1308
14506TIP3    H164933   5.952  -0.028  16.324  0.0790  0.0300 -0.0161
14506TIP3    H264934   5.828   0.058  16.305  0.6684  0.8681 -0.0997
14507TIP3   OH264935   4.744   3.753   3.997  0.2448  0.6886 -0.1043
14507TIP3    H164936   4.806   3.821   3.972 -1.2111  1.6439 -1.3047
14507TIP3    H264937   4.659   3.785   3.967 -1.0478 -0.0475  2.4250
14508TIP3   OH264938   5.123   5.200  11.317 -0.1815  0.1978 -0.0663
14508TIP3    H164939   5.199   5.159  11.277  0.6995  1.6780  0.0111
14508TIP3    H264940   5.048   5.153  11.280  0.6914 -0.0955 -1.5443
14509TIP3   OH264941   2.682   1.965   0.863  0.3210 -0.2418  0.1652
14509TIP3    H164942   2.757   1.967   0.803  0.2851  0.3962  0.1349
14509TIP3    H264943   2.715   2.005   0.944  0.1932 -0.5358  0.3611
14510TIP3   OH264944   3.387   5.927  16.406  1.0760  0.1171  0.5219
14510TIP3    H164945   3.404   6.020  16.421 -0.9143  0.4843  0.7905
14510TIP3    H264946   3.302   5.911  16.448  1.4466 -1.8727  0.6236
14511TIP3   OH264947   4.414   0.217   2.458  0.4173 -0.6550 -0.1795
14511TIP3    H164948   4.452   0.158   2.394  0.2211 -0.2337 -0.6961
14511TIP3    H264949   4.380   0.290   2.406 -0.8419 -0.8851  0.2845
14512TIP3   OH264950   4.083   4.775  12.573  0.0959 -0.0275 -0.1436
14512TIP3    H164951   4.107   4.786  12.666 -1.8994  1.7017  0.2265
14512TIP3    H264952   4.110   4.857  12.532 -0.2184 -0.2706 -0.8362
14513TIP3   OH264953   3.501   0.493  13.971  0.5136  0.2218  0.2556
14513TIP3    H164954   3.414   0.527  13.950  1.0366  2.3161  1.1191
14513TIP3    H264955   3.485   0.408  14.011 -1.3112  1.2335  1.8752
14514TIP3   OH264956   3.721   5.139   4.428  0.1238 -0.2306 -0.0758
14514TIP3    H164957   3.740   5.139   4.522  0.2585  1.0721 -0.0955
14514TIP3    H264958   3.730   5.230   4.401  0.4712 -0.6416 -1.4356
14515TIP3   OH264959   1.182   5.054   5.263 -0.0308 -0.1777 -0.4049
14515TIP3    H164960   1.089   5.036   5.277 -0.0340  0.4723  0.5514
14515TIP3    H264961   1.227   4.978   5.300 -0.1026  0.8648  2.0667
14516TIP3   OH264962   3.493   1.865   1.781  0.0175  0.5704 -0.4700
14516TIP3    H164963   3.580   1.838   1.754  0.7968 -0.1136  2.3880
14516TIP3    H264964   3.473   1.810   1.857 -2.3742  1.5766 -0.2745
14517TIP3   OH264965   6.741   4.872  16.703 -0.2270  0.4368  0.2725
14517TIP3    H164966   6.835   4.857  16.688 -0.1457  0.7916  0.4175
14517TIP3    H264967   6.737   4.956  16.749 -0.4529 -0.7699  2.6050
14518TIP3   OH264968   0.345   0.206   5.357  0.6190 -0.2223 -0.6035
14518TIP3    H164969   0.403   0.279   5.337  2.7855 -1.6489  0.0088
14518TIP3    H264970   0.355   0.194   5.452 -1.9080  0.3972 -0.1937
14519TIP3   OH264971   1.126   4.905  12.923 -0.0908 -0.6868 -0.5236
14519TIP3    H164972   1.114   4.912  13.018  1.1729 -1.0809 -0.3172
14519TIP3    H264973   1.195   4.840  12.912  0.9590  0.5669 -1.6295
14520TIP3   OH264974   0.039   1.739   1.473 -0.3072  0.3917  0.0685
14520TIP3    H164975   0.088   1.717   1.552  0.1277 -0.6913 -0.4866
14520TIP3    H264976  -0.047   1.767   1.505 -0.4282 -0.8548  0.8935
14521TIP3   OH264977   0.763   4.235   2.930 -0.3074 -0.2168  0.2602
14521TIP3    H164978   0.759   4.160   2.990  2.3586  1.2794  2.5403
14521TIP3    H264979   0.823   4.206   2.860  0.4909 -0.3662  0.9847
14522TIP3   OH264980   3.566   4.804   1.682  0.0983  0.4516 -0.6215
14522TIP3    H164981   3.579   4.713   1.707 -1.6681  0.5736  0.9299
14522TIP3    H264982   3.630   4.853   1.733 -0.5714  0.2775  0.4148
14523TIP3   OH264983   5.350   4.641   0.190 -1.0542  0.2839  0.2534
14523TIP3    H164984   5.324   4.579   0.258 -0.2514 -0.7900 -0.3847
14523TIP3    H264985   5.281   4.634   0.124 -0.5263 -0.6206 -0.2273
14524TIP3   OH264986   5.397   0.825  14.131 -0.0698 -0.0059  0.0556
14524TIP3    H164987   5.413   0.772  14.209 -0.3756  0.6312  0.5608
14524TIP3    H264988   5.335   0.773  14.079  0.1658 -0.4506  0.2175
14525TIP3   OH264989   6.489   5.351  12.123 -0.0310  0.2696 -0.3926
14525TIP3    H164990   6.557   5.418  12.127  1.4176 -0.8298 -3.4660
14525TIP3    H264991   6.418   5.391  12.072 -0.6905  0.5680  0.7135
14526TIP3   OH264992   1.969   2.582   2.114 -0.8306  0.1388 -0.9666
14526TIP3    H164993   1.889   2.552   2.070 -0.3294 -2.7276 -0.1291
14526TIP3    H264994   1.945   2.586   2.207 -0.1138 -0.4047 -0.7493
14527TIP3   OH264995   6.351   0.556   1.234  0.1826 -0.8620 -0.4140
14527TIP3    H164996   6.315   0.588   1.317 -0.1607 -2.1878 -0.0312
14527TIP3    H264997   6.286   0.493   1.203  1.0738 -1.5690 -0.8866
14528TIP3   OH264998   6.130   0.454   5.592  0.1226 -0.2527  0.2158
14528TIP3    H164999   6.162   0.380   5.540 -0.6927  0.2191 -1.0186
14528TIP3    H265000   6.186   0.455   5.670  1.3596 -1.0392 -0.6168
14529TIP3   OH265001   6.225   4.979   1.810  0.1789  0.4570 -0.0601
14529TIP3    H165002   6.261   5.068   1.817  0.1818  0.5028 -0.6505
14529TIP3    H265003   6.240   4.954   1.719 -1.1709  0.4271 -0.2914
14530TIP3   OH265004   2.972   1.800   4.130  0.5138  0.4043  0.2084
14530TIP3    H165005   2.988   1.766   4.042 -2.7209 -0.4583 -0.1727
14530TIP3    H265006   2.977   1.723   4.187  0.0224  0.5049  0.3896
14531TIP3   OH265007   3.844   6.324  12.262  0.2939  0.1041  0.3747
14531TIP3    H165008   3.885   6.252  12.310  1.1811  1.7356  2.1969
14531TIP3    H265009   3.814   6.385  12.330 -0.4512  1.4503 -1.0843
14532TIP3   OH265010   3.586   6.227   0.285 -0.0478  0.2907 -0.8717
14532TIP3    H165011   3.644   6.213   0.359 -0.2191  2.4280 -0.2586
14532TIP3    H265012   3.503   6.255   0.324 -0.6175  0.0063 -1.8384
14533TIP3   OH265013   4.375   6.810  13.382  0.3634 -0.1828  0.0854
14533TIP3    H165014   4.414   6.837  13.466  0.6120 -1.5535  0.4335
14533TIP3    H265015   4.451   6.796  13.325  0.3190 -1.4407  0.3225
14534TIP3   OH265016   3.082   2.856   5.398  0.3112  0.5391 -0.0248
14534TIP3    H165017   3.093   2.938   5.350 -2.1917  0.8536 -0.2018
14534TIP3    H265018   3.161   2.806   5.380  1.8789  2.8564  0.0117
14535TIP3   OH265019   4.056   5.679  12.640 -0.2749  0.3458 -0.0289
14535TIP3    H165020   4.029   5.764  12.675 -1.5191  0.5768 -1.4727
14535TIP3    H265021   4.120   5.646  12.704 -0.3380  2.0110  0.9422
14536TIP3   OH265022   3.725   6.353   2.975  0.8061 -0.0519  0.2124
14536TIP3    H165023   3.761   6.388   2.893  1.1162 -1.4279 -0.2674
14536TIP3    H265024   3.736   6.424   3.038 -0.1259  1.3230 -1.0911
14537TIP3   OH265025   2.713   6.319   5.829 -0.2773 -0.8297  0.2619
14537TIP3    H165026   2.700   6.286   5.918  1.3560  0.4562  1.0323
14537TIP3    H265027   2.798   6.364   5.832 -1.5297  1.8655 -1.1317
14538TIP3   OH265028   2.853   1.549   2.675 -0.1775 -0.1822  0.2039
14538TIP3    H165029   2.897   1.612   2.732  1.0142 -1.6409  0.9660
14538TIP3    H265030   2.833   1.599   2.596  3.6030  0.4739 -0.5486
14539TIP3   OH265031   2.996   0.490  15.860  0.5913  0.7339 -0.8890
14539TIP3    H165032   3.067   0.531  15.910  1.0059 -1.6355  0.6194
14539TIP3    H265033   2.919   0.544  15.879  0.5792 -0.3218  2.9825
14540TIP3   OH265034   0.741   0.835   4.001  0.3411 -0.4314  0.2430
14540TIP3    H165035   0.663   0.798   4.042  0.7882 -0.8939  0.7009
14540TIP3    H265036   0.756   0.918   4.046  0.4602 -0.6324  0.5742
14541TIP3   OH265037   6.776   2.953   0.572  0.2400  0.1477 -0.5379
14541TIP3    H165038   6.795   2.927   0.661 -0.6671 -1.0388 -0.6621
14541TIP3    H265039   6.696   3.006   0.579  2.2720  3.4284 -0.2398
14542TIP3   OH265040   2.246   1.093   0.228 -0.3859 -0.1568 -0.5225
14542TIP3    H165041   2.257   1.086   0.133  3.3795  0.5844 -0.2979
14542TIP3    H265042   2.238   1.002   0.258  2.7001 -0.8184 -1.3107
14543TIP3   OH265043   0.339   2.196  15.321  0.3410  0.4677 -0.0029
14543TIP3    H165044   0.285   2.167  15.395 -1.1652  0.3436 -1.0913
14543TIP3    H265045   0.417   2.233  15.361  1.1428 -2.6083  1.5704
14544TIP3   OH265046   1.652   5.592  15.968 -0.5446 -0.4785  0.0765
14544TIP3    H165047   1.610   5.547  15.894  1.4448 -2.0461 -0.1903
14544TIP3    H265048   1.598   5.570  16.044 -0.5396 -2.0078 -0.3301
14545TIP3   OH265049   5.272   2.729  10.489 -0.4626  0.5832 -0.0925
14545TIP3    H165050   5.215   2.766  10.556 -1.5072 -0.3916 -0.4222
14545TIP3    H265051   5.245   2.638  10.482  0.6591  0.2824 -0.7739
14546TIP3   OH265052   4.106   5.492  15.275  0.2944 -0.0296 -0.3126
14546TIP3    H165053   4.192   5.534  15.277 -0.4876  1.8376 -2.2786
14546TIP3    H265054   4.095   5.455  15.363  2.9940 -0.1667  0.0483
14547TIP3   OH265055   6.536   6.306  14.006 -0.0541 -0.0981 -0.7775
14547TIP3    H165056   6.575   6.361  14.073 -1.2524  1.2308 -1.1235
14547TIP3    H265057   6.570   6.341  13.923 -0.3179 -0.2884 -0.9710
14548TIP3   OH265058   5.074   3.499   2.514 -0.0663  0.2863 -0.6555
14548TIP3    H165059   5.040   3.429   2.570 -1.7318 -0.0077 -1.9289
14548TIP3    H265060   4.998   3.557   2.500  0.2465  0.2762 -2.6549
14549TIP3   OH265061   0.974   2.219   3.056  0.7706  0.3409  0.1733
14549TIP3    H165062   0.978   2.209   3.152 -0.0686  0.6506  0.2430
14549TIP3    H265063   1.049   2.276   3.035  1.7400 -0.7698  0.4883
14550TIP3   OH265064   3.747   3.866  12.649 -0.1048  0.3022  0.4029
14550TIP3    H165065   3.802   3.904  12.581 -1.5687 -0.7091 -1.4435
14550TIP3    H265066   3.809   3.823  12.709  1.1733  0.2648 -0.8953
14551TIP3   OH265067   5.935   5.511   4.493  0.3885  0.0296 -0.2271
14551TIP3    H165068   5.839   5.511   4.490  0.3586 -2.3437 -0.9709
14551TIP3    H265069   5.961   5.546   4.408  0.2163  0.6213 -0.0481
14552TIP3   OH265070   1.305   5.943   0.612  0.0695 -0.3666  0.4505
14552TIP3    H165071   1.287   6.035   0.592 -0.3777 -0.7493 -0.9986
14552TIP3    H265072   1.223   5.910   0.649  0.1855 -0.2302  0.8375
14553TIP3   OH265073   3.814   0.997   4.647  0.5443 -0.1799 -0.2976
14553TIP3    H165074   3.855   0.956   4.571 -0.2771 -2.1485  0.2703
14553TIP3    H265075   3.773   0.925   4.695  0.3097  1.1202  1.5763
14554TIP3   OH265076   1.110   2.356   5.851  0.1223 -0.2516 -0.1227
14554TIP3    H165077   1.153   2.352   5.937 -0.3719 -0.3193  0.1255
14554TIP3    H265078   1.178   2.387   5.792  0.1841  0.8272  0.4861
14555TIP3   OH265079   3.169   6.667  13.517 -0.2065 -0.1064  0.5371
14555TIP3    H165080   3.153   6.642  13.426  0.9317  1.0165  0.0086
14555TIP3    H265081   3.241   6.729  13.513  1.9809 -2.3056  2.4727
14556TIP3   OH265082   1.098   0.436   4.467  0.0286  0.3535  0.7347
14556TIP3    H165083   1.185   0.402   4.487 -0.3637 -0.3988  1.2359
14556TIP3    H265084   1.062   0.374   4.403  0.3745  1.4277 -0.5296
14557TIP3   OH265085   5.685   6.506  14.283 -0.6197 -0.0089 -0.0579
14557TIP3    H165086   5.721   6.528  14.197 -0.9983 -2.3165 -0.8695
14557TIP3    H265087   5.762   6.488  14.337 -0.4068  0.2437 -0.2752
14558TIP3   OH265088   4.044   3.478   0.404  0.5878 -0.5750 -0.0186
14558TIP3    H165089   3.952   3.483   0.378  0.6203 -0.4547 -0.1137
14558TIP3    H265090   4.084   3.555   0.364  0.7001 -0.5485  0.1433
14559TIP3   OH265091   3.516   3.072  15.656 -0.3411  0.0693 -0.2042
14559TIP3    H165092   3.523   3.138  15.726  3.1537  0.1164 -0.4318
14559TIP3    H265093   3.536   2.989  15.700  1.7623  0.0833 -1.0732
14560TIP3   OH265094   5.949   3.487  13.661 -0.0614 -0.0387  0.0591
14560TIP3    H165095   5.972   3.457  13.573 -0.5791  1.0603 -0.4727
14560TIP3    H265096   5.914   3.576  13.648 -1.0484 -0.2171  1.2546
14561TIP3   OH265097   2.593   1.742  14.936 -0.0743 -0.4455  0.0338
14561TIP3    H165098   2.659   1.804  14.904 -0.2405 -0.0777  0.3999
14561TIP3    H265099   2.598   1.669  14.874  0.6196 -0.3852  0.0007
14562TIP3   OH265100   5.272   4.278   3.508  0.2655 -0.0898  0.2175
14562TIP3    H165101   5.190   4.319   3.535  0.3968  1.3284 -1.4163
14562TIP3    H265102   5.340   4.341   3.533  1.0300 -1.6030  2.3241
14563TIP3   OH265103   1.153   5.622  11.742  0.0251  0.0674  0.5018
14563TIP3    H165104   1.233   5.672  11.760  0.9286 -1.3085  0.4145
14563TIP3    H265105   1.183   5.533  11.727 -1.3553 -0.1658 -1.2291
14564TIP3   OH265106   1.636   0.469   2.273  0.2453  0.0639  0.6624
14564TIP3    H165107   1.608   0.451   2.363  0.7941  0.5975  0.9513
14564TIP3    H265108   1.668   0.385   2.241 -2.9008 -0.9284 -0.1822
14565TIP3   OH265109   4.498   4.873   0.363  0.4699  0.1017  0.7660
14565TIP3    H165110   4.543   4.943   0.316 -1.2602  0.3364 -0.6338
14565TIP3    H265111   4.502   4.798   0.303 -2.2516  0.5611 -0.1214
14566TIP3   OH265112   5.019   2.906  12.782 -0.6340 -0.0210  0.9692
14566TIP3    H165113   4.950   2.968  12.759  0.3379 -0.0723 -2.7950
14566TIP3    H265114   4.975   2.821  12.784 -0.8907  0.0191 -0.8293
14567TIP3   OH265115   3.128   0.704  13.549 -0.4363  0.5641  0.7812
14567TIP3    H165116   3.097   0.793  13.567 -0.5958  0.2284  2.2773
14567TIP3    H265117   3.064   0.647  13.590  0.4719 -0.2060  1.1820
14568TIP3   OH265118   0.615   0.382  10.632 -0.0755  0.1058 -0.0766
14568TIP3    H165119   0.685   0.377  10.567  0.4216 -1.0262  0.5289
14568TIP3    H265120   0.537   0.351  10.587 -0.2309  1.3925 -0.7612
14569TIP3   OH265121   3.009   3.113  10.378 -0.6093 -0.0588 -0.6310
14569TIP3    H165122   2.986   3.120  10.286  0.1169  1.1920 -0.7313
14569TIP3    H265123   2.931   3.074  10.419 -1.2756  0.1981 -1.6145
14570TIP3   OH265124   4.696   0.139   4.858 -0.2753 -0.2408  0.2969
14570TIP3    H165125   4.706   0.176   4.945 -0.4261 -1.0402  0.6655
14570TIP3    H265126   4.784   0.111   4.833 -0.3106 -0.4435  0.3954
14571TIP3   OH265127   6.148   3.830   2.891 -0.3973 -0.3311 -0.2363
14571TIP3    H165128   6.126   3.821   2.984  0.7851  3.8205  0.6735
14571TIP3    H265129   6.085   3.894   2.859  1.2492  0.7845 -1.3673
14572TIP3   OH265130   2.112   5.371  10.543  0.2205 -0.2562  0.1601
14572TIP3    H165131   2.122   5.426  10.621  0.7018 -2.6189  1.8793
14572TIP3    H265132   2.197   5.378  10.499  0.7152 -0.5562  1.0331
14573TIP3   OH265133   0.266   1.724  11.982  0.0737  0.0048  0.1216
14573TIP3    H165134   0.354   1.708  11.948  0.2529 -1.3492  1.1199
14573TIP3    H265135   0.213   1.655  11.942 -0.7165  1.2426 -1.0340
14574TIP3   OH265136   5.468   2.228   4.185  0.3378  0.4914 -0.0212
14574TIP3    H165137   5.550   2.193   4.151 -0.3089 -1.0974 -0.0563
14574TIP3    H265138   5.408   2.154   4.182 -0.8228  1.3548  0.9506
14575TIP3   OH265139   6.250   1.435  12.931 -0.4501 -0.2373  0.6912
14575TIP3    H165140   6.270   1.482  12.850  0.8066 -1.0012  0.5398
14575TIP3    H265141   6.165   1.471  12.959  0.2541  1.8202  0.3644
14576TIP3   OH265142   0.883   2.811  13.595  0.0852  0.5898 -0.3732
14576TIP3    H165143   0.800   2.801  13.641  1.5643 -0.1196  2.3621
14576TIP3    H265144   0.917   2.895  13.623  0.4312  0.7726 -1.2813
14577TIP3   OH265145   0.731   2.137  15.590  0.2249  0.1553  0.1186
14577TIP3    H165146   0.737   2.217  15.642  0.9793  0.3827 -0.2982
14577TIP3    H265147   0.781   2.072  15.639 -0.6289 -0.1537  0.6028
14578TIP3   OH265148   6.690   4.966   3.974 -0.3501  0.4707 -0.6988
14578TIP3    H165149   6.751   4.893   3.973  1.6466  2.0053  0.4602
14578TIP3    H265150   6.630   4.946   4.046 -1.0809 -0.9079 -1.6511
14579TIP3   OH265151   2.593   0.059  16.130 -0.2872  0.1312 -0.1185
14579TIP3    H165152   2.538   0.003  16.184  2.0773 -0.3493  2.0142
14579TIP3    H265153   2.678   0.058  16.174  0.8801  2.4349 -2.0806
14580TIP3   OH265154   2.969   3.601  12.992 -0.0259  0.0302 -0.0096
14580TIP3    H165155   2.916   3.671  12.953 -0.7868  0.3592  1.5506
14580TIP3    H265156   2.921   3.521  12.972 -0.4051  0.1966  0.2211
14581TIP3   OH265157   2.249   1.875  13.242  0.4189 -0.0290 -0.6581
14581TIP3    H165158   2.207   1.954  13.275 -2.0397 -0.5075 -2.3960
14581TIP3    H265159   2.224   1.807  13.306  2.4705  0.4774  0.7938
14582TIP3   OH265160   0.708   6.707  12.556 -0.1279  0.5130 -0.1084
14582TIP3    H165161   0.622   6.667  12.565  0.3279 -0.1921  1.4903
14582TIP3    H265162   0.768   6.643  12.593  1.1038  1.0144 -1.1399
14583TIP3   OH265163   3.398   3.237  14.817 -0.1893 -0.0688  0.2178
14583TIP3    H165164   3.408   3.258  14.910  1.3800 -0.0697  0.0722
14583TIP3    H265165   3.441   3.153  14.806  0.4117  0.3421 -0.6669
14584TIP3   OH265166   1.016   5.969  12.144 -0.5339  0.0957 -0.0113
14584TIP3    H165167   0.945   5.928  12.192 -1.1694  1.7759  0.5814
14584TIP3    H265168   1.040   6.045  12.197  0.1812  0.8132 -1.2976
14585TIP3   OH265169   1.205   0.378   1.885 -0.0482  0.3375  0.0438
14585TIP3    H165170   1.113   0.397   1.866 -0.4700  0.1956  1.7163
14585TIP3    H265171   1.234   0.452   1.938  1.4367  1.3764 -2.0935
14586TIP3   OH265172   5.733   6.133  12.564  0.6218  0.3782 -0.7402
14586TIP3    H165173   5.638   6.142  12.563  0.5250 -0.3678  0.5353
14586TIP3    H265174   5.763   6.188  12.491 -0.6819  1.7548 -0.2902
14587TIP3   OH265175   6.267   0.086   4.016  0.4607 -0.1571 -0.0185
14587TIP3    H165176   6.295   0.156   3.957 -0.7057  0.7127  0.4199
14587TIP3    H265177   6.277   0.123   4.104  0.3091 -0.7286  0.2453
14588TIP3   OH265178   4.076   3.217  10.896 -0.6947 -0.1257 -0.0142
14588TIP3    H165179   3.992   3.263  10.898 -0.7323 -0.0508 -1.6814
14588TIP3    H265180   4.056   3.128  10.924 -1.1367  0.1587  0.5872
14589TIP3   OH265181   0.220   5.764  12.510 -0.0722  0.0162 -0.2643
14589TIP3    H165182   0.263   5.793  12.430  1.6821 -0.2636  0.5297
14589TIP3    H265183   0.127   5.761  12.488  0.3054  0.5835 -2.0742
14590TIP3   OH265184   5.039   4.860  10.760 -0.1056  0.1334 -0.7495
14590TIP3    H165185   5.029   4.898  10.672  0.9274 -0.7190 -1.2469
14590TIP3    H265186   5.063   4.769  10.744  0.5277  0.0845  0.4193
14591TIP3   OH265187   1.595   4.339  12.275  0.5263  0.5308 -0.1972
14591TIP3    H165188   1.643   4.268  12.317  1.1219  0.4618 -0.9660
14591TIP3    H265189   1.662   4.385  12.224  0.3903  2.3060  1.1136
14592TIP3   OH265190   3.880   3.373  15.815 -0.0709  0.4183  0.1736
14592TIP3    H165191   3.928   3.332  15.742  0.6136 -0.6091  1.1715
14592TIP3    H265192   3.948   3.399  15.877 -0.6701  1.0298  0.5831
14593TIP3   OH265193   2.597   1.186  14.776  0.1698  0.0520  0.3933
14593TIP3    H165194   2.594   1.280  14.793 -2.2439  0.5486 -2.0526
14593TIP3    H265195   2.526   1.150  14.829 -0.6162  0.0673 -0.6097
14594TIP3   OH265196   6.757   0.012   0.428  0.0803 -0.0044 -0.6533
14594TIP3    H165197   6.661   0.020   0.424 -0.1028 -1.4538  0.0694
14594TIP3    H265198   6.775  -0.077   0.396  1.0473 -0.2606  0.5235
14595TIP3   OH265199   1.957   1.005   3.075  0.0093 -0.5279  0.1106
14595TIP3    H165200   2.009   1.033   3.151 -0.5654  0.3713  0.1897
14595TIP3    H265201   1.866   1.005   3.106 -0.2597  0.0852 -0.6326
14596TIP3   OH265202   4.144   6.531   1.936 -0.6557 -0.6112 -0.3716
14596TIP3    H165203   4.076   6.498   1.878  0.1365 -0.5308 -1.3666
14596TIP3    H265204   4.222   6.541   1.881 -0.3921  1.3377  0.2469
14597TIP3   OH265205   3.945   1.763   0.584  0.0071  0.0269 -0.2737
14597TIP3    H165206   3.859   1.726   0.602  0.4614 -0.8602  0.1830
14597TIP3    H265207   3.938   1.855   0.608 -1.0944  0.2089 -1.2148
14598TIP3   OH265208   0.175   5.346   2.857 -0.1000  0.0419  0.2074
14598TIP3    H165209   0.239   5.275   2.863  0.5524  0.6971  1.2757
14598TIP3    H265210   0.111   5.326   2.924  0.2995  0.6544  0.7861
14599TIP3   OH265211   0.888   2.371   5.257 -0.0396  0.0356  0.4633
14599TIP3    H165212   0.810   2.363   5.203  0.9178 -0.4431 -0.9050
14599TIP3    H265213   0.924   2.282   5.261  0.7507  0.3511  0.5698
14600TIP3   OH265214   5.816   5.536   2.613 -0.5143 -0.3748 -0.0092
14600TIP3    H165215   5.724   5.534   2.642 -0.9584 -0.7243 -1.3935
14600TIP3    H265216   5.848   5.448   2.630  0.4276  0.4086  2.9781
14601TIP3   OH265217   6.290   0.132   3.398  0.3287 -0.0661 -0.1696
14601TIP3    H165218   6.353   0.062   3.411  0.8752  0.7898  2.2428
14601TIP3    H265219   6.343   0.211   3.387 -0.3021  0.4736  0.5863
14602TIP3   OH265220   3.628   2.514  15.859  0.4659 -0.1160 -0.7546
14602TIP3    H165221   3.694   2.455  15.895 -0.2680 -0.5202 -0.0163
14602TIP3    H265222   3.568   2.457  15.811 -0.5203 -0.0644  0.3697
14603TIP3   OH265223   0.293   4.947  12.190  0.4558  0.3532  0.1588
14603TIP3    H165224   0.259   4.870  12.144  1.5712  0.5607 -1.0966
14603TIP3    H265225   0.254   5.021  12.145 -0.3517  0.5397  1.1486
14604TIP3   OH265226   3.589   2.087   1.009 -0.5266 -0.1583  0.6668
14604TIP3    H165227   3.630   2.131   1.083  2.3384 -1.5383  0.0607
14604TIP3    H265228   3.580   2.156   0.943 -2.6048  0.9553  1.9984
14605TIP3   OH265229   0.057   1.921   0.061  0.3296  0.5260 -0.0852
14605TIP3    H165230   0.053   1.828   0.037  0.4383  0.2702  0.8411
14605TIP3    H265231   0.150   1.943   0.051  0.0583  0.9771 -1.8465
14606TIP3   OH265232   3.042   0.818  13.887  0.6209 -0.0959 -0.3385
14606TIP3    H165233   2.958   0.790  13.852  1.1137 -0.0166 -1.6807
14606TIP3    H265234   3.031   0.818  13.982 -1.0941  0.5861 -0.5129
14607TIP3   OH265235   4.591   2.351   0.966  0.4977 -0.2621  0.5474
14607TIP3    H165236   4.507   2.311   0.945 -0.8463  2.2192  0.9092
14607TIP3    H265237   4.648   2.328   0.892  0.1207 -3.3898  1.0731
14608TIP3   OH265238   2.114   5.198  12.181 -0.2706  0.2765  0.1183
14608TIP3    H165239   2.176   5.155  12.122 -0.2154  1.1494 -0.4880
14608TIP3    H265240   2.144   5.175  12.269  2.4693  2.6351 -0.0432
14609TIP3   OH265241   6.708   0.522  15.517 -0.3355 -0.0173  0.1481
14609TIP3    H165242   6.723   0.544  15.425  0.2867 -1.1018 -0.0181
14609TIP3    H265243   6.666   0.436  15.515 -0.4453  0.0067  0.8853
14610TIP3   OH265244   3.011   5.155   2.265  1.1814  0.0411 -0.2846
14610TIP3    H165245   2.938   5.167   2.204 -0.7907  0.4373  2.0431
14610TIP3    H265246   3.018   5.060   2.276  0.2603  0.0432  0.3495
14611TIP3   OH265247   3.985   3.059   4.962 -0.2987 -0.0950 -0.2284
14611TIP3    H165248   3.956   3.037   4.873  0.0436 -0.4898 -0.2424
14611TIP3    H265249   3.988   2.976   5.008 -1.9181  0.2608  0.6051
14612TIP3   OH265250   0.859   5.498   3.002  0.2243 -0.0697 -0.1450
14612TIP3    H165251   0.836   5.449   2.923  0.7689 -1.7203  0.6711
14612TIP3    H265252   0.849   5.434   3.073 -0.1359  1.3381  1.1140
14613TIP3   OH265253   0.840   1.950  14.661 -0.7833  0.6815 -0.5960
14613TIP3    H165254   0.891   1.884  14.708 -1.1319 -0.8462 -2.2705
14613TIP3    H265255   0.874   1.947  14.572 -2.7554  0.6839 -1.3848
14614TIP3   OH265256   1.831   4.020   1.603  0.1463  0.4134  0.2821
14614TIP3    H165257   1.855   3.976   1.521 -0.1648  0.5570  0.1151
14614TIP3    H265258   1.829   3.949   1.668 -0.0290  0.2300  0.0791
14615TIP3   OH265259   0.141   1.637   1.701 -0.1073  0.2589  0.2066
14615TIP3    H165260   0.076   1.591   1.754 -0.5204  2.3499  1.6125
14615TIP3    H265261   0.196   1.682   1.765  1.3498  0.3256 -1.0554
14616TIP3   OH265262   4.613   4.836  13.419 -0.0159 -0.0404 -0.9282
14616TIP3    H165263   4.674   4.874  13.482  0.6335 -1.1901 -0.8467
14616TIP3    H265264   4.575   4.760  13.464  0.0718 -0.5705 -1.7278
14617TIP3   OH265265   4.602   2.886   6.497 -0.1350  0.2369  0.0829
14617TIP3    H165266   4.638   2.916   6.581  0.4972  0.0949 -0.1360
14617TIP3    H265267   4.642   2.800   6.483 -1.0903 -0.2285  0.1684
14618TIP3   OH265268   3.654   3.189   2.737  0.5952 -0.0915 -0.1351
14618TIP3    H165269   3.671   3.172   2.829  2.4761 -2.2591 -0.7883
14618TIP3    H265270   3.568   3.149   2.720  0.5559 -0.2834  0.5085
14619TIP3   OH265271   4.373   5.403  10.678  1.2427 -0.2782  0.1802
14619TIP3    H165272   4.288   5.358  10.677  0.5524  0.8964  1.5085
14619TIP3    H265273   4.407   5.393  10.590 -0.0533 -1.2062 -0.2448
14620TIP3   OH265274   0.658   5.592   2.146 -0.2916 -0.5654 -0.1796
14620TIP3    H165275   0.622   5.597   2.058 -0.0748 -0.1620 -0.2461
14620TIP3    H265276   0.603   5.650   2.198  0.1234 -0.1115 -0.2373
14621TIP3   OH265277   3.197   1.256  12.166  0.3456 -0.5389  0.1105
14621TIP3    H165278   3.220   1.348  12.161 -0.6444 -0.2825  0.0893
14621TIP3    H265279   3.135   1.250  12.239  1.2315 -1.3697  0.8277
14622TIP3   OH265280   5.378   1.616  11.435 -0.1025  0.1360  0.4493
14622TIP3    H165281   5.378   1.657  11.349  0.5190 -1.0631 -0.1508
14622TIP3    H265282   5.286   1.598  11.453 -0.0665 -2.1449 -1.2622
14623TIP3   OH265283   6.094   2.920   0.792 -0.1811 -0.0487 -0.2229
14623TIP3    H165284   6.164   2.868   0.753 -0.1777  0.6405 -1.1771
14623TIP3    H265285   6.059   2.865   0.861  0.6905 -0.7794 -0.3457
14624TIP3   OH265286   5.891   6.107   4.906 -0.4923  0.1089  0.5746
14624TIP3    H165287   5.839   6.169   4.855 -1.0894 -1.3576 -0.6719
14624TIP3    H265288   5.944   6.060   4.841 -1.5214 -2.0535  1.1867
14625TIP3   OH265289   0.512   3.196  15.074 -0.7230  0.1810 -0.2370
14625TIP3    H165290   0.577   3.253  15.115 -1.0978 -0.4059  1.2384
14625TIP3    H265291   0.448   3.255  15.035  0.7618  0.7840 -1.9362
14626TIP3   OH265292   4.040   0.500   0.684 -0.5310  0.3650 -0.0343
14626TIP3    H165293   4.024   0.573   0.624 -0.4922  0.0537 -0.4299
14626TIP3    H265294   4.018   0.422   0.633 -0.1844  0.0776  0.2492
14627TIP3   OH265295   2.887   5.237  17.039 -0.6160  0.3008  0.4549
14627TIP3    H165296   2.899   5.222  17.133  2.9181 -0.2166  0.0517
14627TIP3    H265297   2.904   5.152  16.999  1.1316  1.1716 -0.7835
14628TIP3   OH265298   6.800   3.286   1.470 -0.0993 -0.1282 -0.1416
14628TIP3    H165299   6.789   3.377   1.441 -0.0798 -0.0696  0.0342
14628TIP3    H265300   6.854   3.246   1.402  1.5683  0.5161  0.7315
14629TIP3   OH265301   0.717   1.909  15.084 -0.1375 -0.3859 -0.4153
14629TIP3    H165302   0.626   1.914  15.112  0.7063  0.8533  2.5334
14629TIP3    H265303   0.736   1.996  15.048 -0.1170 -0.6649 -1.0926
14630TIP3   OH265304   4.389   4.937   3.357  0.0806  0.1463  0.1104
14630TIP3    H165305   4.309   4.962   3.310 -0.2937 -2.0715 -0.5420
14630TIP3    H265306   4.377   4.973   3.445 -0.4009  2.0992 -0.7007
14631TIP3   OH265307   4.768   2.451   1.142  0.5346  0.3339 -0.1198
14631TIP3    H165308   4.698   2.418   1.085  0.7723  0.2999 -0.3936
14631TIP3    H265309   4.831   2.490   1.082  0.9085  0.0719  0.1019
14632TIP3   OH265310   4.729   0.716   4.479  0.6534  0.5636  0.4969
14632TIP3    H165311   4.657   0.666   4.519  0.7639 -0.6303 -0.7107
14632TIP3    H265312   4.703   0.725   4.387  1.5998  0.9665  0.2618
14633TIP3   OH265313   0.586   3.827  13.463 -0.0035  0.3611 -0.1736
14633TIP3    H165314   0.648   3.865  13.402  0.1945  1.2149  0.5370
14633TIP3    H265315   0.548   3.902  13.509 -0.2594 -0.2455  0.6307
14634TIP3   OH265316   6.776   6.389   4.708  0.3235  0.3983  0.2136
14634TIP3    H165317   6.708   6.455   4.721 -0.8985 -0.8962  0.6796
14634TIP3    H265318   6.772   6.334   4.787 -0.6288 -1.8826 -1.3107
14635TIP3   OH265319   5.583   5.101   5.383 -0.2364 -0.0445  0.0690
14635TIP3    H165320   5.607   5.060   5.467  0.9163  1.1520  0.3560
14635TIP3    H265321   5.501   5.147   5.402  1.1837  2.1812  1.2668
14636TIP3   OH265322   6.605   2.873  15.170 -0.0994 -0.0288  0.1996
14636TIP3    H165323   6.586   2.940  15.105  0.7242  1.1749  1.1510
14636TIP3    H265324   6.526   2.820  15.175 -1.5857  2.1208  0.8887
14637TIP3   OH265325   3.504   0.523   0.643  0.5174  0.3780 -0.2749
14637TIP3    H165326   3.580   0.571   0.676  0.5996  1.6566 -2.1503
14637TIP3    H265327   3.435   0.540   0.707  1.1342  1.3017  0.1630
14638TIP3   OH265328   6.170   2.759  16.821 -0.4863 -0.3433 -0.2208
14638TIP3    H165329   6.139   2.681  16.775 -0.2595  0.1521 -1.2446
14638TIP3    H265330   6.122   2.758  16.904 -2.3668 -0.2350 -1.2483
14639TIP3   OH265331   4.602   1.004  14.694 -0.3193 -0.0044 -0.3134
14639TIP3    H165332   4.547   0.981  14.769 -0.9576  0.9530 -0.4692
14639TIP3    H265333   4.658   1.075  14.727  0.3054 -0.4570 -0.3788
14640TIP3   OH265334   6.385   3.118   0.731 -0.1485  0.9644 -0.6864
14640TIP3    H165335   6.406   3.109   0.824  2.4160 -1.5437 -1.3861
14640TIP3    H265336   6.417   3.206   0.708  1.4627  0.6793  0.3057
14641TIP3   OH265337   0.468   5.745   2.711 -0.3801  0.0444  0.4478
14641TIP3    H165338   0.389   5.696   2.735  0.2519 -0.6731  1.1289
14641TIP3    H265339   0.509   5.767   2.794 -0.2570  1.0875  0.1165
14642TIP3   OH265340   6.571   3.337  12.809  0.2040  0.2234  0.2412
14642TIP3    H165341   6.518   3.347  12.730  0.9148 -3.0807 -0.8408
14642TIP3    H265342   6.651   3.386  12.791  0.0027  0.2026 -0.7461
14643TIP3   OH265343   0.078   6.035  15.775  0.3925  0.0031  0.6978
14643TIP3    H165344   0.047   5.999  15.691 -0.4818  1.0310  0.5585
14643TIP3    H265345   0.076   5.961  15.835  0.6093 -0.6494 -0.0822
14644TIP3   OH265346   2.785   2.108  16.519  0.2553  0.1223  0.0041
14644TIP3    H165347   2.768   2.034  16.460 -0.7009  1.1605 -1.0859
14644TIP3    H265348   2.701   2.123  16.563  0.1766  1.0946 -0.4463
14645TIP3   OH265349   2.257   1.342   5.678  0.1453  0.3193  0.3776
14645TIP3    H165350   2.165   1.339   5.655  0.3304 -0.2574 -0.2988
14645TIP3    H265351   2.273   1.260   5.725  0.8223 -0.6797 -1.5032
14646TIP3   OH265352   4.391   3.886  14.924  0.4722 -0.3503 -0.5571
14646TIP3    H165353   4.468   3.922  14.880  0.8292 -0.5045 -0.0712
14646TIP3    H265354   4.348   3.961  14.964 -0.3143 -0.0866 -1.8389
14647TIP3   OH265355   6.177   2.185  11.391 -0.0868 -0.5985 -0.0752
14647TIP3    H165356   6.264   2.202  11.356 -0.2962  0.6725 -0.0524
14647TIP3    H265357   6.185   2.201  11.485 -0.4085 -0.1122 -0.1219
14648TIP3   OH265358   5.991   5.097  10.885 -0.3395  0.0244  0.7424
14648TIP3    H165359   5.939   5.018  10.889 -2.3676  1.2364 -0.4125
14648TIP3    H265360   5.974   5.141  10.969  0.7218 -0.6722  1.3480
14649TIP3   OH265361   3.430   2.682   4.151  0.3196  0.1993  0.2896
14649TIP3    H165362   3.385   2.627   4.215  1.1490 -1.0962 -0.2058
14649TIP3    H265363   3.520   2.652   4.152  0.3274  0.0224 -1.5920
14650TIP3   OH265364   5.049   3.001  15.223 -0.1567  0.2704  0.2778
14650TIP3    H165365   4.996   2.949  15.283  0.1127 -0.1125  0.1873
14650TIP3    H265366   5.124   3.030  15.276 -1.1532  2.0342  0.8203
14651TIP3   OH265367   2.168   3.276  12.323  0.2373 -0.3827 -0.3575
14651TIP3    H165368   2.184   3.370  12.325 -3.4100  0.4306 -1.1141
14651TIP3    H265369   2.130   3.256  12.408  0.0664 -0.9626 -0.5669
14652TIP3   OH265370   0.362   2.012  12.178 -0.0810 -0.1296  0.2280
14652TIP3    H165371   0.275   1.972  12.185 -0.9285  1.5899 -0.0104
14652TIP3    H265372   0.368   2.041  12.087  0.1545  1.0216  0.5995
14653TIP3   OH265373   2.145   2.671  11.772 -0.3210  0.3940 -0.6424
14653TIP3    H165374   2.131   2.666  11.866 -0.7783 -1.2287 -0.7639
14653TIP3    H265375   2.075   2.617  11.734  0.6533 -0.1110 -1.8150
14654TIP3   OH265376   4.722   4.532  14.595  0.0345 -0.8447 -0.6271
14654TIP3    H165377   4.634   4.541  14.633 -0.1634 -1.9183 -0.7796
14654TIP3    H265378   4.760   4.619  14.601 -0.4268 -0.7121  0.9644
14655TIP3   OH265379   0.095   4.328  12.081 -0.0202 -0.5244  0.7775
14655TIP3    H165380   0.084   4.248  12.029  1.4529 -0.4526  0.3203
14655TIP3    H265381   0.006   4.352  12.107 -0.5344 -2.0361  0.5085
14656TIP3   OH265382   2.022   5.008  14.842 -0.5716  0.6792 -0.3786
14656TIP3    H165383   1.967   4.940  14.802 -0.1971  0.6073 -0.7831
14656TIP3    H265384   2.094   5.020  14.780  1.7424 -1.6298  1.6200
14657TIP3   OH265385   0.619   6.289  13.316  0.4775  0.2575  0.6879
14657TIP3    H165386   0.567   6.253  13.244  0.5996  1.5957 -0.0897
14657TIP3    H265387   0.578   6.253  13.395 -1.5117  1.0875  0.0969
14658TIP3   OH265388   0.145   4.481  10.058 -0.1631 -0.0150 -0.0172
14658TIP3    H165389   0.099   4.562  10.079 -1.7765 -0.7405 -0.5269
14658TIP3    H265390   0.189   4.456  10.139 -0.2193  0.9973  0.3395
14659TIP3   OH265391   5.617   6.419   5.890 -0.0171 -0.3929  0.0874
14659TIP3    H165392   5.638   6.511   5.904  2.6076 -1.0421  1.0541
14659TIP3    H265393   5.590   6.387   5.977  2.9673 -1.3442  0.7799
14660TIP3   OH265394   6.774   2.648   1.224  0.0936  0.1412  0.1444
14660TIP3    H165395   6.734   2.665   1.138  0.0857 -1.9341 -0.3180
14660TIP3    H265396   6.701   2.645   1.285  0.1989  2.9748  0.5544
14661TIP3   OH265397   4.088   4.473  12.878 -0.0960 -0.1316  0.3734
14661TIP3    H165398   4.173   4.436  12.901  0.7438  0.7698 -1.1498
14661TIP3    H265399   4.106   4.534  12.807 -2.3079 -1.6883 -1.6815
14662TIP3   OH265400   3.783   5.172   0.654  0.2340 -0.0241 -0.5537
14662TIP3    H165401   3.858   5.114   0.666  1.0463  0.7546 -1.6009
14662TIP3    H265402   3.727   5.126   0.592 -0.1557 -0.5971  0.2097
14663TIP3   OH265403   1.248   0.144  14.802 -0.2783 -0.0662  0.3431
14663TIP3    H165404   1.280   0.221  14.756 -0.6856 -0.2308 -0.2377
14663TIP3    H265405   1.318   0.120  14.861 -0.3441  1.0422  0.8940
14664TIP3   OH265406   2.490   2.048  15.811  0.3516  0.0844 -0.3690
14664TIP3    H165407   2.538   2.004  15.741 -3.1200 -3.7859 -0.6869
14664TIP3    H265408   2.535   2.021  15.891  2.1483  1.5254 -0.8244
14665TIP3   OH265409   0.429   6.160  13.450 -0.1135  0.7241 -0.2332
14665TIP3    H165410   0.414   6.150  13.544 -0.5067 -2.0747 -0.5362
14665TIP3    H265411   0.342   6.163  13.412 -0.0331 -1.6451 -0.7530
14666TIP3   OH265412   1.353   2.413   3.459 -0.0082 -0.4396 -0.1355
14666TIP3    H165413   1.279   2.379   3.410 -0.5639 -1.4249  1.3172
14666TIP3    H265414   1.327   2.503   3.482  0.0610 -0.1381 -1.1956
14667TIP3   OH265415   6.140   6.802  15.580 -0.1640 -0.2940 -0.5036
14667TIP3    H165416   6.194   6.731  15.613 -0.4865  0.0190  0.7380
14667TIP3    H265417   6.061   6.799  15.633  0.2736  1.6517  0.3463
14668TIP3   OH265418   6.296   0.003   2.086 -0.0073  0.3419  0.2326
14668TIP3    H165419   6.227  -0.062   2.069 -1.7283  2.1592 -0.0588
14668TIP3    H265420   6.346  -0.035   2.158 -1.2663 -1.0881  0.4143
14669TIP3   OH265421   4.233   5.044  12.054  0.0812 -0.1839 -0.4541
14669TIP3    H165422   4.186   5.126  12.068  1.1394  0.2141  0.9818
14669TIP3    H265423   4.324   5.071  12.038  0.3819 -1.0512 -0.2814
14670TIP3   OH265424   3.313   4.381   2.993 -0.1934  0.3917  0.3772
14670TIP3    H165425   3.365   4.459   3.014  0.2430  0.2093 -0.0045
14670TIP3    H265426   3.223   4.413   2.988  0.2108  1.3989 -2.1150
14671TIP3   OH265427   6.595   1.158  16.617 -0.1900 -0.7715  0.7770
14671TIP3    H165428   6.573   1.075  16.660  1.3985 -1.0762  1.1010
14671TIP3    H265429   6.610   1.134  16.526  0.2872 -0.8574  0.8741
14672TIP3   OH265430   5.060   1.745  15.598 -0.0567 -0.2514 -0.3791
14672TIP3    H165431   5.065   1.684  15.524 -1.1672 -0.7312 -0.0747
14672TIP3    H265432   5.127   1.811  15.578  0.2494 -0.8293 -1.3838
14673TIP3   OH265433   4.707   2.585   5.736  0.2318  0.3339  0.0404
14673TIP3    H165434   4.718   2.536   5.655 -0.5045  1.2094 -0.6138
14673TIP3    H265435   4.675   2.671   5.708  0.3439  0.7906  1.2334
14674TIP3   OH265436   2.753   4.108  13.228 -0.0253 -0.9989  0.0948
14674TIP3    H165437   2.691   4.180  13.237  0.6625 -0.3300 -0.3885
14674TIP3    H265438   2.799   4.126  13.146  0.9680 -1.3451  0.5646
14675TIP3   OH265439   2.588   2.933  13.420 -0.3702 -0.5202 -0.1469
14675TIP3    H165440   2.615   2.933  13.512 -2.0825  0.1205  0.3834
14675TIP3    H265441   2.617   2.848  13.387  1.5468 -0.2026  0.5571
14676TIP3   OH265442   5.824   2.032  14.823 -0.4750  0.1895 -0.0128
14676TIP3    H165443   5.752   2.033  14.886  0.8067  1.4018  1.5300
14676TIP3    H265444   5.782   2.016  14.738 -2.2547 -1.6310  1.1310
14677TIP3   OH265445   5.537   3.397   0.665  0.1804 -0.5360  0.5240
14677TIP3    H165446   5.577   3.348   0.737 -0.7073 -1.1444  0.6242
14677TIP3    H265447   5.464   3.443   0.704  0.8803  0.7363  0.3819
14678TIP3   OH265448   2.785   3.205  13.835 -0.6684  0.2422 -0.3699
14678TIP3    H165449   2.765   3.271  13.769 -0.2223 -0.2182 -0.9698
14678TIP3    H265450   2.766   3.249  13.919  0.3063  1.3984 -0.7143
14679TIP3   OH265451   6.095   0.900  16.933 -0.2474  0.2409 -0.3757
14679TIP3    H165452   6.184   0.869  16.915 -0.6652 -1.3975  0.2116
14679TIP3    H265453   6.038   0.828  16.905 -1.3086  0.7169  0.4645
14680TIP3   OH265454   0.659   4.729   4.876 -0.1539 -0.1705 -0.0795
14680TIP3    H165455   0.666   4.682   4.793  0.5454  0.4066 -0.3641
14680TIP3    H265456   0.626   4.816   4.852 -1.9753 -0.6767  0.5052
14681TIP3   OH265457   5.326   4.325   1.528 -0.3085 -0.0557 -0.3944
14681TIP3    H165458   5.319   4.395   1.593  0.1200  1.2721 -1.7153
14681TIP3    H265459   5.237   4.312   1.496 -0.3049  0.3047 -0.5554
14682TIP3   OH265460   6.607   0.319   1.143  0.1511 -0.4957 -0.2222
14682TIP3    H165461   6.560   0.265   1.206 -0.8822  1.5727  0.9078
14682TIP3    H265462   6.658   0.257   1.091 -3.7654 -3.0332 -1.5613
14683TIP3   OH265463   2.779   0.913   5.494  0.5356 -0.5918 -0.1340
14683TIP3    H165464   2.829   0.949   5.567 -0.6482  0.9967 -0.0576
14683TIP3    H265465   2.723   0.847   5.534  0.8187 -0.6459  0.1785
14684TIP3   OH265466   6.348   2.477   3.076  0.2197  0.0531 -0.3554
14684TIP3    H165467   6.301   2.560   3.082 -0.0746 -0.2126  1.7362
14684TIP3    H265468   6.300   2.427   3.010 -1.4702  0.4218  0.5431
14685TIP3   OH265469   2.877   3.718  15.513 -0.2556  0.1230 -0.7864
14685TIP3    H165470   2.933   3.794  15.498  0.1032 -0.1221 -0.6935
14685TIP3    H265471   2.790   3.756  15.530 -0.7154  0.4347 -3.3716
14686TIP3   OH265472   0.807   5.265   3.173  0.0236  0.3386  1.2730
14686TIP3    H165473   0.803   5.255   3.268 -1.9252 -3.5648  0.9717
14686TIP3    H265474   0.717   5.283   3.147  0.6741  2.2631  0.1376
14687TIP3   OH265475   4.445   4.333  16.520  0.0300  0.7469  0.2096
14687TIP3    H165476   4.513   4.289  16.571  1.3931  2.1073 -0.3770
14687TIP3    H265477   4.491   4.399  16.469 -1.7294  1.7393 -0.1981
14688TIP3   OH265478   2.704   0.919   4.220 -0.3127  0.3809 -0.1848
14688TIP3    H165479   2.780   0.890   4.271 -0.6768  0.2031  0.2627
14688TIP3    H265480   2.726   1.008   4.194  2.4326 -1.3073 -4.6465
14689TIP3   OH265481   4.001   4.715   1.769 -0.6200 -0.3649  0.0205
14689TIP3    H165482   4.091   4.748   1.774  0.2141 -2.4949  0.2075
14689TIP3    H265483   3.947   4.793   1.774  1.1924  0.9096  1.0382
14690TIP3   OH265484   1.665   3.443   3.588 -0.0922  0.2849 -0.4576
14690TIP3    H165485   1.665   3.469   3.680  0.8455 -0.3143 -0.2735
14690TIP3    H265486   1.609   3.507   3.544 -1.1673  0.1367  0.6460
14691TIP3   OH265487   2.812   5.401  15.604 -0.7553  0.9705  0.0129
14691TIP3    H165488   2.763   5.418  15.685 -2.9639 -0.3229 -0.9295
14691TIP3    H265489   2.802   5.480  15.552 -0.5235  1.2864  0.4464
14692TIP3   OH265490   6.701   4.846   1.401 -0.0848  0.2455 -0.4314
14692TIP3    H165491   6.769   4.904   1.369 -0.4027  0.5514 -0.5667
14692TIP3    H265492   6.674   4.883   1.485  1.3851 -1.0719  0.6678
14693TIP3   OH265493   1.580   3.197  13.047  0.6823 -0.4471  0.2986
14693TIP3    H165494   1.517   3.263  13.077 -2.3992 -3.2027  0.4926
14693TIP3    H265495   1.659   3.214  13.098 -0.0897  2.7479  0.6381
14694TIP3   OH265496   5.238   2.850   5.953  0.1521  0.5420 -0.0345
14694TIP3    H165497   5.280   2.866   6.037 -0.8420 -0.1262  0.6097
14694TIP3    H265498   5.241   2.755   5.942 -1.2578  0.4582  0.0889
14695TIP3   OH265499   3.568   4.614   6.221  0.3430 -0.2805  0.2877
14695TIP3    H165500   3.647   4.572   6.188  0.6234  1.2146 -1.0601
14695TIP3    H265501   3.600   4.687   6.273 -0.1306  0.4833 -0.4714
14696TIP3   OH265502   4.042   2.134   4.976 -0.0886 -1.0225 -0.0153
14696TIP3    H165503   4.124   2.124   5.024  1.5320  0.0059 -2.3848
14696TIP3    H265504   4.003   2.046   4.976  0.4217 -1.3003  2.0676
14697TIP3   OH265505   0.497   0.977  12.906 -0.1993  0.2365 -0.3585
14697TIP3    H165506   0.524   0.925  12.831  0.8909  0.4036 -0.1004
14697TIP3    H265507   0.526   1.066  12.886 -1.7928  0.7180 -0.6710
14698TIP3   OH265508   3.433   6.223   1.123 -0.1747 -0.5389  0.4082
14698TIP3    H165509   3.385   6.194   1.200  0.3535 -0.8035  0.6413
14698TIP3    H265510   3.424   6.318   1.123 -0.6336 -0.5815  0.4908
14699TIP3   OH265511   0.298   3.463  13.913 -0.0436 -0.3770 -0.1958
14699TIP3    H165512   0.336   3.385  13.873  0.8282  0.2180 -0.5483
14699TIP3    H265513   0.269   3.515  13.838  0.2870  0.0898 -0.0016
14700TIP3   OH265514   1.635   0.306  11.246 -0.0113  0.3128 -0.0362
14700TIP3    H165515   1.581   0.356  11.185 -0.6816  1.4626  1.4271
14700TIP3    H265516   1.580   0.295  11.324  1.3839  0.3404  0.9987
14701TIP3   OH265517   3.131   0.609  16.884 -0.4191 -0.3671  0.4420
14701TIP3    H165518   3.039   0.632  16.898 -1.2923 -1.2828 -2.8534
14701TIP3    H265519   3.136   0.516  16.907 -0.4728 -0.4565  0.1000
14702TIP3   OH265520   5.580   5.957  16.849 -0.4063  0.4098  0.2224
14702TIP3    H165521   5.548   5.980  16.936 -0.7940  0.7477 -0.0105
14702TIP3    H265522   5.667   5.920  16.866 -0.4983  0.4178  0.7578
14703TIP3   OH265523   3.788   2.872   0.355  0.8699 -0.6679 -0.1294
14703TIP3    H165524   3.748   2.959   0.367 -0.4863 -1.4884  1.8386
14703TIP3    H265525   3.746   2.837   0.277  2.3278  0.8476 -1.7024
14704TIP3   OH265526   3.709   3.720   5.072 -0.4869 -0.1390 -0.0559
14704TIP3    H165527   3.685   3.801   5.027 -0.0930 -0.1761 -0.3371
14704TIP3    H265528   3.662   3.652   5.025 -0.9674 -0.0530  0.2998
14705TIP3   OH265529   2.516   4.121  14.003 -0.4234 -0.0890  0.2380
14705TIP3    H165530   2.540   4.184  14.072 -0.2500  0.8659 -0.6761
14705TIP3    H265531   2.595   4.067  13.992 -0.6108 -0.5585  1.1062
14706TIP3   OH265532   2.892   0.580  13.103 -0.4514 -0.1696  0.1914
14706TIP3    H165533   2.944   0.646  13.147  2.7034 -2.0389 -0.4117
14706TIP3    H265534   2.948   0.502  13.101 -3.1626 -2.2855 -0.8951
14707TIP3   OH265535   5.211   6.488  12.580  0.4716 -0.2031 -0.3535
14707TIP3    H165536   5.228   6.482  12.486 -1.0881  0.5917 -0.7151
14707TIP3    H265537   5.193   6.398  12.608  1.1625 -0.4732 -0.7488
14708TIP3   OH265538   4.678   0.052   4.569 -0.3065 -0.2479  0.2017
14708TIP3    H165539   4.765   0.041   4.531 -0.0517 -0.6857  0.9032
14708TIP3    H265540   4.624  -0.014   4.525 -0.4201  0.3647 -0.6085
14709TIP3   OH265541   0.665   3.210  11.289  0.2721 -0.0868 -0.4620
14709TIP3    H165542   0.750   3.198  11.331  1.2144  0.4463 -2.1685
14709TIP3    H265543   0.647   3.126  11.246  1.5020  0.7670 -2.8016
14710TIP3   OH265544   1.520   2.045   4.796  0.4727  0.1291 -0.1947
14710TIP3    H165545   1.442   2.001   4.830  0.8898 -0.9881 -0.6078
14710TIP3    H265546   1.508   2.044   4.701  1.7200 -1.6083 -0.4012
14711TIP3   OH265547   6.495   5.535  11.588  0.2027 -0.0970 -0.2353
14711TIP3    H165548   6.500   5.589  11.667 -0.2014 -2.9741  1.9109
14711TIP3    H265549   6.402   5.526  11.570  0.0945 -2.1281  1.0455
14712TIP3   OH265550   5.680   4.579  13.613  0.3606  0.5133 -0.0679
14712TIP3    H165551   5.759   4.568  13.665  1.6802  3.6117 -1.1887
14712TIP3    H265552   5.711   4.606  13.527 -1.8802 -1.2056 -1.5608
14713TIP3   OH265553   5.912   2.262  13.474 -0.4050  0.0007  0.6884
14713TIP3    H165554   5.873   2.342  13.439  1.3488 -0.2592 -2.1615
14713TIP3    H265555   5.975   2.293  13.539  0.6094  1.0425 -0.7292
14714TIP3   OH265556   6.292   6.818  16.091 -0.6671  0.1381  0.1842
14714TIP3    H165557   6.326   6.836  16.003 -0.2816  1.9681  0.6694
14714TIP3    H265558   6.350   6.750  16.126 -0.2499  0.0602 -0.6372
14715TIP3   OH265559   2.353   5.605  12.361 -0.3102 -0.1023 -0.0164
14715TIP3    H165560   2.386   5.521  12.392 -1.7037 -0.2678  1.1525
14715TIP3    H265561   2.311   5.585  12.278 -0.1580 -0.4600 -0.0086
14716TIP3   OH265562   3.879   0.937   2.441  0.0066 -0.4621  0.0386
14716TIP3    H165563   3.972   0.954   2.452  0.2756 -1.1324 -1.0423
14716TIP3    H265564   3.861   0.962   2.350 -1.0249  0.3224  0.4380
14717TIP3   OH265565   5.815   2.741  16.424 -0.1462 -0.2983 -0.3855
14717TIP3    H165566   5.781   2.800  16.357 -2.0129 -1.3305 -0.4063
14717TIP3    H265567   5.753   2.749  16.497 -0.2191 -1.9164 -0.2398
14718TIP3   OH265568   6.134   1.894  12.586  0.5639 -0.6718  0.5167
14718TIP3    H165569   6.042   1.876  12.568  0.3709  0.2407  0.5774
14718TIP3    H265570   6.153   1.975  12.539  1.7342 -1.6000 -0.6932
14719TIP3   OH265571   5.027   6.610   4.683 -0.0713 -0.0648  0.0419
14719TIP3    H165572   4.971   6.594   4.607 -1.9054 -0.4197  1.4153
14719TIP3    H265573   5.094   6.542   4.678  0.1998  0.2808 -1.5609
14720TIP3   OH265574   3.531   5.535  13.977 -0.3006  0.1588 -0.1494
14720TIP3    H165575   3.455   5.487  13.944 -0.4362  0.5591 -0.4219
14720TIP3    H265576   3.527   5.523  14.072 -0.6365  0.0811 -0.1703
14721TIP3   OH265577   6.342   3.860  16.426  0.2375  0.4679 -0.8301
14721TIP3    H165578   6.311   3.870  16.516 -0.7577 -0.7368 -1.0177
14721TIP3    H265579   6.412   3.795  16.431  2.1730  2.4716 -0.5501
14722TIP3   OH265580   3.140   2.286  16.391  0.0160 -0.1620  0.7601
14722TIP3    H165581   3.228   2.251  16.407  0.1093  0.4485  1.6526
14722TIP3    H265582   3.121   2.262  16.300  1.0097 -0.5041  0.6303
14723TIP3   OH265583   5.506   3.116   3.500  0.8820  0.0450  0.8397
14723TIP3    H165584   5.549   3.178   3.441 -1.5428 -0.0483 -1.1831
14723TIP3    H265585   5.467   3.171   3.568 -1.1648  0.8864 -0.8808
14724TIP3   OH265586   0.545   0.965  16.067 -0.2367  0.1665  0.2242
14724TIP3    H165587   0.563   0.872  16.053  0.7070  0.1120  1.6383
14724TIP3    H265588   0.472   0.984  16.008  0.9303 -0.9445 -1.6905
14725TIP3   OH265589   3.304   5.863  12.784  0.4186  0.4575 -0.5126
14725TIP3    H165590   3.378   5.851  12.844 -0.9120 -2.6618  0.7078
14725TIP3    H265591   3.230   5.885  12.841 -1.1123 -3.5749 -0.6374
14726TIP3   OH265592   2.129   2.315  14.765 -0.6312 -0.1120  0.1650
14726TIP3    H165593   2.044   2.323  14.722 -0.6768 -1.7730 -0.1216
14726TIP3    H265594   2.108   2.286  14.854 -0.3462 -1.7589 -0.2751
14727TIP3   OH265595   0.310   1.254  15.975  0.1810 -0.5708  0.3967
14727TIP3    H165596   0.268   1.245  15.890  0.0957 -1.6863  0.5510
14727TIP3    H265597   0.395   1.210  15.965  0.6005  0.1565  0.6057
14728TIP3   OH265598   5.898   0.236  14.455  0.0564  0.0945  0.0197
14728TIP3    H165599   5.855   0.259  14.373  0.1468 -0.2656 -0.1280
14728TIP3    H265600   5.878   0.310  14.513  2.2500  1.6947 -1.1121
14729TIP3   OH265601   3.186   2.901  10.945 -0.4289  0.0612 -0.3673
14729TIP3    H165602   3.235   2.924  10.866 -0.9670 -0.5709 -0.9131
14729TIP3    H265603   3.143   2.982  10.971 -0.3130  0.2610 -0.7855
14730TIP3   OH265604   3.274   0.316   2.956  0.4006  0.4696  0.6220
14730TIP3    H165605   3.270   0.405   2.989  0.2973  1.9996 -3.0678
14730TIP3    H265606   3.361   0.308   2.917 -0.5141 -0.0526 -1.4428
14731TIP3   OH265607   2.749   5.514  14.834 -0.0650  0.3402 -0.1177
14731TIP3    H165608   2.793   5.435  14.867  0.8528  0.4898 -0.9279
14731TIP3    H265609   2.759   5.578  14.904 -0.0938 -0.0116  0.2122
14732TIP3   OH265610   2.072   5.595  13.095  0.6241  0.5789 -0.2460
14732TIP3    H165611   1.983   5.627  13.109  0.7028  0.1542  1.3425
14732TIP3    H265612   2.064   5.534  13.021 -0.5319 -0.0064  0.3389
14733TIP3   OH265613   4.279   3.322  13.014  0.3904 -0.4789  0.1990
14733TIP3    H165614   4.198   3.312  13.065 -0.7269 -1.5476 -1.6983
14733TIP3    H265615   4.270   3.407  12.972 -0.0447 -0.8607 -0.4907
14734TIP3   OH265616   1.390   1.512   2.342 -0.0527  0.5377 -0.0095
14734TIP3    H165617   1.472   1.523   2.293  0.7656  0.2347  1.2475
14734TIP3    H265618   1.351   1.433   2.305  1.1337 -0.3549  0.5619
14735TIP3   OH265619   5.943   6.336  11.185  0.9672  0.2309  0.3654
14735TIP3    H165620   5.861   6.312  11.142  0.9163  1.2730 -0.1597
14735TIP3    H265621   5.992   6.254  11.189 -0.0317 -0.3854  0.5559
14736TIP3   OH265622   2.284   3.767   6.426 -0.0495  0.2711 -0.1649
14736TIP3    H165623   2.249   3.679   6.438 -1.2055  0.8808  1.3227
14736TIP3    H265624   2.212   3.815   6.385  0.1986  0.7566 -0.0306
14737TIP3   OH265625   1.892   4.850   4.582 -0.2217  0.5683 -0.0161
14737TIP3    H165626   1.865   4.778   4.526  0.1224  1.8404 -1.9435
14737TIP3    H265627   1.959   4.813   4.639 -0.1793 -0.6706 -0.8386
14738TIP3   OH265628   3.541   0.935   2.011  0.1873 -0.1901 -0.9030
14738TIP3    H165629   3.481   0.871   2.048 -0.0944  0.3029 -0.4939
14738TIP3    H265630   3.484   0.995   1.963  0.5015 -0.5582 -1.7561
14739TIP3   OH265631   1.422   5.841   5.714 -0.4769 -0.2213  0.0234
14739TIP3    H165632   1.495   5.902   5.704 -1.7841  1.3020 -0.4834
14739TIP3    H265633   1.397   5.849   5.806 -0.2588 -0.4759  0.1080
14740TIP3   OH265634   0.675   1.078  11.703  0.0699 -0.3630 -0.0388
14740TIP3    H165635   0.635   0.997  11.672 -0.4046 -0.0145 -0.3473
14740TIP3    H265636   0.635   1.147  11.649 -0.5428  0.2212  1.1426
14741TIP3   OH265637   1.615   1.589  11.235 -0.3295 -0.4683  0.1317
14741TIP3    H165638   1.605   1.673  11.190 -0.7188 -1.4290 -1.6397
14741TIP3    H265639   1.554   1.594  11.309  0.8067  1.3988  1.0361
14742TIP3   OH265640   4.875   4.066   4.186  0.0954  0.0099 -0.0022
14742TIP3    H165641   4.951   4.039   4.237 -0.1557  0.1425  0.4504
14742TIP3    H265642   4.817   3.990   4.187  0.1633 -0.0451 -0.2325
14743TIP3   OH265643   2.030   4.018  10.661 -0.9055 -0.0560 -0.1920
14743TIP3    H165644   2.089   4.088  10.690 -0.9783  0.8963 -2.1598
14743TIP3    H265645   2.080   3.938  10.673 -0.1247  0.4970  0.3928
14744TIP3   OH265646   0.727   1.827   3.337  0.0435 -0.0122  0.0889
14744TIP3    H165647   0.817   1.828   3.370  0.8184 -1.3352 -1.7969
14744TIP3    H265648   0.736   1.846   3.243 -1.6851  0.0353 -0.0952
14745TIP3   OH265649   3.191   1.415  11.675  0.3730 -0.3153  0.2796
14745TIP3    H165650   3.205   1.509  11.663 -1.6622  0.4086  2.6992
14745TIP3    H265651   3.255   1.374  11.618  0.4206  2.5125 -1.9302
14746TIP3   OH265652   2.004   6.251  15.629 -0.2924  0.0462  0.0102
14746TIP3    H165653   1.923   6.300  15.643 -0.5959  0.0241 -1.4489
14746TIP3    H265654   2.027   6.269  15.538  0.6866 -0.9239  0.0410
14747TIP3   OH265655   4.493   0.852  15.499 -0.3511 -0.3905 -0.2641
14747TIP3    H165656   4.522   0.770  15.538  0.1169 -0.5067 -0.8519
14747TIP3    H265657   4.424   0.827  15.438 -2.9059  0.0158  2.2227
14748TIP3   OH265658   2.969   6.361   4.785 -0.5784  0.3841  0.3455
14748TIP3    H165659   2.940   6.340   4.874  2.3165  2.0449  1.8290
14748TIP3    H265660   2.960   6.456   4.778 -1.1689  0.2440 -1.3644
14749TIP3   OH265661   6.687   3.732   5.833 -0.8279 -0.0879 -0.1920
14749TIP3    H165662   6.641   3.807   5.795 -3.3536 -1.2326  0.3682
14749TIP3    H265663   6.665   3.659   5.776 -1.0250 -0.9763  0.9830
14750TIP3   OH265664   0.498   4.443  12.885  0.1122 -0.1769 -0.1661
14750TIP3    H165665   0.458   4.362  12.914  0.6258 -0.7539 -1.0157
14750TIP3    H265666   0.450   4.467  12.806  1.1674 -0.6785 -0.9869
14751TIP3   OH265667   6.055   3.815   3.146 -0.4062 -0.0804  0.0233
14751TIP3    H165668   6.024   3.738   3.194  0.8742 -0.4161  0.3504
14751TIP3    H265669   6.042   3.888   3.206 -0.2501 -0.2617  0.2756
14752TIP3   OH265670   2.882   5.246   4.675  0.4458  0.8306  0.3288
14752TIP3    H165671   2.858   5.158   4.649 -0.9033  1.2228  0.1651
14752TIP3    H265672   2.816   5.302   4.634  1.4724  1.9515  0.1524
14753TIP3   OH265673   5.834   1.724   2.343  0.5835  0.1031  0.3578
14753TIP3    H165674   5.792   1.799   2.386  0.0406 -0.5478  0.9789
14753TIP3    H265675   5.819   1.738   2.250  0.7473  0.9206  0.4415
14754TIP3   OH265676   4.222   0.307   2.026 -0.1754  0.6306  0.4230
14754TIP3    H165677   4.278   0.380   2.002  0.3161 -0.8378 -3.6529
14754TIP3    H265678   4.279   0.230   2.023 -1.4261 -0.3680  0.8961
14755TIP3   OH265679   2.729   1.489  15.815 -0.0165  0.1459 -0.1313
14755TIP3    H165680   2.655   1.504  15.874 -0.4934  0.8720 -0.8903
14755TIP3    H265681   2.800   1.461  15.872 -0.2781  1.4384  0.8736
14756TIP3   OH265682   0.125   4.871   1.244 -0.1332 -0.4059  0.2433
14756TIP3    H165683   0.170   4.902   1.323 -0.9787  0.2295  0.4827
14756TIP3    H265684   0.185   4.891   1.173  0.3682 -0.4159  0.6568
14757TIP3   OH265685   3.826   0.288  16.376 -0.1971 -0.1922  0.3851
14757TIP3    H165686   3.732   0.301  16.391 -0.4136  0.6591 -1.4908
14757TIP3    H265687   3.859   0.258  16.461 -2.1633 -0.6035  1.0710
14758TIP3   OH265688   2.284   6.540   2.936  0.6052 -0.1212  0.1046
14758TIP3    H165689   2.301   6.565   2.846 -1.0716 -0.3881 -0.3130
14758TIP3    H265690   2.306   6.446   2.939 -0.3817 -0.3801 -0.3367
14759TIP3   OH265691   0.482   5.775  13.052  0.1310 -0.2453 -0.1382
14759TIP3    H165692   0.390   5.751  13.040  0.4369 -2.1805  0.9954
14759TIP3    H265693   0.487   5.812  13.140  0.2207  1.1752 -0.7187
14760TIP3   OH265694   4.271   3.406  12.039 -0.7078  0.2482  0.0269
14760TIP3    H165695   4.350   3.459  12.030 -0.2156  0.0431  2.4864
14760TIP3    H265696   4.224   3.418  11.957  2.1028 -0.0190 -1.7379
14761TIP3   OH265697   2.956   1.397  12.588  0.4315 -0.2093 -0.3548
14761TIP3    H165698   2.865   1.417  12.569  0.5482  0.7197  0.0053
14761TIP3    H265699   2.955   1.305  12.617 -0.6782  0.3315  1.5172
14762TIP3   OH265700   5.639   4.803  15.388 -0.2745  0.2223  0.1256
14762TIP3    H165701   5.584   4.781  15.463  0.3267  1.4317  0.9578
14762TIP3    H265702   5.656   4.897  15.397  2.1594 -0.1326  0.0830
14763TIP3   OH265703   1.961   5.803   3.121  0.0870 -0.4622  0.2546
14763TIP3    H165704   2.013   5.880   3.143  0.2200  0.2433 -2.2485
14763TIP3    H265705   2.008   5.762   3.048 -0.3111 -2.5945  1.1298
14764TIP3   OH265706   2.665   1.563   0.426 -0.0616  0.7026  0.0246
14764TIP3    H165707   2.662   1.557   0.521 -0.0412 -0.1347 -0.0223
14764TIP3    H265708   2.751   1.529   0.402  0.2735  1.7106 -0.2420
14765TIP3   OH265709   3.831   4.779  14.104 -0.0471  0.3143 -0.1779
14765TIP3    H165710   3.809   4.689  14.078 -2.6685  1.0312 -0.7610
14765TIP3    H265711   3.864   4.819  14.024  0.0299  0.1716 -0.2173
14766TIP3   OH265712   0.781   0.901   1.377 -0.8362  0.0023  0.7821
14766TIP3    H165713   0.832   0.976   1.347  0.7897 -0.5826  1.9157
14766TIP3    H265714   0.837   0.860   1.444 -2.4196 -1.2188  1.4141
14767TIP3   OH265715   0.879   1.819  11.788  0.1445  0.2560  0.6476
14767TIP3    H165716   0.853   1.727  11.784 -0.3002  0.3635  0.9531
14767TIP3    H265717   0.960   1.819  11.839  0.3608 -0.0103  0.3008
14768TIP3   OH265718   1.522   3.940   4.564  0.4244 -0.3205  0.3648
14768TIP3    H165719   1.435   3.906   4.585  0.2637  1.0173  2.0427
14768TIP3    H265720   1.509   4.035   4.558  1.8947 -0.0234  1.4199
14769TIP3   OH265721   6.553   6.410   6.381  0.3982  0.0456  0.0757
14769TIP3    H165722   6.554   6.492   6.332  3.1526  0.8093  1.2161
14769TIP3    H265723   6.573   6.343   6.315  0.5035  0.5866 -0.4531
14770TIP3   OH265724   0.810   3.198   5.791 -0.0508  0.5952 -0.3971
14770TIP3    H165725   0.720   3.227   5.802 -1.1608 -1.5561 -2.6409
14770TIP3    H265726   0.829   3.146   5.869 -1.1202  0.3219 -0.3051
14771TIP3   OH265727   3.448   1.415  13.499  0.3770 -0.0501  0.4715
14771TIP3    H165728   3.491   1.444  13.419 -0.3075 -0.4590 -0.0444
14771TIP3    H265729   3.520   1.394  13.558  0.8834  0.2029 -0.0434
14772TIP3   OH265730   2.477   4.761   4.761  0.2616  0.5975 -0.1808
14772TIP3    H165731   2.439   4.840   4.798 -0.1818 -0.3626  1.5265
14772TIP3    H265732   2.570   4.781   4.749  0.4121  0.9897  1.4356
14773TIP3   OH265733   2.287   0.684  14.870  0.6292 -0.3866 -0.4421
14773TIP3    H165734   2.207   0.737  14.874  1.0757  0.2447  0.4320
14773TIP3    H265735   2.324   0.704  14.784 -0.2201 -0.7995 -0.9205
14774TIP3   OH265736   1.143   2.032   1.384  0.4093  0.0887  0.0331
14774TIP3    H165737   1.203   2.041   1.458  1.1853 -1.2281 -0.4067
14774TIP3    H265738   1.056   2.032   1.423  0.7802  0.1924  0.8665
14775TIP3   OH265739   5.839   1.169   3.219 -0.3594 -0.1507  0.4171
14775TIP3    H165740   5.757   1.157   3.267 -0.1988 -1.3033  0.4289
14775TIP3    H265741   5.900   1.109   3.260  0.7921  1.3597  1.0250
14776TIP3   OH265742   0.440   4.794   5.666 -0.1639  0.1395 -0.0997
14776TIP3    H165743   0.498   4.786   5.742  1.3345 -0.2285 -1.2325
14776TIP3    H265744   0.360   4.749   5.693  0.3831 -0.1137  1.2037
14777TIP3   OH265745   2.616   2.874  15.585 -0.6728 -0.2178 -0.1343
14777TIP3    H165746   2.659   2.885  15.670  0.6932 -0.8315 -0.7201
14777TIP3    H265747   2.662   2.935  15.527  0.3352 -1.7901 -1.0717
14778TIP3   OH265748   0.845   0.807  12.473 -0.5010  0.0266  0.0436
14778TIP3    H165749   0.934   0.789  12.441  0.2294  0.4513  1.7186
14778TIP3    H265750   0.792   0.737  12.436  0.1747  0.6593 -2.3236
14779TIP3   OH265751   1.403   0.741  15.433 -0.0824 -0.5001  0.1012
14779TIP3    H165752   1.317   0.762  15.467  0.7762 -0.1187  2.1780
14779TIP3    H265753   1.389   0.725  15.340 -3.1151 -4.5871  0.9942
14780TIP3   OH265754   3.876   4.946   1.497  0.2663 -0.1443  0.0274
14780TIP3    H165755   3.863   4.977   1.587  0.2714 -0.0586 -0.0019
14780TIP3    H265756   3.891   5.025   1.446 -1.6920  0.0044 -0.4034
14781TIP3   OH265757   1.454   0.693   4.138  0.3362  0.1505 -0.1647
14781TIP3    H165758   1.459   0.607   4.179  0.2384  0.9735  1.6603
14781TIP3    H265759   1.360   0.709   4.128  0.3491 -0.6935 -2.2707
14782TIP3   OH265760   5.126   3.047  15.768 -0.1493 -0.0255  0.0242
14782TIP3    H165761   5.194   3.088  15.822 -1.5898 -0.6430  2.4474
14782TIP3    H265762   5.072   3.121  15.740  0.1765  0.2395  0.0815
14783TIP3   OH265763   5.510   0.062  15.750  0.2413 -0.8976 -0.2811
14783TIP3    H165764   5.579   0.096  15.693  1.3969 -0.4650  1.3129
14783TIP3    H265765   5.486   0.135  15.806 -1.3335 -1.1354 -0.5888
14784TIP3   OH265766   3.749   1.955   5.173 -0.2487  0.5376 -0.1817
14784TIP3    H165767   3.699   1.891   5.222 -0.7537  0.9139 -0.1996
14784TIP3    H265768   3.689   1.987   5.106  1.5904 -3.0371 -3.9725
14785TIP3   OH265769   3.091   4.130   4.222  0.0626  0.0774 -0.1650
14785TIP3    H165770   3.139   4.164   4.146  0.4190 -0.7883 -0.3358
14785TIP3    H265771   3.158   4.099   4.281 -0.2605 -2.0809 -0.8431
14786TIP3   OH265772   2.315   0.208  16.223 -0.4340 -1.0837 -0.6634
14786TIP3    H165773   2.406   0.182  16.205 -0.3728 -0.2497 -1.7081
14786TIP3    H265774   2.304   0.289  16.173 -1.4740 -0.6668  0.2079
14787TIP3   OH265775   2.560   6.383  13.821 -0.1654 -0.5874  0.2256
14787TIP3    H165776   2.465   6.380  13.833 -0.6438 -0.0475 -2.6937
14787TIP3    H265777   2.590   6.298  13.855 -1.9745 -1.6112 -0.5400
14788TIP3   OH265778   3.105   5.694  11.753 -0.6269 -0.1480 -0.4403
14788TIP3    H165779   3.046   5.622  11.776 -0.9444 -0.5149 -2.2533
14788TIP3    H265780   3.173   5.653  11.700 -0.1249  0.6885 -0.4638
14789TIP3   OH265781   6.722   2.736   3.569  0.2433  0.9502  0.1031
14789TIP3    H165782   6.686   2.676   3.504 -0.9166  0.6128  1.0280
14789TIP3    H265783   6.771   2.681   3.629  1.0123  1.2184 -0.2615
14790TIP3   OH265784   4.828   0.491  15.831 -0.5269 -0.0433  0.5723
14790TIP3    H165785   4.775   0.423  15.874 -0.3988  0.3885  1.4291
14790TIP3    H265786   4.795   0.573  15.868 -0.9559  0.4067 -0.7513
14791TIP3   OH265787   5.023   3.983  16.379 -0.1746  0.1090 -0.4430
14791TIP3    H165788   4.933   3.950  16.376  0.4352 -1.7022  0.0053
14791TIP3    H265789   5.014   4.077  16.368 -2.0140 -0.1767 -1.9184
14792TIP3   OH265790   5.768   6.497  13.384  0.0339 -0.2200  0.2883
14792TIP3    H165791   5.683   6.534  13.408 -0.6603 -0.5804 -1.4614
14792TIP3    H265792   5.795   6.548  13.307  1.0331 -0.6283  0.3519
14793TIP3   OH265793   1.817   1.017   0.540  0.1545  0.7507 -0.2597
14793TIP3    H165794   1.831   1.112   0.540  0.3153  0.7797 -2.1806
14793TIP3    H265795   1.730   1.005   0.577  0.5776  1.5449  1.0405
14794TIP3   OH265796   5.944   6.469  16.126  0.3627  0.3237  0.3754
14794TIP3    H165797   5.981   6.554  16.101  2.1382 -0.8658 -1.3501
14794TIP3    H265798   5.995   6.442  16.202  0.3910  0.4347  0.3963
14795TIP3   OH265799   4.451   4.265   0.685 -0.1480 -0.3827 -0.2995
14795TIP3    H165800   4.514   4.308   0.627  1.0091 -1.0978  0.3709
14795TIP3    H265801   4.413   4.196   0.632  0.2535 -0.4740 -0.4771
14796TIP3   OH265802   2.921   5.217  14.514  0.1272  0.0697  0.2564
14796TIP3    H165803   2.979   5.284  14.552  1.0463  0.5914 -1.8886
14796TIP3    H265804   2.836   5.260  14.505 -0.0593 -0.0110  1.4977
14797TIP3   OH265805   5.036   5.006  14.195  0.5360 -0.2088  0.2718
14797TIP3    H165806   5.112   5.004  14.138  1.0785  2.6244  0.7271
14797TIP3    H265807   4.965   5.040  14.140 -0.1671 -1.8156  0.1331
14798TIP3   OH265808   5.290   6.625   5.109 -0.0429  0.1058  0.3353
14798TIP3    H165809   5.259   6.638   5.198  0.3281 -1.6903  0.7581
14798TIP3    H265810   5.383   6.604   5.118  0.1103  0.3614 -0.5178
14799TIP3   OH265811   4.128   5.404   3.955  0.1599  0.0112 -0.6184
14799TIP3    H165812   4.083   5.373   4.034  0.9708  1.1320  0.3193
14799TIP3    H265813   4.177   5.328   3.924  2.5482  0.3226  1.9414
14800TIP3   OH265814   6.594   4.032   2.805 -0.2265 -0.4265  0.3356
14800TIP3    H165815   6.582   4.102   2.741  1.0673 -0.7948 -0.3541
14800TIP3    H265816   6.524   3.970   2.786 -0.0644 -0.3645 -0.5128
14801TIP3   OH265817   6.526   4.391  15.190  0.0767 -0.0925 -0.4037
14801TIP3    H165818   6.473   4.471  15.192 -0.1815 -0.2630 -0.4675
14801TIP3    H265819   6.600   4.411  15.248  1.1175  0.9541 -1.9939
14802TIP3   OH265820   2.302   5.122   1.505 -0.4227  0.5267  0.3714
14802TIP3    H165821   2.231   5.081   1.554  0.4105 -1.3988  0.0666
14802TIP3    H265822   2.317   5.064   1.431  2.1271  0.2531  0.9910
14803TIP3   OH265823   4.246   3.166   1.657  0.4987  0.0482  0.3495
14803TIP3    H165824   4.334   3.189   1.689  0.8792  0.5420 -0.9830
14803TIP3    H265825   4.237   3.073   1.678  2.4531 -0.7358 -1.8482
14804TIP3   OH265826   1.369   0.418  16.327 -0.0745 -0.4873  0.3462
14804TIP3    H165827   1.374   0.355  16.399  0.7512 -0.8858 -0.0392
14804TIP3    H265828   1.392   0.367  16.249 -1.3266 -0.1562 -0.2711
14805TIP3   OH265829   3.271   5.973  13.368 -0.0339  0.4892  0.0789
14805TIP3    H165830   3.185   5.997  13.334  0.7078 -0.0481 -2.3901
14805TIP3    H265831   3.321   6.054  13.364 -0.0484  0.5031  0.1931
14806TIP3   OH265832   2.944   3.368  10.477  0.2034 -0.2875 -0.0259
14806TIP3    H165833   2.891   3.288  10.470  1.5156 -1.3987  1.9598
14806TIP3    H265834   3.014   3.356  10.413  0.8024 -1.0877  0.7587
14807TIP3   OH265835   2.657   4.144  14.564  0.0494 -0.2671  0.6426
14807TIP3    H165836   2.647   4.213  14.629  3.2240  1.1745 -0.2253
14807TIP3    H265837   2.683   4.190  14.484  0.6589 -2.3496 -0.4294
14808TIP3   OH265838   0.473   2.864   0.819  0.5262 -0.1542 -0.3957
14808TIP3    H165839   0.490   2.834   0.908 -1.1119 -0.3133 -0.1113
14808TIP3    H265840   0.527   2.942   0.808  1.2747 -0.5381  0.4811
14809TIP3   OH265841   5.068   0.224  13.818 -0.0136 -0.8125  0.2105
14809TIP3    H165842   5.046   0.232  13.725  4.3823 -1.5139 -1.1265
14809TIP3    H265843   5.026   0.143  13.845 -1.1476 -0.7565 -1.2634
14810TIP3   OH265844   2.447   2.659  16.609 -0.0019 -0.5368  0.1810
14810TIP3    H165845   2.515   2.706  16.657  0.7259 -2.3870  1.0669
14810TIP3    H265846   2.373   2.719  16.608  0.3288  0.0380  2.6637
14811TIP3   OH265847   3.622   4.242   2.678 -0.1533  0.3047 -0.3028
14811TIP3    H165848   3.543   4.284   2.710  0.6188  0.7566  1.0953
14811TIP3    H265849   3.685   4.313   2.667 -0.4031  0.2025 -3.0710
14812TIP3   OH265850   0.485   2.303   5.754  0.0364 -0.1677  0.0887
14812TIP3    H165851   0.404   2.259   5.726 -0.6350  0.6889  0.6491
14812TIP3    H265852   0.542   2.298   5.677 -0.7856 -0.2205 -0.5304
14813TIP3   OH265853   5.420   0.215  14.509  0.2734 -0.2991 -0.4095
14813TIP3    H165854   5.365   0.191  14.583  0.0418  0.6555 -0.2597
14813TIP3    H265855   5.359   0.243  14.441  0.5806  1.7833  0.1257
14814TIP3   OH265856   0.090   1.611  10.470 -0.6782  0.5081  0.1552
14814TIP3    H165857   0.050   1.566  10.544 -1.6365  0.9128 -0.0988
14814TIP3    H265858   0.036   1.689  10.458 -0.6735  0.3363 -1.0957
14815TIP3   OH265859   6.395   5.519  15.799  0.6091 -0.5738  0.3414
14815TIP3    H165860   6.485   5.516  15.833  1.5585  3.7377 -1.1429
14815TIP3    H265861   6.344   5.556  15.870  0.8953  0.6187 -0.0403
14816TIP3   OH265862   3.350   0.489  15.399  0.6623 -0.2814 -0.4194
14816TIP3    H165863   3.329   0.407  15.356  0.8604  0.1844 -1.4392
14816TIP3    H265864   3.347   0.469  15.493  3.0006 -2.0147 -0.6510
14817TIP3   OH265865   3.862   3.736   5.546  0.5234  0.2425 -0.0954
14817TIP3    H165866   3.907   3.751   5.630 -4.1764  0.4689  2.7578
14817TIP3    H265867   3.841   3.823   5.514 -1.3572  0.2006  0.8805
14818TIP3   OH265868   0.264   4.450  16.403  0.2229 -0.3592  0.6114
14818TIP3    H165869   0.204   4.494  16.343 -1.3158 -0.9024  1.6978
14818TIP3    H265870   0.334   4.514  16.417 -0.4815  0.6021 -0.0770
14819TIP3   OH265871   5.845   4.449  15.276 -0.2184  0.1376  0.1440
14819TIP3    H165872   5.839   4.354  15.276 -0.0756  0.1263 -0.2342
14819TIP3    H265873   5.851   4.473  15.184  0.7889  0.4382  0.2660
14820TIP3   OH265874   1.746   1.624  11.786  0.2010 -0.0500  0.7198
14820TIP3    H165875   1.798   1.546  11.770 -0.5823 -0.8247  1.7700
14820TIP3    H265876   1.764   1.646  11.877  0.4390  1.0254  0.4222
14821TIP3   OH265877   1.935   0.555   4.250  0.0406  0.0360  0.4765
14821TIP3    H165878   1.960   0.582   4.338 -0.7527 -0.4184  0.8536
14821TIP3    H265879   1.841   0.538   4.256  0.2437 -1.4166 -0.0841
14822TIP3   OH265880   0.912   6.629   6.463 -0.5337  0.2808 -0.6446
14822TIP3    H165881   0.830   6.641   6.510 -0.7002 -0.3755 -0.7510
14822TIP3    H265882   0.948   6.547   6.497 -1.9069 -1.6343 -3.4023
14823TIP3   OH265883   4.465   3.111  12.719  0.5048  0.5196 -0.4945
14823TIP3    H165884   4.442   3.024  12.753  0.2555  0.8159  0.0894
14823TIP3    H265885   4.530   3.145  12.780 -0.7152  1.4897  0.3252
14824TIP3   OH265886   6.349   1.950  12.413 -0.0363 -0.1567  0.6839
14824TIP3    H165887   6.390   1.966  12.328 -1.3773  2.4745  0.4008
14824TIP3    H265888   6.265   1.910  12.392 -0.0820 -0.1259  0.8081
14825TIP3   OH265889   2.938   5.931  15.760  0.2632  0.2657  0.0388
14825TIP3    H165890   2.883   6.002  15.793  0.5988  1.8436 -2.5833
14825TIP3    H265891   3.027   5.966  15.761  0.7423 -0.8997  0.6538
14826TIP3   OH265892   1.560   2.993  11.154  0.2848  0.0999  0.2354
14826TIP3    H165893   1.551   3.008  11.060  0.4987  0.2814  0.2436
14826TIP3    H265894   1.629   3.052  11.181  0.9785 -0.7230  0.3088
14827TIP3   OH265895   5.106   1.015   5.850  0.2992 -0.2197  0.3249
14827TIP3    H165896   5.177   0.988   5.791  0.1913 -1.0696  0.5648
14827TIP3    H265897   5.147   1.019   5.937  0.1650 -0.2397  0.3894
14828TIP3   OH265898   1.074   5.874  16.053 -0.3592  0.4856 -0.4038
14828TIP3    H165899   1.035   5.787  16.063  4.4381 -1.8690  0.4253
14828TIP3    H265900   1.105   5.897  16.141  2.2812  0.8938 -1.3447
14829TIP3   OH265901   3.931   6.330  15.933 -0.4567  0.0142  0.7660
14829TIP3    H165902   3.958   6.422  15.924 -0.2551 -0.2458 -2.8041
14829TIP3    H265903   3.944   6.310  16.026 -1.0843  3.7257  1.8076
14830TIP3   OH265904   3.116   1.110  16.923  0.0812  0.6403  0.1216
14830TIP3    H165905   3.202   1.115  16.881  0.1892  1.2203  0.4066
14830TIP3    H265906   3.054   1.101  16.851  0.2315  2.0163 -0.2034
14831TIP3   OH265907   1.868   6.067   0.789 -0.2359  0.2670  0.1553
14831TIP3    H165908   1.785   6.100   0.754 -0.4176 -0.0812  0.2559
14831TIP3    H265909   1.909   6.143   0.831 -0.3199  0.5340 -0.2359
14832TIP3   OH265910   0.963   4.167  10.607  0.2457 -0.4894  0.3150
14832TIP3    H165911   0.947   4.108  10.533  1.6991 -0.4468 -0.0659
14832TIP3    H265912   0.905   4.241  10.592 -0.2244 -0.9562 -0.2224
14833TIP3   OH265913   0.086   2.813  10.845  0.2813 -0.3954 -0.2877
14833TIP3    H165914   0.093   2.819  10.940 -0.6633  0.2723 -0.2412
14833TIP3    H265915   0.140   2.884  10.812  0.1376 -0.2556 -0.2245
14834TIP3   OH265916   5.953   6.210  13.764 -0.3572  0.2025 -0.5132
14834TIP3    H165917   5.859   6.198  13.782 -0.7710  3.0877 -0.3818
14834TIP3    H265918   5.993   6.215  13.851 -0.4087  1.0310 -0.5299
14835TIP3   OH265919   6.702   4.056  12.190 -0.3756 -1.0806  0.3163
14835TIP3    H165920   6.754   4.045  12.110 -1.8996 -0.2457 -0.8332
14835TIP3    H265921   6.658   4.141  12.179 -1.5336 -1.4908  1.5033
14836TIP3   OH265922   1.387   5.458  13.434  0.1900 -0.2732 -0.1513
14836TIP3    H165923   1.466   5.501  13.401  2.2316 -0.1761  4.2164
14836TIP3    H265924   1.389   5.371  13.394  2.1263 -0.0343 -0.6837
14837TIP3   OH265925   4.679   6.313   1.511  0.8417 -0.1170  0.3143
14837TIP3    H165926   4.730   6.368   1.452 -0.7559  2.0772  0.8489
14837TIP3    H265927   4.713   6.334   1.598  2.4501 -2.5299  0.3632
14838TIP3   OH265928   4.621   0.342   3.052  0.2415 -0.0944 -0.7287
14838TIP3    H165929   4.715   0.322   3.057 -0.1737 -1.8578  1.3179
14838TIP3    H265930   4.586   0.278   2.990  0.0973 -0.7603  0.0303
14839TIP3   OH265931   6.306   2.464   0.922 -0.1284  0.4262  0.6264
14839TIP3    H165932   6.390   2.435   0.888 -0.9499 -1.6964  0.2459
14839TIP3    H265933   6.292   2.411   1.000 -2.3631 -1.4095 -0.9034
14840TIP3   OH265934   1.415   1.771   4.590 -0.5351 -0.1090  0.6437
14840TIP3    H165935   1.485   1.722   4.633 -0.8840 -0.1385  1.1918
14840TIP3    H265936   1.378   1.826   4.659 -0.4158  0.6344  0.1277
14841TIP3   OH265937   6.765   4.971   4.256  0.2121 -0.0136  0.7469
14841TIP3    H165938   6.678   4.938   4.231  0.0114 -1.6911  3.2701
14841TIP3    H265939   6.807   4.993   4.173 -1.3716 -2.5025 -0.8654
14842TIP3   OH265940   0.592   1.645  16.360  0.6998  0.2837 -0.4428
14842TIP3    H165941   0.547   1.591  16.296  0.0805  0.5979 -0.2806
14842TIP3    H265942   0.611   1.585  16.433 -1.2166  0.5641  0.3339
14843TIP3   OH265943   1.754   4.808   1.709  0.2421 -0.3488 -0.7073
14843TIP3    H165944   1.836   4.760   1.717  0.1445 -0.8330 -2.4104
14843TIP3    H265945   1.687   4.740   1.699 -0.6861 -0.0678  2.3837
14844TIP3   OH265946   3.465   0.195  11.458  0.2480  0.4621  0.0430
14844TIP3    H165947   3.459   0.154  11.371  1.2437  1.0251 -0.3088
14844TIP3    H265948   3.415   0.137  11.515 -0.1705 -0.0817 -0.8495
14845TIP3   OH265949   3.073   0.015  15.647 -0.4582  0.3886  0.3926
14845TIP3    H165950   3.161  -0.000  15.679  0.3640 -0.4193 -1.9825
14845TIP3    H265951   3.052   0.105  15.673  1.1299  0.6458  0.8419
14846TIP3   OH265952   3.416   2.401   2.163  0.1572 -0.7238  0.0466
14846TIP3    H165953   3.329   2.389   2.126  0.1290 -2.4987  0.5892
14846TIP3    H265954   3.405   2.470   2.229 -1.1376 -1.8297  1.0322
14847TIP3   OH265955   5.189   5.116  12.169  0.6765  0.3800 -0.1235
14847TIP3    H165956   5.209   5.175  12.097 -0.9666  0.1716 -0.8076
14847TIP3    H265957   5.105   5.147  12.203  1.2554  0.2640  1.4897
14848TIP3   OH265958   0.842   3.021  12.415 -0.1078 -0.0073 -0.7139
14848TIP3    H165959   0.791   2.952  12.373  0.3507 -0.3772 -0.6649
14848TIP3    H265960   0.778   3.071  12.465 -0.5445  0.0010 -1.2731
14849TIP3   OH265961   3.054   3.834  12.614  0.2914  0.4042  0.1737
14849TIP3    H165962   3.047   3.917  12.567 -1.0230  0.4382  0.3893
14849TIP3    H265963   3.105   3.778  12.556 -0.3936  0.7855 -0.8188
14850TIP3   OH265964   6.309   1.264  11.746  0.2950 -0.4283  0.2560
14850TIP3    H165965   6.280   1.265  11.655  1.1518 -0.6728 -0.0260
14850TIP3    H265966   6.322   1.171  11.765  1.0023 -0.3146  0.3373
14851TIP3   OH265967   0.758   6.387  16.361  0.5703  0.3000 -0.2338
14851TIP3    H165968   0.743   6.478  16.337  1.7787  0.8846  1.0520
14851TIP3    H265969   0.688   6.338  16.318 -0.9183  1.9976  0.1474
14852TIP3   OH265970   5.738   1.496   3.902 -0.0853 -0.1480  0.1951
14852TIP3    H165971   5.815   1.495   3.844  0.1851 -1.6293  0.5525
14852TIP3    H265972   5.666   1.524   3.845  0.2472 -1.2138 -0.7837
14853TIP3   OH265973   0.494   1.126   5.912  0.3801 -0.4483  0.2625
14853TIP3    H165974   0.580   1.091   5.936 -0.3464 -1.5710  1.3638
14853TIP3    H265975   0.475   1.192   5.980  0.0694 -0.7257  0.4496
14854TIP3   OH265976   5.974   4.222  10.836 -0.1812 -0.1984 -0.7099
14854TIP3    H165977   5.981   4.188  10.925  0.0124  3.9862  1.1148
14854TIP3    H265978   5.881   4.242  10.825 -0.0788  0.0876 -1.1100
14855TIP3   OH265979   4.762   3.955  16.248 -0.7461  0.2307  0.1614
14855TIP3    H165980   4.668   3.970  16.236 -1.6022 -3.2954  1.3720
14855TIP3    H265981   4.793   3.923  16.163 -1.1252 -0.5690  0.3195
14856TIP3   OH265982   5.688   0.435   1.448 -0.1156 -0.3699  0.2623
14856TIP3    H165983   5.730   0.387   1.521 -0.3247  0.5160  0.9784
14856TIP3    H265984   5.634   0.501   1.491  1.4325  1.6048 -0.6972
14857TIP3   OH265985   4.527   6.165  11.590 -0.7518 -0.2152 -0.1821
14857TIP3    H165986   4.502   6.073  11.606  1.9017 -1.1588 -0.8924
14857TIP3    H265987   4.618   6.170  11.620 -0.5457  1.9597 -1.0115
14858TIP3   OH265988   1.176   3.621   3.426 -0.0529  0.0218  0.1592
14858TIP3    H165989   1.130   3.583   3.351 -0.8680 -1.9851  1.5682
14858TIP3    H265990   1.170   3.715   3.413 -1.3832 -0.2434 -1.5724
14859TIP3   OH265991   2.076   5.195   3.338 -0.3182 -0.3337 -0.0527
14859TIP3    H165992   2.026   5.231   3.265  1.6300  1.5327 -0.5906
14859TIP3    H265993   2.047   5.244   3.414  2.0423  2.3671 -0.7185
14860TIP3   OH265994   5.654   5.815  14.324 -0.1933  0.2575 -0.0395
14860TIP3    H165995   5.633   5.884  14.387 -0.7330 -0.0344  0.1077
14860TIP3    H265996   5.743   5.788  14.347  0.2770  1.3609 -0.5341
14861TIP3   OH265997   2.096   0.745   5.266 -0.4288 -0.8368  0.8143
14861TIP3    H165998   2.133   0.657   5.269  0.6430 -0.4394  0.0624
14861TIP3    H265999   2.057   0.758   5.353  1.3015 -1.2686  1.7082
14862TIP3   OH266000   5.507   5.383   1.102  1.0516  0.0908  0.4070
14862TIP3    H166001   5.474   5.302   1.141  0.2260  0.3326  0.2520
14862TIP3    H266002   5.503   5.447   1.173  1.8787 -0.0442  0.5794
14863TIP3   OH266003   4.264   4.307  16.755 -0.1777  0.1744  0.0016
14863TIP3    H166004   4.221   4.225  16.781  0.3657  0.3423  1.5484
14863TIP3    H266005   4.346   4.279  16.715  0.2399 -0.0456  0.9823
14864TIP3   OH266006   1.001   0.492  11.319 -0.1799  0.1135  0.3500
14864TIP3    H166007   1.089   0.456  11.304 -1.2726 -2.3015 -0.8758
14864TIP3    H266008   0.973   0.523  11.233 -1.8104 -2.4618 -0.1704
14865TIP3   OH266009   1.924   5.353  12.304 -0.2772 -0.5482  0.4419
14865TIP3    H166010   1.891   5.427  12.252 -1.3243 -0.1783  1.5735
14865TIP3    H266011   1.985   5.308  12.246 -0.7007  0.3830 -0.7714
14866TIP3   OH266012   2.038   6.644   3.976  0.3652  0.2615 -0.2696
14866TIP3    H166013   2.082   6.664   3.894  0.9101  0.9494  0.1824
14866TIP3    H266014   1.967   6.708   3.982  0.7089  0.6208  0.0826
14867TIP3   OH266015   0.721   0.127  14.704  0.3098  0.0014 -0.3790
14867TIP3    H166016   0.734   0.214  14.667 -0.8262  1.3158  2.1036
14867TIP3    H266017   0.810   0.097  14.725  0.7198  0.5028 -1.3228
14868TIP3   OH266018   2.042   4.718   0.616  0.2921  0.1109  0.6569
14868TIP3    H166019   2.036   4.790   0.553  1.3260  0.6759  1.1758
14868TIP3    H266020   2.084   4.647   0.567 -0.8154 -0.1838  0.1159
14869TIP3   OH266021   2.952   4.099  16.025 -0.4497  0.2184 -0.1330
14869TIP3    H166022   2.868   4.131  16.059 -0.6175 -0.0574 -0.2894
14869TIP3    H266023   2.950   4.120  15.932  0.1634  1.2997  0.0805
14870TIP3   OH266024   1.392   5.919   1.573  0.2018 -0.2414  0.2306
14870TIP3    H166025   1.380   5.925   1.668 -1.8526  1.0029 -0.0402
14870TIP3    H266026   1.482   5.949   1.559  0.1509  0.7270  1.6895
14871TIP3   OH266027   5.432   5.900   3.669  0.2081  0.1028 -0.7354
14871TIP3    H166028   5.497   5.839   3.704  0.8532 -0.1125 -2.2378
14871TIP3    H266029   5.434   5.974   3.730 -1.4740 -1.7944  1.8566
14872TIP3   OH266030   6.613   5.607   4.724 -0.7447  0.5815 -0.4856
14872TIP3    H166031   6.522   5.591   4.749 -0.0595 -0.4702  1.5946
14872TIP3    H266032   6.621   5.565   4.638 -2.0076 -0.0681 -0.3254
14873TIP3   OH266033   0.383   0.343  12.843 -0.3674  0.3490 -0.7545
14873TIP3    H166034   0.349   0.299  12.766 -0.0087 -1.9103  0.2821
14873TIP3    H266035   0.470   0.305  12.856 -0.5444  0.4053  0.9211
14874TIP3   OH266036   1.718   3.053  17.023  0.0391 -0.2067  0.0575
14874TIP3    H166037   1.623   3.042  17.014 -0.5864  3.8322 -0.4131
14874TIP3    H266038   1.753   3.024  16.939 -0.7454 -1.6819  0.2055
14875TIP3   OH266039   4.790   1.563   5.301 -0.3202 -0.2265  0.0209
14875TIP3    H166040   4.840   1.595   5.226  1.5439  1.1373  1.7542
14875TIP3    H266041   4.745   1.641   5.335 -0.8134 -0.7429  0.5743
14876TIP3   OH266042   3.156   2.996  14.934  0.4084  0.1464 -0.1076
14876TIP3    H166043   3.197   3.041  15.008  1.6338  1.0682 -1.3061
14876TIP3    H266044   3.069   3.036  14.928  0.5594  0.5671  0.4150
14877TIP3   OH266045   4.903   1.813  14.802 -0.4578  0.5364  0.5367
14877TIP3    H166046   4.873   1.818  14.893 -0.7990  1.2176  0.3912
14877TIP3    H266047   4.924   1.720  14.788  2.5620  0.8187  2.2472
14878TIP3   OH266048   1.811   1.496   5.244 -0.0374  0.0226 -0.1616
14878TIP3    H166049   1.845   1.421   5.293 -1.3655 -0.6197 -0.1887
14878TIP3    H266050   1.804   1.464   5.154 -0.7543  0.1115 -0.1452
14879TIP3   OH266051   5.005   6.069  14.814 -0.1648 -0.0291 -0.4829
14879TIP3    H166052   5.021   6.149  14.764 -0.9145  1.0369  0.9067
14879TIP3    H266053   4.911   6.053  14.803 -0.2989  0.1084  0.3838
14880TIP3   OH266054   0.968   0.561  14.760 -1.0564  0.1185  0.5011
14880TIP3    H166055   0.917   0.605  14.693 -2.7273 -0.8523  1.0854
14880TIP3    H266056   0.952   0.467  14.745  1.4924 -0.3138 -0.0094
14881TIP3   OH266057   2.997   6.090  12.810  0.0709  0.2882  0.1905
14881TIP3    H166058   3.026   6.042  12.732 -0.8998  0.2164 -0.1441
14881TIP3    H266059   3.017   6.031  12.883  0.1117 -0.0589 -0.0973
14882TIP3   OH266060   2.332   1.191  13.955  0.3581  0.0529  0.4711
14882TIP3    H166061   2.307   1.202  14.047 -0.9272  2.9189 -0.1296
14882TIP3    H266062   2.373   1.274  13.931 -0.8955  0.0361 -2.0203
14883TIP3   OH266063   0.201   0.290  15.219  0.8737  0.6404 -0.1329
14883TIP3    H166064   0.115   0.249  15.208  0.1566  1.6397  1.3470
14883TIP3    H266065   0.260   0.237  15.166  0.2465 -2.9534  2.3655
14884TIP3   OH266066   4.360   1.612   4.423 -0.1475 -0.4050 -0.4900
14884TIP3    H166067   4.321   1.700   4.423 -0.6675 -0.6265  0.0174
14884TIP3    H266068   4.447   1.624   4.385 -0.3775  0.2557 -0.8188
14885TIP3   OH266069   1.017   5.641   5.534  0.5068  0.1272 -0.1827
14885TIP3    H166070   0.965   5.657   5.613  0.4478 -0.1334 -0.1664
14885TIP3    H266071   1.092   5.700   5.542  0.6841 -0.1514  0.2430
14886TIP3   OH266072   0.549   2.484  10.219 -0.7380  0.4458 -0.2518
14886TIP3    H166073   0.552   2.395  10.253 -0.6061  0.8414  0.8249
14886TIP3    H266074   0.634   2.496  10.177 -0.3478  0.3869  0.4955
14887TIP3   OH266075   4.147   0.721   5.686 -0.1286  0.0376  0.0177
14887TIP3    H166076   4.181   0.647   5.736 -0.3560 -2.0999 -2.7794
14887TIP3    H266077   4.084   0.763   5.746  0.9025 -1.2436  2.1128
14888TIP3   OH266078   1.887   0.303   6.087 -0.5067 -0.1672 -0.3830
14888TIP3    H166079   1.947   0.237   6.052 -1.0725  0.4897 -2.7696
14888TIP3    H266080   1.944   0.375   6.115  0.0082 -1.0275  0.8817
14889TIP3   OH266081   3.750   1.117  16.423 -0.1367  0.2845  0.4455
14889TIP3    H166082   3.808   1.191  16.403 -0.3955  0.5068  0.5164
14889TIP3    H266083   3.664   1.145  16.392 -0.0314 -0.4134 -0.5265
14890TIP3   OH266084   5.399   3.720  15.545 -0.0081 -0.6612  0.4788
14890TIP3    H166085   5.449   3.747  15.622 -0.7266 -0.0056  0.7383
14890TIP3    H266086   5.462   3.718  15.474  0.5379 -0.6421  0.9560
14891TIP3   OH266087   2.431   5.438  15.479  0.7594 -0.0715  0.0148
14891TIP3    H166088   2.471   5.416  15.394  1.5796 -0.1164  0.4037
14891TIP3    H266089   2.467   5.524  15.501  0.1844  0.1519  0.1018
14892TIP3   OH266090   1.840   5.304   2.391  0.1336 -0.1868 -0.6273
14892TIP3    H166091   1.828   5.399   2.394 -0.1659 -0.1085 -2.8033
14892TIP3    H266092   1.772   5.273   2.331  0.7848 -1.6640 -0.6430
14893TIP3   OH266093   1.776   5.946  15.768  0.3065 -0.5708 -1.0100
14893TIP3    H166094   1.721   5.874  15.797 -3.2930  2.1251 -0.3676
14893TIP3    H266095   1.772   5.941  15.672 -0.2383 -1.0198 -0.9728
14894TIP3   OH266096   2.852   4.111  11.931  0.2676  0.2873 -0.5643
14894TIP3    H166097   2.913   4.057  11.882  1.7353  0.4467  1.0048
14894TIP3    H266098   2.787   4.049  11.964  1.1842 -0.3460  0.1063
14895TIP3   OH266099   0.505   5.554  16.099  0.6165 -0.0312  0.3891
14895TIP3    H166100   0.568   5.485  16.120  0.4084 -0.1880  0.4973
14895TIP3    H266101   0.510   5.615  16.172  1.7901  0.7877 -0.3345
14896TIP3   OH266102   0.547   3.596  12.361 -0.6631  0.3565  0.0250
14896TIP3    H166103   0.621   3.604  12.421 -0.0988 -0.0480 -0.6061
14896TIP3    H266104   0.470   3.589  12.418 -0.3501  1.9305  0.6798
14897TIP3   OH266105   3.304   5.038  14.314  0.3431  0.2562 -0.2827
14897TIP3    H166106   3.233   5.087  14.273 -0.8565 -0.7581  0.4975
14897TIP3    H266107   3.358   5.009  14.241  0.1213  1.2682 -0.8761
14898TIP3   OH266108   0.571   5.416  12.541  0.5105  0.7321 -0.6719
14898TIP3    H166109   0.573   5.345  12.476  0.3014  0.1439 -0.0581
14898TIP3    H266110   0.479   5.418  12.569  1.1562 -1.2168  1.9237
14899TIP3   OH266111   0.264   4.952   3.021 -0.1597 -0.2364  0.2566
14899TIP3    H166112   0.307   4.923   2.941 -1.1162  2.5703 -1.3916
14899TIP3    H266113   0.303   5.037   3.041 -0.5058 -0.5080  2.3672
14900TIP3   OH266114   5.436   0.287  16.652 -0.2510 -0.3371  0.0599
14900TIP3    H166115   5.510   0.297  16.712  1.3779 -2.3910 -1.4750
14900TIP3    H266116   5.458   0.340  16.576  0.1261 -1.6514 -0.7813
14901TIP3   OH266117   2.637   0.166   0.531 -0.1375 -0.1441  0.4653
14901TIP3    H166118   2.696   0.091   0.540  1.2193  0.6736 -1.0874
14901TIP3    H266119   2.605   0.183   0.619  1.3896 -1.0667  1.2310
14902TIP3   OH266120   3.580   5.648   4.729 -0.2963  0.3114  0.2597
14902TIP3    H166121   3.555   5.733   4.691 -1.4533 -0.3497 -0.5047
14902TIP3    H266122   3.624   5.671   4.811 -1.4271  1.6374  0.5343
14903TIP3   OH266123   5.362   1.256  12.911  0.0473  0.1648 -0.1539
14903TIP3    H166124   5.375   1.163  12.893 -1.2061  0.3330 -2.3234
14903TIP3    H266125   5.348   1.295  12.824 -1.6937  1.9937  0.8747
14904TIP3   OH266126   6.362   5.316   3.063  0.0067 -0.1467  0.2025
14904TIP3    H166127   6.346   5.387   3.002  0.1512  1.1402  1.6005
14904TIP3    H266128   6.277   5.303   3.107  0.2102 -0.2282  0.5726
14905TIP3   OH266129   5.163   3.788  16.498 -0.2359  0.0927  0.4937
14905TIP3    H166130   5.169   3.729  16.422  0.9233 -0.8106  1.2504
14905TIP3    H266131   5.120   3.867  16.463  1.9600  0.4909 -1.5961
14906TIP3   OH266132   5.129   1.431   3.109  0.1818 -0.2280 -0.2135
14906TIP3    H166133   5.060   1.392   3.163  0.8579 -1.8852 -0.4809
14906TIP3    H266134   5.163   1.358   3.057  0.6373  0.9940 -1.7252
14907TIP3   OH266135   5.235   1.748   6.458 -0.0836 -0.8278  0.0458
14907TIP3    H166136   5.177   1.676   6.483 -1.3517 -0.0862 -0.6839
14907TIP3    H266137   5.308   1.705   6.412 -2.3514 -1.5057 -3.2521
14908TIP3   OH266138   0.334   4.239   5.559  0.6200 -0.1463 -0.5492
14908TIP3    H166139   0.363   4.173   5.622 -0.3942 -0.1039 -0.0177
14908TIP3    H266140   0.392   4.314   5.575 -1.2276  0.8547  2.1964
14909TIP3   OH266141   6.109   5.581  11.265 -0.5270  0.1092  0.1975
14909TIP3    H166142   6.060   5.662  11.272  0.0646  0.5690 -0.7206
14909TIP3    H266143   6.143   5.581  11.175  2.3315  0.4932  1.1771
14910TIP3   OH266144   4.471   5.305   5.706 -0.0742  0.3169 -0.1217
14910TIP3    H166145   4.472   5.219   5.749  1.7440  0.1821 -0.3421
14910TIP3    H266146   4.524   5.361   5.764 -0.1300  0.9273 -0.6506
14911TIP3   OH266147   0.827   1.476   5.955 -0.1949  0.2538 -0.4485
14911TIP3    H166148   0.845   1.561   5.996 -0.6019 -0.2683  0.8596
14911TIP3    H266149   0.819   1.415   6.028 -3.7871 -0.1954 -1.0225
14912TIP3   OH266150   1.495   4.791   5.232  0.3341  0.2350 -0.1715
14912TIP3    H166151   1.543   4.796   5.315 -0.4749 -0.5916  0.3644
14912TIP3    H266152   1.513   4.874   5.188 -0.1673  1.1780  1.3458
14913TIP3   OH266153   0.994   0.052   4.784 -0.2622 -0.0733 -0.2385
14913TIP3    H166154   0.946   0.098   4.853 -0.8191 -0.8738 -0.0774
14913TIP3    H266155   0.927   0.006   4.734  0.2299 -0.2645 -0.7424
14914TIP3   OH266156   4.391   5.046   5.867  0.0869  0.6415 -0.3868
14914TIP3    H166157   4.466   4.995   5.838  0.4740  0.3181  1.0764
14914TIP3    H266158   4.332   5.048   5.792  0.6720 -0.8136 -0.9239
14915TIP3   OH266159   3.236   2.232  16.795  0.1444 -0.0585 -0.4820
14915TIP3    H166160   3.268   2.203  16.710  0.0202  0.0315 -0.5595
14915TIP3    H266161   3.142   2.247  16.781  0.0482 -0.4088 -0.2347
14916TIP3   OH266162   2.431   5.029   3.881  0.1450  0.3909 -0.6007
14916TIP3    H166163   2.363   5.038   3.948  1.5559  1.1192  0.7974
14916TIP3    H266164   2.497   5.095   3.903  2.4100 -1.7301 -0.5102
14917TIP3   OH266165   0.877   0.993  16.103 -0.1942 -0.0911  0.0396
14917TIP3    H166166   0.789   0.959  16.086 -1.0032  2.1578 -0.6847
14917TIP3    H266167   0.903   0.954  16.186 -1.8358 -0.8701  0.2156
14918TIP3   OH266168   6.663   1.426   5.051 -1.1335  0.4099  0.5256
14918TIP3    H166169   6.726   1.356   5.071  0.0182  1.0276 -0.8000
14918TIP3    H266170   6.578   1.388   5.073 -0.5049 -1.2770  0.2062
14919TIP3   OH266171   5.679   6.218   1.033  0.6793 -0.3537  0.1499
14919TIP3    H166172   5.713   6.213   0.944 -0.8489 -0.7216 -0.4327
14919TIP3    H266173   5.731   6.153   1.082  1.5958 -0.0753 -0.4219
14920TIP3   OH266174   4.783   4.003  10.726 -0.2805 -0.1313 -0.6098
14920TIP3    H166175   4.859   4.045  10.766  0.0835 -0.5852 -0.8142
14920TIP3    H266176   4.749   4.068  10.665 -1.1758  0.7837  0.8063
14921TIP3   OH266177   5.398   4.085   0.575 -0.1559  0.1196  0.1229
14921TIP3    H166178   5.484   4.087   0.533 -1.0318  1.0910 -1.7369
14921TIP3    H266179   5.407   4.144   0.650  0.2732  1.7744 -1.1800
14922TIP3   OH266180   5.859   5.531  13.935  0.0946 -0.4745  0.3923
14922TIP3    H166181   5.885   5.538  13.843 -0.2114 -2.2034  0.1384
14922TIP3    H266182   5.924   5.472  13.973 -1.8273 -2.7309  0.3852
14923TIP3   OH266183   2.102   0.129  15.918  0.0080  0.1987 -0.5182
14923TIP3    H166184   2.102   0.076  15.998 -0.9989  0.4970 -0.3035
14923TIP3    H266185   2.140   0.213  15.945  0.2029  0.1015 -0.4911
14924TIP3   OH266186   2.408   6.265   1.218  0.0674 -0.4467  0.3227
14924TIP3    H166187   2.422   6.355   1.246  1.1477  0.0165 -1.5249
14924TIP3    H266188   2.495   6.226   1.216 -0.4573 -1.8187  1.8519
14925TIP3   OH266189   6.272   3.497   6.031 -0.3300  0.1943 -0.4462
14925TIP3    H166190   6.321   3.502   5.949  0.7472  1.7053  0.2410
14925TIP3    H266191   6.204   3.564   6.023 -0.6923 -0.1700 -0.4109
14926TIP3   OH266192   5.148   1.173  16.687  0.1837 -0.3463 -0.4105
14926TIP3    H166193   5.194   1.099  16.647 -0.6503 -1.4335  0.5738
14926TIP3    H266194   5.056   1.158  16.668  0.0340  0.6764 -0.5546
14927TIP3   OH266195   2.066   4.459  14.379 -0.0288 -0.2578  0.0853
14927TIP3    H166196   2.152   4.418  14.371  0.0608 -0.8402  2.9431
14927TIP3    H266197   2.004   4.387  14.370 -0.3317  0.2325 -2.4724
14928TIP3   OH266198   3.739   0.327   2.196 -0.1056 -0.4943 -0.0599
14928TIP3    H166199   3.734   0.386   2.121  1.0477 -0.2985 -0.0070
14928TIP3    H266200   3.730   0.385   2.273 -0.9105 -0.6471 -0.0299
14929TIP3   OH266201   2.543   2.391  15.210 -0.8338 -0.3665  0.3234
14929TIP3    H166202   2.545   2.463  15.147  1.7372 -0.3683  0.2800
14929TIP3    H266203   2.602   2.419  15.280 -0.0190 -2.2580  0.4596
14930TIP3   OH266204   4.947   6.304   5.976  0.1876 -0.2529 -0.0017
14930TIP3    H166205   4.955   6.396   6.005  4.0882 -0.2876 -0.3803
14930TIP3    H266206   4.941   6.254   6.058 -0.3391  0.2379  0.2681
14931TIP3   OH266207   1.940   4.678   1.925  0.1475  0.1197  0.5126
14931TIP3    H166208   1.909   4.587   1.914  0.2426  0.0777  0.5925
14931TIP3    H266209   1.869   4.722   1.972  0.4603 -0.1229  1.2175
14932TIP3   OH266210   0.769   0.639  11.112 -0.0103  0.6523  0.5635
14932TIP3    H166211   0.853   0.621  11.069 -0.8494  3.6505 -2.7846
14932TIP3    H266212   0.768   0.734  11.124 -1.7090  0.3639  3.4878
14933TIP3   OH266213   1.772   2.193   2.849  0.4114 -0.4049 -0.1328
14933TIP3    H166214   1.779   2.280   2.888  3.5951  0.3642 -2.0838
14933TIP3    H266215   1.755   2.135   2.924 -1.4836  1.7982  1.2483
14934TIP3   OH266216   5.882   2.094  16.567 -0.7169 -0.0149 -0.9257
14934TIP3    H166217   5.944   2.022  16.556 -2.0412 -1.0477 -1.8889
14934TIP3    H266218   5.813   2.077  16.503 -2.5099  0.5677  0.7616
14935TIP3   OH266219   1.749   4.281  11.931  0.3529 -0.1435 -0.0729
14935TIP3    H166220   1.689   4.347  11.896  0.6310  0.3505  0.3788
14935TIP3    H266221   1.692   4.208  11.954 -0.2621  0.7501  1.4202
14936TIP3   OH266222   1.306   5.859   2.849 -0.6095 -0.1112 -0.2411
14936TIP3    H166223   1.224   5.832   2.892 -1.3341  0.3011 -1.3307
14936TIP3    H266224   1.359   5.895   2.920 -0.8951 -1.4341  0.6885
14937TIP3   OH266225   0.956   1.350   5.170  0.1705 -0.5990  0.2470
14937TIP3    H166226   0.878   1.366   5.117 -0.4833 -2.6560  0.5017
14937TIP3    H266227   0.953   1.417   5.238  0.1576  1.0707 -1.3390
14938TIP3   OH266228   1.414   6.356   2.576  0.4488  0.5505 -0.4300
14938TIP3    H166229   1.404   6.435   2.628  1.5119 -0.6149  1.7002
14938TIP3    H266230   1.474   6.381   2.506  1.1503  1.5295  0.4842
14939TIP3   OH266231   0.348   3.155   2.927  0.0834  0.4337  0.2184
14939TIP3    H166232   0.298   3.191   2.855  2.3146  0.1753 -1.5748
14939TIP3    H266233   0.377   3.069   2.896  0.1278 -0.2050  1.9010
14940TIP3   OH266234   1.515   5.603   2.283  0.0980 -0.1296  0.1827
14940TIP3    H166235   1.490   5.540   2.350 -0.4016 -0.5971 -0.4393
14940TIP3    H266236   1.539   5.550   2.207 -1.2304  0.4445 -0.6638
14941TIP3   OH266237   5.412   2.171   5.779 -0.5201 -0.0978  0.0199
14941TIP3    H166238   5.454   2.249   5.815  1.1136 -0.4729 -0.9831
14941TIP3    H266239   5.326   2.202   5.748 -1.1936  0.6134  2.3980
14942TIP3   OH266240   3.784   6.732  15.552  0.3110  0.2794 -0.0992
14942TIP3    H166241   3.752   6.727  15.462 -0.4938 -0.3603  0.2130
14942TIP3    H266242   3.869   6.777  15.545 -0.4778  1.7249 -0.9874
14943TIP3   OH266243   5.278   0.931  12.235  0.1817 -0.5585 -0.0127
14943TIP3    H166244   5.236   0.905  12.153 -0.4114 -0.1869  0.1657
14943TIP3    H266245   5.213   0.911  12.302 -0.3858  1.4697  0.1243
14944TIP3   OH266246   1.557   3.925  16.462 -0.2379  0.2950 -0.2528
14944TIP3    H166247   1.590   3.864  16.527  1.2788  0.5025 -0.7905
14944TIP3    H266248   1.533   3.870  16.387  0.6339  0.3038 -0.5427
14945TIP3   OH266249   2.551   6.042   2.539 -0.0976  0.8452  0.6564
14945TIP3    H166250   2.645   6.025   2.538 -0.1567  0.4666  1.0741
14945TIP3    H266251   2.545   6.135   2.560  0.1787  0.6999  1.4475
14946TIP3   OH266252   5.711   3.130  15.579  0.0103 -0.1541  0.3279
14946TIP3    H166253   5.636   3.190  15.580  0.0190 -0.1436  0.3377
14946TIP3    H266254   5.733   3.117  15.671  0.0830 -0.0780  0.3227
14947TIP3   OH266255   4.337   0.973  16.735 -0.5341  0.1833  0.0139
14947TIP3    H166256   4.369   1.018  16.812  1.1460  1.0363 -1.1215
14947TIP3    H266257   4.243   0.964  16.750 -0.1462 -0.3794  2.4629
14948TIP3   OH266258   6.457   6.151   4.885 -0.0023  0.8483  0.0042
14948TIP3    H166259   6.506   6.212   4.940 -0.4172  1.6696 -0.5113
14948TIP3    H266260   6.378   6.199   4.861 -1.0081 -0.4010  0.7128
14949TIP3   OH266261   6.791   5.902  14.471  0.0586 -0.4519  0.9390
14949TIP3    H166262   6.828   5.985  14.440 -0.1860 -0.6165  0.1804
14949TIP3    H266263   6.725   5.880  14.406 -0.9463 -0.4789  1.9294
14950TIP3   OH266264   0.757   1.657   4.937  0.5311 -0.3918 -0.3433
14950TIP3    H166265   0.672   1.698   4.923 -0.3206 -1.5258  1.1870
14950TIP3    H266266   0.752   1.575   4.889 -0.0688 -1.4241  1.4066
14951TIP3   OH266267   5.381   4.955  15.763  0.2057  0.0954  0.4690
14951TIP3    H166268   5.291   4.973  15.736  0.0253 -0.2158  0.8506
14951TIP3    H266269   5.418   5.041  15.782  0.4275  0.3558 -1.0253
14952TIP3   OH266270   5.361   3.576   0.758 -0.1386 -0.2229 -0.2851
14952TIP3    H166271   5.281   3.561   0.808 -0.3133  1.8003  0.1627
14952TIP3    H266272   5.347   3.662   0.717  2.2362  0.7731  0.7863
14953TIP3   OH266273   5.729   4.669  11.046 -0.6265  0.7440  0.0417
14953TIP3    H166274   5.767   4.606  11.107 -0.3061  1.4693  0.6036
14953TIP3    H266275   5.688   4.615  10.978  0.8431 -0.0694 -0.2449
14954TIP3   OH266276   2.640   4.377   0.996  0.1525  0.1286 -0.3875
14954TIP3    H166277   2.589   4.392   1.076  0.8690  0.2982  0.0464
14954TIP3    H266278   2.597   4.432   0.930 -0.3720  0.0820 -0.0955
14955TIP3   OH266279   2.338   4.521   4.755 -0.3215  0.1930 -0.0004
14955TIP3    H166280   2.395   4.598   4.749 -0.9091  0.6822  0.5115
14955TIP3    H266281   2.395   4.447   4.735  0.4757  0.6796  0.4055
14956TIP3   OH266282   2.815   1.996   4.839  0.1541 -0.3584  0.7075
14956TIP3    H166283   2.726   1.972   4.815  0.4497 -0.4175 -0.3743
14956TIP3    H266284   2.830   2.081   4.797 -0.1898  0.8289  2.8394
14957TIP3   OH266285   5.649   3.020  11.407 -0.4342 -0.0353 -0.1555
14957TIP3    H166286   5.636   3.038  11.314  0.0818  0.7750 -0.0783
14957TIP3    H266287   5.561   3.009  11.442 -0.6138 -1.2673 -0.8989
14958TIP3   OH266288   6.352   1.377   0.598 -0.3407  0.2793  0.0945
14958TIP3    H166289   6.321   1.411   0.514  2.9115  1.2216 -0.8760
14958TIP3    H266290   6.342   1.450   0.659 -1.8122 -0.0982  0.3472
14959TIP3   OH266291   1.390   0.409   3.995  0.2645 -1.1767  0.3152
14959TIP3    H166292   1.430   0.401   4.082 -1.9162  0.4025  1.5777
14959TIP3    H266293   1.391   0.503   3.977 -3.7963 -0.8159  1.0418
14960TIP3   OH266294   2.919   2.105  16.875 -0.3365  0.5297  0.6341
14960TIP3    H166295   2.949   2.049  16.804 -0.9564 -0.7555  1.3492
14960TIP3    H266296   2.934   2.194  16.843  2.0241 -0.0022  0.0245
14961TIP3   OH266297   3.662   4.548  16.585  0.0917  0.1183  0.6397
14961TIP3    H166298   3.649   4.593  16.669 -0.8209  3.2683 -1.0350
14961TIP3    H266299   3.590   4.578  16.530  1.8225 -0.1487 -1.9411
14962TIP3   OH266300   4.413   4.197  12.716 -0.5245 -0.0905 -0.3962
14962TIP3    H166301   4.457   4.278  12.689  1.6070 -0.8903  0.4785
14962TIP3    H266302   4.367   4.167  12.637  0.0817  1.0676 -1.2168
14963TIP3   OH266303   2.705   3.434   4.522  0.6387  0.0940 -0.5452
14963TIP3    H166304   2.676   3.431   4.431 -0.6716  1.8568 -0.2516
14963TIP3    H266305   2.729   3.344   4.543 -2.0441 -0.9888 -1.7052
14964TIP3   OH266306   1.624   6.628   6.099  0.3267  0.2474 -0.0707
14964TIP3    H166307   1.686   6.564   6.133  1.2152  0.4015 -1.3250
14964TIP3    H266308   1.539   6.602   6.135  0.7603 -1.3171 -0.1398
14965TIP3   OH266309   4.619   2.116  14.509  0.2266 -0.0596 -0.1781
14965TIP3    H166310   4.573   2.114  14.425  1.4950 -2.6691 -0.9246
14965TIP3    H266311   4.624   2.209  14.531  0.5065  0.8307 -3.3920
14966TIP3   OH266312   4.995   2.562  11.457 -0.6624  0.0524  0.4559
14966TIP3    H166313   5.062   2.559  11.389 -0.1005  3.0594  0.7564
14966TIP3    H266314   5.034   2.516  11.531  0.6868  0.9002  0.2962
14967TIP3   OH266315   3.613   1.092   0.226 -0.4561 -0.1046 -0.4760
14967TIP3    H166316   3.522   1.082   0.252  0.0226 -1.4230  0.7922
14967TIP3    H266317   3.663   1.079   0.306  0.9127 -0.6141 -1.3761
14968TIP3   OH266318   4.508   1.982   3.182 -0.5725  0.4050  0.4647
14968TIP3    H166319   4.597   1.947   3.176 -0.8314 -0.7858  2.6654
14968TIP3    H266320   4.454   1.916   3.139 -0.5635  0.3677  0.5105
14969TIP3   OH266321   1.956   0.876   2.795 -0.0739  0.6602 -0.0220
14969TIP3    H166322   2.031   0.816   2.790  1.5950  2.7328 -3.4577
14969TIP3    H266323   1.954   0.903   2.887  2.5692 -0.5417  0.4946
14970TIP3   OH266324   5.969   1.190  13.901 -0.2196  0.1779  0.1948
14970TIP3    H166325   5.965   1.185  13.806 -1.3715  0.2315  0.2265
14970TIP3    H266326   5.879   1.211  13.928 -0.4569 -2.1398  1.4459
14971TIP3   OH266327   1.291   2.654  16.219 -0.0060  0.2194 -0.3483
14971TIP3    H166328   1.345   2.728  16.192  0.1448  0.0249 -0.5774
14971TIP3    H266329   1.218   2.653  16.156  0.4112 -0.3089 -0.8316
14972TIP3   OH266330   1.202   0.038  11.704 -0.2340  0.8148  0.1111
14972TIP3    H166331   1.154  -0.022  11.761 -0.3390 -1.0072 -1.7821
14972TIP3    H266332   1.151   0.119  11.707 -0.0405  0.9349  2.8065
14973TIP3   OH266333   4.237   3.408  10.791 -0.1194  0.2433  0.5989
14973TIP3    H166334   4.180   3.344  10.833 -0.1328 -0.0947  0.0683
14973TIP3    H266335   4.286   3.358  10.726 -0.2836  0.8084  0.0329
14974TIP3   OH266336   2.309   0.754   4.621  0.0723 -0.5237 -0.3297
14974TIP3    H166337   2.319   0.660   4.630  0.2501 -0.4567  0.1879
14974TIP3    H266338   2.386   0.782   4.570 -0.0999 -0.6835 -0.6837
14975TIP3   OH266339   5.242   1.580  16.513 -0.5550  0.6969  0.3537
14975TIP3    H166340   5.319   1.613  16.466 -0.1256 -1.8129 -0.9113
14975TIP3    H266341   5.168   1.603  16.457 -0.1949 -0.8870 -0.8706
14976TIP3   OH266342   0.952   0.178  13.248 -0.2042  0.4849  0.3474
14976TIP3    H166343   1.040   0.198  13.216  0.9651  0.6037  3.3465
14976TIP3    H266344   0.960   0.090  13.285 -1.3800  0.4766  0.6019
14977TIP3   OH266345   2.453   2.096  11.772 -0.5398 -0.1280  0.1826
14977TIP3    H166346   2.482   2.109  11.862  0.0994 -0.8320  0.0927
14977TIP3    H266347   2.523   2.134  11.718 -0.5691 -0.3535 -0.0173
14978TIP3   OH266348   3.199   2.330   4.128  0.1890 -0.1492 -0.5090
14978TIP3    H166349   3.252   2.295   4.200 -1.7522 -0.5465  0.8010
14978TIP3    H266350   3.191   2.257   4.067 -1.8994 -1.4190  1.1110
14979TIP3   OH266351   4.424   4.124   4.769 -0.5985 -0.0795 -0.5143
14979TIP3    H166352   4.333   4.145   4.792 -0.4619 -1.2752  1.2636
14979TIP3    H266353   4.417   4.054   4.704 -1.0095 -2.5253  2.0101
14980TIP3   OH266354   2.714   2.344   4.347  0.3267  0.2836  0.1803
14980TIP3    H166355   2.674   2.421   4.387 -0.0953  1.3836 -2.1839
14980TIP3    H266356   2.666   2.270   4.384 -0.0606  1.2175  1.6027
14981TIP3   OH266357   3.068   4.641   2.632  0.2463 -0.8544  0.4084
14981TIP3    H166358   3.127   4.709   2.665 -0.4518  1.1075 -2.0755
14981TIP3    H266359   3.085   4.639   2.538 -1.7275 -2.1954  0.0299
14982TIP3   OH266360   1.397   4.089   0.892  0.0204  0.2524 -0.6073
14982TIP3    H166361   1.428   3.998   0.890 -1.0285 -0.1279 -2.1651
14982TIP3    H266362   1.476   4.141   0.879  0.6261 -0.4289  0.2158
14983TIP3   OH266363   5.707   2.873  14.943  0.0019  0.0955  0.1633
14983TIP3    H166364   5.634   2.819  14.974  0.3410 -0.6864 -0.3614
14983TIP3    H266365   5.734   2.923  15.020 -1.4959  0.9054  0.2151
14984TIP3   OH266366   0.599   1.151  15.871 -0.3893  0.1576 -0.5341
14984TIP3    H166367   0.627   1.113  15.955  1.0606  0.8598 -0.6570
14984TIP3    H266368   0.606   1.079  15.808  1.6859  0.3748 -0.6372
14985TIP3   OH266369   6.201   0.350  11.994  0.1589  0.2729  0.2636
14985TIP3    H166370   6.244   0.407  11.931 -1.7042  1.9718  0.4353
14985TIP3    H266371   6.180   0.407  12.068 -3.7555  0.0513 -0.4608
14986TIP3   OH266372   5.954   5.150  12.247  0.0369 -0.4213  0.2944
14986TIP3    H166373   5.882   5.116  12.300 -0.5369 -0.8293 -0.7223
14986TIP3    H266374   6.007   5.073  12.227 -0.2015 -0.4181 -0.3910
14987TIP3   OH266375   5.001   5.714   3.815  0.3852  0.0810  0.0734
14987TIP3    H166376   5.037   5.760   3.740 -0.0998  0.6108  0.1639
14987TIP3    H266377   4.961   5.782   3.869  0.7915 -0.2790  0.8572
14988TIP3   OH266378   3.181   1.974  13.738  0.4275 -0.4011  0.0016
14988TIP3    H166379   3.094   1.976  13.697 -0.6124 -0.4789  2.0956
14988TIP3    H266380   3.237   1.934  13.672 -0.8230  0.8230 -1.9174
14989TIP3   OH266381   3.226   5.590   1.172 -0.1679 -0.2733  0.1198
14989TIP3    H166382   3.213   5.629   1.259  2.1259 -0.1004  0.4312
14989TIP3    H266383   3.217   5.495   1.187  2.2193 -0.4150  1.0136
14990TIP3   OH266384   2.286   1.478   4.383  0.5161  0.2396 -0.6656
14990TIP3    H166385   2.350   1.407   4.381  1.2395  0.8956 -0.7920
14990TIP3    H266386   2.270   1.498   4.290  0.3490  0.2892 -0.6273
14991TIP3   OH266387   0.669   1.899  16.306  0.1137 -0.1981  0.4982
14991TIP3    H166388   0.629   1.906  16.219  0.2576  0.9307  0.5115
14991TIP3    H266389   0.645   1.811  16.336 -0.8404 -0.2033 -0.2282
14992TIP3   OH266390   4.145   5.053   6.514  0.4598  0.0251  0.6102
14992TIP3    H166391   4.229   5.099   6.516  0.0667  1.0535 -2.2285
14992TIP3    H266392   4.168   4.963   6.492  0.8045  0.4293 -0.7254
14993TIP3   OH266393   4.830   1.102   1.604 -0.1900  0.0115  0.1692
14993TIP3    H166394   4.827   1.177   1.664  1.8082 -0.3667  0.8432
14993TIP3    H266395   4.876   1.136   1.527 -1.1025  0.0023 -0.3855
14994TIP3   OH266396   2.662   6.198   4.134  0.5773  0.0023  0.0136
14994TIP3    H166397   2.692   6.118   4.091  1.9809  0.6600 -0.3327
14994TIP3    H266398   2.621   6.169   4.215  0.0553 -1.1186 -0.6278
14995TIP3   OH266399   4.771   6.371  11.291  0.3405 -0.1244 -0.1915
14995TIP3    H166400   4.862   6.363  11.321  1.4743  0.6648 -3.0390
14995TIP3    H266401   4.751   6.286  11.253  0.3313  0.0574 -0.6030
14996TIP3   OH266402   5.876   2.891  15.972 -0.5077  0.3868 -0.4121
14996TIP3    H166403   5.941   2.829  16.006 -0.7016  0.9377  1.0110
14996TIP3    H266404   5.812   2.900  16.043  0.0197  2.9275 -0.1891
14997TIP3   OH266405   1.662   4.726  14.062  0.2946  0.2922 -0.2077
14997TIP3    H166406   1.676   4.662  14.132 -0.0097 -1.6110 -1.7961
14997TIP3    H266407   1.743   4.777  14.060  0.5802 -0.0695  1.0489
14998TIP3   OH266408   4.075   0.121  14.762  0.5937 -0.4881  0.5516
14998TIP3    H166409   4.033   0.140  14.847  0.8913  0.8385  0.4123
14998TIP3    H266410   4.151   0.068  14.785 -0.2366 -1.5449  0.9554
14999TIP3   OH266411   0.312   6.744   5.345 -0.4524  0.0107 -0.4327
14999TIP3    H166412   0.299   6.834   5.314  1.5111  0.7248  0.6125
14999TIP3    H266413   0.248   6.733   5.415 -1.6790  0.0505 -1.5091
15000TIP3   OH266414   6.301   1.477   4.805 -0.0674  0.4290 -0.2525
15000TIP3    H166415   6.358   1.520   4.868  0.0087 -0.3055  0.1919
15000TIP3    H266416   6.316   1.383   4.818 -1.6409  0.2057  0.1419
15001TIP3   OH266417   4.038   3.490   4.601  0.1293 -0.2113 -0.1568
15001TIP3    H166418   4.031   3.576   4.642 -2.9945 -1.7437  3.1658
15001TIP3    H266419   3.972   3.491   4.531  0.6613  0.3027 -0.6571
15002TIP3   OH266420   6.751   2.542   0.506 -0.1039 -0.0567  0.7945
15002TIP3    H166421   6.667   2.585   0.499  0.1657  0.3053 -0.3296
15002TIP3    H266422   6.816   2.611   0.492  0.3370 -0.7100 -0.6231
15003TIP3   OH266423   0.401   2.222   2.575 -0.1512 -0.1929  0.4052
15003TIP3    H166424   0.443   2.159   2.517  1.6970  0.9712  0.3829
15003TIP3    H266425   0.427   2.194   2.663  1.1680  0.8298  0.3639
15004TIP3   OH266426   2.740   3.312  14.093 -0.2390 -0.3538  0.0097
15004TIP3    H166427   2.829   3.296  14.125 -1.3050 -0.8845  2.9997
15004TIP3    H266428   2.724   3.404  14.114  0.1422  0.2436 -2.1144
15005TIP3   OH266429   4.751   5.316   1.174  0.1048 -0.4126 -0.1001
15005TIP3    H166430   4.706   5.334   1.256 -0.2613  0.5711 -0.4936
15005TIP3    H266431   4.800   5.396   1.155 -0.2470 -0.4138 -1.0997
15006TIP3   OH266432   3.372   0.472   0.398  0.1416 -0.2786 -0.1118
15006TIP3    H166433   3.323   0.392   0.417  0.2730 -0.4018 -0.2868
15006TIP3    H266434   3.413   0.495   0.481 -2.8567  1.6968  0.9649
15007TIP3   OH266435   2.035   6.210  12.810 -0.1956 -0.2314  0.2516
15007TIP3    H166436   2.027   6.251  12.896  1.1209 -1.3043  0.9183
15007TIP3    H266437   1.967   6.142  12.810 -1.4469  0.9599 -0.3205
15008TIP3   OH266438   0.148   2.634   2.876 -0.2801 -0.1681 -0.3631
15008TIP3    H166439   0.064   2.675   2.897 -0.7911  0.1101 -2.7156
15008TIP3    H266440   0.170   2.583   2.954 -1.3673  1.7670  1.2747
15009TIP3   OH266441   2.708   3.882   1.539 -0.0159 -0.2107 -0.4005
15009TIP3    H166442   2.689   3.833   1.459  1.0389 -2.1398  0.4740
15009TIP3    H266443   2.660   3.836   1.608  0.2022  0.5967  0.3144
15010TIP3   OH266444   6.764   2.947   5.155  0.0492  0.0204  0.5247
15010TIP3    H166445   6.708   2.948   5.232  0.3776  2.1884  0.7964
15010TIP3    H266446   6.853   2.947   5.189  0.2008  1.3450  0.1908
15011TIP3   OH266447   1.212   6.168  12.608 -0.2155  0.2546  0.1315
15011TIP3    H166448   1.211   6.262  12.587  0.9064  0.0138 -1.2185
15011TIP3    H266449   1.199   6.164  12.702  2.4475  1.9933  0.7015
15012TIP3   OH266450   2.121   2.821  10.575  0.1901 -0.0831 -0.1378
15012TIP3    H166451   2.192   2.878  10.547 -1.2816  1.1441 -1.5747
15012TIP3    H266452   2.113   2.757  10.504  1.4503 -1.8355  1.1928
15013TIP3   OH266453   3.054   3.548   2.238 -0.2905 -0.2812  0.6809
15013TIP3    H166454   3.045   3.494   2.317  1.9469 -2.2151 -0.2568
15013TIP3    H266455   3.128   3.605   2.257 -0.2092 -0.2460  0.2712
15014TIP3   OH266456   4.276   3.748  15.759  0.2252 -0.1908 -0.2882
15014TIP3    H166457   4.358   3.749  15.808  0.4163 -0.8941 -0.5843
15014TIP3    H266458   4.209   3.765  15.825  0.7519  2.8876 -0.3940
15015TIP3   OH266459   6.192   3.290   3.998 -0.2485  0.2856 -0.7150
15015TIP3    H166460   6.170   3.258   3.911 -0.4752 -0.7423 -0.3014
15015TIP3    H266461   6.197   3.211   4.052  0.2392  0.8679  0.1294
15016TIP3   OH266462   0.835   3.180   0.993 -0.1718  0.5514 -0.2833
15016TIP3    H166463   0.784   3.136   1.061 -0.4191 -0.9077 -1.3640
15016TIP3    H266464   0.912   3.124   0.981  0.2581  1.2076 -0.6735
15017TIP3   OH266465   3.023   3.465   2.496 -0.1865 -0.1041  0.6182
15017TIP3    H166466   2.996   3.387   2.544  1.8835 -1.4648 -0.2721
15017TIP3    H266467   3.116   3.476   2.519 -0.3230  1.8447  0.3654
15018TIP3   OH266468   0.534   6.289  12.635  0.3500  0.2406 -0.5584
15018TIP3    H166469   0.448   6.331  12.630  0.3513  0.3629  0.2509
15018TIP3    H266470   0.565   6.286  12.544 -1.1443 -1.1633 -1.0775
15019TIP3   OH266471   2.564   4.877  15.840  0.3234 -0.0350 -0.3202
15019TIP3    H166472   2.577   4.971  15.826  2.1381  0.0623  1.5676
15019TIP3    H266473   2.496   4.872  15.908 -1.4076 -0.2132 -1.9862
15020TIP3   OH266474   4.305   1.203   3.157  0.5417 -0.0378  0.2879
15020TIP3    H166475   4.216   1.169   3.145  0.7778 -0.6955  0.3289
15020TIP3    H266476   4.359   1.124   3.164  0.8773  0.3319  2.2223
15021TIP3   OH266477   1.761   5.578   2.384 -0.0067 -0.0421 -0.7519
15021TIP3    H166478   1.679   5.605   2.342 -0.2105 -0.2911 -0.5195
15021TIP3    H266479   1.748   5.599   2.476  0.6346  0.9710 -0.8783
15022TIP3   OH266480   6.625   6.040  13.912  0.5816  0.4204  0.1615
15022TIP3    H166481   6.665   6.092  13.981  0.4892 -0.8278  1.2023
15022TIP3    H266482   6.681   6.053  13.836  1.9009  0.2053  1.0614
15023TIP3   OH266483   0.289   2.514   4.595  0.3691  0.2081 -0.3103
15023TIP3    H166484   0.346   2.453   4.549 -0.5334 -0.2582 -0.8346
15023TIP3    H266485   0.280   2.588   4.536  1.0572  0.6402  0.1113
15024TIP3   OH266486   0.538   1.566  11.979  0.5525  0.1482  0.1160
15024TIP3    H166487   0.544   1.489  11.922 -1.1707 -0.8842  1.2322
15024TIP3    H266488   0.545   1.530  12.068  0.3803  1.3778  0.6399
15025TIP3   OH266489   4.765   2.891   1.636  0.2911 -0.3438 -0.5290
15025TIP3    H166490   4.804   2.828   1.575  1.1933 -1.6084  1.2598
15025TIP3    H266491   4.818   2.970   1.627  1.8698 -1.2698  0.1681
15026TIP3   OH266492   6.242   1.927   4.096 -0.2101  0.2382  0.8106
15026TIP3    H166493   6.196   1.845   4.079  0.3216 -0.3475  2.1109
15026TIP3    H266494   6.210   1.956   4.182  0.3907  0.8381  0.8467
15027TIP3   OH266495   2.150   6.572  11.651  0.1079 -0.3167  0.1656
15027TIP3    H166496   2.084   6.623  11.604 -0.7303 -1.6894 -0.2010
15027TIP3    H266497   2.149   6.607  11.740 -0.3670  0.3556 -0.0928
15028TIP3   OH266498   1.635   1.165   4.723 -0.5484 -0.7055  0.1749
15028TIP3    H166499   1.713   1.144   4.671  1.3176 -0.4068  2.6719
15028TIP3    H266500   1.614   1.255   4.700  0.1390 -0.6289 -0.1666
15029TIP3   OH266501   5.174   6.181  15.234  0.5409  0.4196 -0.0530
15029TIP3    H166502   5.179   6.145  15.322  1.0816  0.1591 -0.1876
15029TIP3    H266503   5.083   6.164  15.206  0.6053 -0.2679  0.1287
15030TIP3   OH266504   0.112   6.678  16.830  0.0560  0.0940  0.2283
15030TIP3    H166505   0.138   6.624  16.755  1.7124 -0.2195  0.9835
15030TIP3    H266506   0.026   6.644  16.855  0.0557 -0.6508 -0.7177
15031TIP3   OH266507   2.074   2.853  15.892  0.6920  0.3275 -0.3702
15031TIP3    H166508   2.057   2.945  15.909 -2.5727 -0.1756 -0.2935
15031TIP3    H266509   2.033   2.835  15.808 -0.8491 -1.4973  0.6865
15032TIP3   OH266510   6.125   3.565  14.426  0.0911 -0.2929 -0.1615
15032TIP3    H166511   6.138   3.505  14.500  0.0523 -0.8454 -0.5979
15032TIP3    H266512   6.204   3.620  14.426 -0.6593  0.8361  1.3068
15033TIP3   OH266513   1.314   6.125   4.868  0.3676 -0.2866 -0.1752
15033TIP3    H166514   1.288   6.099   4.779 -0.0687  0.9499 -0.4180
15033TIP3    H266515   1.390   6.070   4.887  1.7961  0.8660 -2.1454
15034TIP3   OH266516   6.201   0.562  14.329 -0.5990  0.5186  0.0360
15034TIP3    H166517   6.154   0.499  14.384  2.0681 -3.4362 -1.7197
15034TIP3    H266518   6.175   0.539  14.240  0.3308  2.1152 -0.6833
15035TIP3   OH266519   2.427   4.001  12.373  1.0773  0.1111  0.9071
15035TIP3    H166520   2.350   4.034  12.419  1.1150  1.4783  0.0714
15035TIP3    H266521   2.393   3.935  12.313 -0.1563  3.0704 -2.0022
15036TIP3   OH266522   5.675   5.019   1.474 -0.1907 -0.2359  0.2777
15036TIP3    H166523   5.687   4.939   1.423  0.6014  0.0953 -0.0763
15036TIP3    H266524   5.594   5.004   1.524 -0.1662 -1.1619  0.0592
15037TIP3   OH266525   3.450   5.722   5.047  0.7798 -0.1313 -0.5302
15037TIP3    H166526   3.399   5.658   5.097  2.7657 -2.0842 -0.8396
15037TIP3    H266527   3.405   5.728   4.963  0.3853 -0.9040 -0.3853
15038TIP3   OH266528   1.418   3.045  11.929 -0.2402  0.6990 -0.0282
15038TIP3    H166529   1.389   3.131  11.898 -0.1856  0.8731  0.3885
15038TIP3    H266530   1.337   3.001  11.956 -0.2596  0.6522 -0.1629
15039TIP3   OH266531   4.462   1.561  14.153  0.5133 -0.4448 -0.3751
15039TIP3    H166532   4.379   1.607  14.141  1.2856  0.9323 -0.5823
15039TIP3    H266533   4.460   1.491  14.088 -0.3963 -0.3029 -0.5144
15040TIP3   OH266534   3.583   5.149   5.768  0.0121  0.3954  0.0821
15040TIP3    H166535   3.575   5.129   5.861  0.9799  1.6223  0.4653
15040TIP3    H266536   3.510   5.104   5.726 -1.0191  0.6405  1.5717
15041TIP3   OH266537   5.251   3.139   4.174 -0.2609 -0.4717  0.0023
15041TIP3    H166538   5.276   3.061   4.125 -2.0609  0.0514 -1.9224
15041TIP3    H266539   5.273   3.212   4.116 -0.1019  0.3765  1.0840
15042TIP3   OH266540   5.006   2.752  16.211 -0.5833  0.0926  0.0423
15042TIP3    H166541   5.018   2.807  16.134 -1.0313  1.1130  0.6852
15042TIP3    H266542   5.065   2.788  16.277 -1.9443  0.7568  0.9385
15043TIP3   OH266543   1.673   5.036  11.889  0.1960 -0.6507  0.5168
15043TIP3    H166544   1.752   5.054  11.940  0.8724  1.0601 -1.0374
15043TIP3    H266545   1.685   5.085  11.807 -2.2117 -0.8258 -0.0174
15044TIP3   OH266546   6.357   3.587   0.845 -0.3552 -0.6345 -0.0222
15044TIP3    H166547   6.409   3.541   0.911 -0.9869 -0.3024  0.7261
15044TIP3    H266548   6.269   3.553   0.857 -0.5398 -0.3218 -0.4746
15045TIP3   OH266549   4.493   1.362   3.448  0.0635  0.0792 -0.2512
15045TIP3    H166550   4.529   1.310   3.376 -0.1325  0.7896 -0.8820
15045TIP3    H266551   4.444   1.300   3.500 -0.2275 -0.3636 -1.0334
15046TIP3   OH266552   3.794   3.884   0.531 -0.2027 -0.1936 -0.3378
15046TIP3    H166553   3.882   3.895   0.495 -0.5448 -1.6922 -1.7142
15046TIP3    H266554   3.799   3.804   0.583  0.4371  2.2020  3.6898
15047TIP3   OH266555   2.263   3.097   4.677  0.0137 -0.1490  0.1342
15047TIP3    H166556   2.351   3.059   4.680  0.1885  0.3124  1.2039
15047TIP3    H266557   2.271   3.181   4.722 -0.6869  0.5178 -0.9482
15048TIP3   OH266558   5.367   4.914   0.148  0.5224  0.0059 -0.4546
15048TIP3    H166559   5.325   4.835   0.181 -1.4727  0.1605 -2.3791
15048TIP3    H266560   5.443   4.927   0.205 -1.3883 -0.9306  2.4987
15049TIP3   OH266561   3.832   4.362   1.394  0.4487  0.5452 -0.3390
15049TIP3    H166562   3.915   4.406   1.411 -0.1370  1.7038 -0.3306
15049TIP3    H266563   3.765   4.423   1.427 -0.4227 -0.0780 -0.8906
15050TIP3   OH266564   0.317   4.608   5.423  0.2310 -0.0246 -0.0615
15050TIP3    H166565   0.341   4.698   5.445  0.4416  0.7516 -3.0987
15050TIP3    H266566   0.223   4.603   5.442 -0.0645  1.2694 -1.0353
15051TIP3   OH266567   3.768   1.301  15.575  0.3708  0.8330  0.0728
15051TIP3    H166568   3.687   1.351  15.579  0.4282  1.0631  5.0417
15051TIP3    H266569   3.837   1.368  15.575  0.4488  0.8029  1.9057
15052TIP3   OH266570   6.184   0.179  14.792 -0.2478 -0.0977 -0.3580
15052TIP3    H166571   6.121   0.196  14.863 -0.3320  1.9587 -0.8549
15052TIP3    H266572   6.252   0.245  14.806  1.9821 -2.3947  0.2934
15053TIP3   OH266573   6.634   5.433   3.103  0.2493  0.2551 -0.1531
15053TIP3    H166574   6.554   5.382   3.094  0.0257  0.7963 -1.5537
15053TIP3    H266575   6.644   5.446   3.197 -2.2347  1.5971  0.0098
15054TIP3   OH266576   4.463   3.521   4.327 -0.1009  0.7230 -0.5131
15054TIP3    H166577   4.387   3.535   4.383  0.4138  0.9397  0.1462
15054TIP3    H266578   4.462   3.595   4.267  0.8269  1.9592  0.9283
15055TIP3   OH266579   3.148   5.181   1.836  0.8913 -1.0238  0.3008
15055TIP3    H166580   3.060   5.143   1.837  0.4519 -0.0606  1.4280
15055TIP3    H266581   3.168   5.192   1.743 -0.6535 -0.2434  0.0233
15056TIP3   OH266582   5.338   1.084  11.745  0.0613  0.4896  0.1530
15056TIP3    H166583   5.387   1.165  11.763  1.4169  0.0913 -1.4417
15056TIP3    H266584   5.381   1.018  11.799  0.6370  0.3571 -0.4459
15057TIP3   OH266585   4.400   4.130  13.201 -0.3715 -0.4883  0.6239
15057TIP3    H166586   4.433   4.058  13.254  0.9998  1.5748  2.7816
15057TIP3    H266587   4.368   4.194  13.265  0.5001  1.7509 -1.0353
15058TIP3   OH266588   5.088   0.699  11.158  0.2250  0.4156  0.3980
15058TIP3    H166589   5.074   0.792  11.173 -0.8295  0.1712  1.0356
15058TIP3    H266590   5.123   0.694  11.069 -2.0511  1.2654 -0.6226
15059TIP3   OH266591   5.810   5.801   1.101  0.2135  0.4366 -0.4633
15059TIP3    H166592   5.823   5.779   1.193 -0.5430  0.0686 -0.4390
15059TIP3    H266593   5.784   5.893   1.102 -2.8841 -0.3336 -0.0055
15060TIP3   OH266594   1.138   5.342  13.613  0.7114 -0.0757 -0.1749
15060TIP3    H166595   1.207   5.397  13.651  0.8686  1.7188 -2.7794
15060TIP3    H266596   1.060   5.364  13.663  1.0750  1.4966 -0.2475
15061TIP3   OH266597   6.157   6.402   3.350 -0.0128  0.2162 -0.2358
15061TIP3    H166598   6.159   6.314   3.314  0.9939 -0.0820  0.5014
15061TIP3    H266599   6.247   6.433   3.343  0.2952  0.0645  2.1262
15062TIP3   OH266600   3.460   4.065   1.449  0.2029 -0.5891  0.4052
15062TIP3    H166601   3.412   3.987   1.476  0.5729 -0.9179  0.1149
15062TIP3    H266602   3.420   4.136   1.500 -1.1384 -0.7236 -0.4274
15063TIP3   OH266603   3.647   6.557   4.827  0.3398  0.1515 -0.7231
15063TIP3    H166604   3.719   6.604   4.868 -0.2638  1.6440 -1.2867
15063TIP3    H266605   3.688   6.508   4.756  1.0172 -0.3573  0.0049
15064TIP3   OH266606   1.861   0.504  12.349 -0.1202 -0.7706 -0.2949
15064TIP3    H166607   1.777   0.540  12.319  0.0241 -0.1359  0.0340
15064TIP3    H266608   1.925   0.569  12.320 -0.0076  0.0478  1.6372
15065TIP3   OH266609   5.613   3.464   4.110  0.3968  0.0297  0.1384
15065TIP3    H166610   5.659   3.398   4.162  0.6619 -0.2304 -0.4145
15065TIP3    H266611   5.533   3.421   4.080 -0.5033  0.6484  1.5353
15066TIP3   OH266612   6.650   0.363  13.115 -0.1727 -0.3869  0.6328
15066TIP3    H166613   6.651   0.349  13.020 -2.2605  0.3124  0.4623
15066TIP3    H266614   6.730   0.320  13.146  2.1176  1.7545 -1.7353
15067TIP3   OH266615   2.753   2.380  12.930 -0.1937 -0.1436  0.4132
15067TIP3    H166616   2.800   2.297  12.921 -0.2558 -0.0458 -1.0660
15067TIP3    H266617   2.803   2.430  12.994 -0.1867 -1.3282  1.3779
15068TIP3   OH266618   3.104   2.311  11.878 -0.3160 -0.2713  0.0276
15068TIP3    H166619   3.183   2.361  11.897  0.2998 -1.3090  0.2444
15068TIP3    H266620   3.054   2.314  11.960 -0.6769  0.6770 -0.2168
15069TIP3   OH266621   5.026   6.435  16.383  0.5739 -0.4834  0.1824
15069TIP3    H166622   5.108   6.417  16.429  1.2003 -0.3207 -0.8389
15069TIP3    H266623   5.000   6.351  16.345  1.3779 -0.1474 -1.2085
15070TIP3   OH266624   4.079   6.539  15.873 -0.4209 -0.1145  0.2616
15070TIP3    H166625   4.167   6.502  15.881 -0.8776 -1.1108  0.8785
15070TIP3    H266626   4.072   6.599  15.948  0.3979  1.4629 -0.8621
15071TIP3   OH266627   3.209   0.124  11.003 -0.5380  0.3352  0.0565
15071TIP3    H166628   3.263   0.173  10.940 -0.9099  3.8844  2.2391
15071TIP3    H266629   3.127   0.109  10.957  0.8294 -1.7385 -1.9581
15072TIP3   OH266630   4.238   3.519   6.781 -0.0908  0.5633 -0.0966
15072TIP3    H166631   4.180   3.447   6.756 -1.3024  1.6034 -0.3658
15072TIP3    H266632   4.180   3.585   6.819  1.2191  0.6563  1.8886
15073TIP3   OH266633   1.545   5.377  14.580  0.2551 -0.1582 -0.3526
15073TIP3    H166634   1.509   5.412  14.498 -0.1322  2.1060  0.7307
15073TIP3    H266635   1.498   5.294  14.593 -1.0336  0.3598 -1.4546
15074TIP3   OH266636   1.705   3.174   3.281  0.1834  0.0819  0.0442
15074TIP3    H166637   1.718   3.264   3.250  1.6645  0.6733  2.1713
15074TIP3    H266638   1.770   3.122   3.233  0.8764  0.5613  0.4538
15075TIP3   OH266639   3.134   5.549  14.862 -0.1646  0.6888  0.1517
15075TIP3    H166640   3.192   5.572  14.934  1.0820 -0.7677 -0.3349
15075TIP3    H266641   3.096   5.465  14.887 -0.2310  0.4949 -0.5650
15076TIP3   OH266642   0.284   6.776  14.838 -0.0492 -0.1899 -0.2716
15076TIP3    H166643   0.341   6.726  14.896 -0.1318 -2.8472 -2.2745
15076TIP3    H266644   0.342   6.812  14.771 -0.2668  0.3740 -0.1585
15077TIP3   OH266645   3.227   0.366   5.847  0.3959  0.2266 -0.0918
15077TIP3    H166646   3.308   0.391   5.891  0.9382  0.9062 -1.4286
15077TIP3    H266647   3.207   0.279   5.881  1.5314  0.1615  0.4520
15078TIP3   OH266648   5.508   1.124  12.242 -0.6038  0.2043 -0.0551
15078TIP3    H166649   5.456   1.043  12.236 -1.0353  0.5643 -1.4267
15078TIP3    H266650   5.463   1.186  12.184 -0.1756  1.3906  0.8453
15079TIP3   OH266651   0.863   2.897  12.761  0.5622  0.0593 -0.0383
15079TIP3    H166652   0.782   2.845  12.756 -1.6686  3.2614 -0.3954
15079TIP3    H266653   0.888   2.893  12.853  1.1329 -2.4159 -0.2240
15080TIP3   OH266654   6.522   1.306  11.932 -0.2092 -0.5618  0.0397
15080TIP3    H166655   6.440   1.316  11.882 -0.7018 -0.2037  0.9025
15080TIP3    H266656   6.506   1.355  12.013  0.6818 -0.9188  0.4317
15081TIP3   OH266657   0.899   4.718   4.535 -0.2047  0.5916  0.3361
15081TIP3    H166658   0.895   4.678   4.622 -0.6799 -1.1812 -0.4453
15081TIP3    H266659   0.867   4.650   4.476  0.7357  1.5141 -1.3225
15082TIP3   OH266660   4.309   1.391  15.911 -0.1396  0.2468 -0.0861
15082TIP3    H166661   4.237   1.433  15.959 -1.4092 -0.8692 -0.9248
15082TIP3    H266662   4.325   1.310  15.959 -0.6036 -0.3043 -0.8514
15083TIP3   OH266663   4.051   0.653  11.363 -0.1925  0.2738 -0.2871
15083TIP3    H166664   4.092   0.673  11.279 -0.8476 -0.0776 -0.6996
15083TIP3    H266665   3.973   0.710  11.366 -0.0050  0.5092  0.2214
15084TIP3   OH266666   6.519   4.912  14.729 -0.3525  0.0569  0.5560
15084TIP3    H166667   6.479   4.855  14.664 -0.3991 -1.1150  1.5801
15084TIP3    H266668   6.580   4.856  14.776 -0.1037  0.9552  1.3365
15085TIP3   OH266669   4.221   5.109  14.921 -0.6095 -0.1392 -0.1319
15085TIP3    H166670   4.175   5.166  14.983 -1.3021  0.5370 -1.2361
15085TIP3    H266671   4.300   5.082  14.968 -0.6540  1.0939  0.7149
15086TIP3   OH266672   4.312   6.186  15.512 -0.0307 -0.3512  0.0190
15086TIP3    H166673   4.346   6.262  15.559  0.8688 -1.2841  0.9247
15086TIP3    H266674   4.217   6.198  15.514  0.0717  0.4454  0.7090
15087TIP3   OH266675   3.940   3.897   1.200 -0.0505  0.2719  0.1259
15087TIP3    H166676   3.921   3.969   1.138 -0.0679  0.7899  0.7249
15087TIP3    H266677   4.016   3.853   1.162  0.3611  1.0049  0.0699
15088TIP3   OH266678   5.223   6.057   5.297  0.2361 -0.1920  0.1428
15088TIP3    H166679   5.240   6.147   5.323 -0.1253  0.0089 -0.2938
15088TIP3    H266680   5.224   6.060   5.201  1.2356 -0.8477  0.1113
15089TIP3   OH266681   1.510   0.915  14.873  0.2605 -0.5096 -0.5255
15089TIP3    H166682   1.430   0.898  14.922 -0.4901 -1.2068 -1.9312
15089TIP3    H266683   1.558   0.833  14.875  0.2377 -0.5352 -0.9174
15090TIP3   OH266684   6.503   2.654   0.473  0.2275 -0.2428  0.1103
15090TIP3    H166685   6.516   2.735   0.523  0.7032 -0.5700  0.5173
15090TIP3    H266686   6.479   2.685   0.385 -1.6133  0.3326  0.7727
15091TIP3   OH266687   2.576   4.366   1.513  0.5245 -0.3638  0.3080
15091TIP3    H166688   2.562   4.354   1.419  1.2150 -1.3020  0.3227
15091TIP3    H266689   2.508   4.313   1.555  0.3987 -0.1739  0.3498
15092TIP3   OH266690   2.384   4.428  11.537  0.5365  0.2399 -0.1396
15092TIP3    H166691   2.374   4.376  11.457  0.3864  0.2526 -0.1290
15092TIP3    H266692   2.467   4.398  11.574  0.8839  0.6212 -0.5921
15093TIP3   OH266693   5.828   0.945  13.703  0.3506 -0.1928 -0.4394
15093TIP3    H166694   5.852   0.873  13.645 -0.8612  1.0971 -2.6906
15093TIP3    H266695   5.907   0.998  13.710  1.1777 -1.5495  1.0423
15094TIP3   OH266696   0.277   3.056   5.511 -0.0964 -0.4407  0.0113
15094TIP3    H166697   0.198   3.002   5.515 -0.0280 -0.5156  0.4799
15094TIP3    H266698   0.348   2.995   5.533 -0.0889 -0.0222  1.2405
15095TIP3   OH266699   3.997   3.408   0.674  0.4142  0.7322 -0.1393
15095TIP3    H166700   4.058   3.462   0.725 -0.6724  0.4481  1.5091
15095TIP3    H266701   4.042   3.396   0.590  2.7023  0.4274  1.0375
15096TIP3   OH266702   2.234   3.949   4.158  0.3700 -0.3994  0.0219
15096TIP3    H166703   2.267   3.866   4.191  2.1892 -0.1424 -0.9865
15096TIP3    H266704   2.257   3.948   4.065 -0.1974  0.9366 -0.1540
15097TIP3   OH266705   6.077   1.519  13.680  0.4233 -0.3057  0.2152
15097TIP3    H166706   5.987   1.520  13.649  0.3868 -0.0760  0.3219
15097TIP3    H266707   6.113   1.436  13.649  0.1365 -0.4575  0.2871
15098TIP3   OH266708   3.420   1.362   5.283  0.0965 -0.4463  0.1082
15098TIP3    H166709   3.360   1.361   5.358  1.7914  0.4294  1.5498
15098TIP3    H266710   3.433   1.455   5.264  1.0512 -0.6105 -0.1057
15099TIP3   OH266711   6.586   4.919  15.439  0.2299 -0.1219 -0.1695
15099TIP3    H166712   6.561   4.842  15.490 -0.1218  0.3290  0.3564
15099TIP3    H266713   6.660   4.890  15.385 -0.5772 -1.1328 -0.7813
15100TIP3   OH266714   1.262   4.340   1.943  0.3572  0.0254 -0.1011
15100TIP3    H166715   1.291   4.295   2.023  0.9024  2.0202  0.8803
15100TIP3    H266716   1.343   4.373   1.904 -0.0189  0.0860 -0.8303
15101TIP3   OH266717   1.531   0.924   2.632  0.6360  0.2306 -0.1818
15101TIP3    H166718   1.618   0.964   2.635 -0.3454  2.6976 -1.7189
15101TIP3    H266719   1.483   0.967   2.703  0.0859  0.4243 -0.6657
15102TIP3   OH266720   0.670   2.664  13.106 -0.0206  0.0739 -0.1850
15102TIP3    H166721   0.597   2.666  13.168 -1.0293 -0.1021 -1.3081
15102TIP3    H266722   0.722   2.589  13.132  0.1149  0.5662  1.0176
15103TIP3   OH266723   4.711   1.052   6.022 -0.4007  0.2904 -0.0126
15103TIP3    H166724   4.739   0.990   6.088 -0.3847 -0.4644 -0.7172
15103TIP3    H266725   4.754   1.134   6.046  1.7511 -0.5993 -0.5671
15104TIP3   OH266726   5.234   2.862  11.143  0.2485 -0.5237 -0.1201
15104TIP3    H166727   5.141   2.877  11.157  0.3054  0.3009 -0.5920
15104TIP3    H266728   5.275   2.947  11.159  1.0942 -1.1682  1.4461
15105TIP3   OH266729   3.156   3.192   0.777  0.0519  0.4538  0.3174
15105TIP3    H166730   3.167   3.211   0.870 -1.5840  1.1593  0.3881
15105TIP3    H266731   3.226   3.240   0.734 -0.1651  1.4471  1.0517
15106TIP3   OH266732   1.959   1.488   4.230  0.6535 -0.0889 -0.1079
15106TIP3    H166733   1.964   1.574   4.271 -1.7838  0.7460 -1.3529
15106TIP3    H266734   2.015   1.495   4.152 -0.6784  0.9504 -1.0262
15107TIP3   OH266735   6.722   6.643   5.993  0.5216  0.0585 -0.5437
15107TIP3    H166736   6.633   6.652   5.959  1.1167  1.1111 -1.9424
15107TIP3    H266737   6.722   6.694   6.074 -0.0293  0.4695 -0.7949
15108TIP3   OH266738   4.859   5.090  15.733  0.1260 -0.6147 -0.2330
15108TIP3    H166739   4.857   5.177  15.693  0.4907 -0.8381 -0.7363
15108TIP3    H266740   4.807   5.035  15.675  1.0921 -1.0575 -0.6933
15109TIP3   OH266741   1.009   4.318   3.728 -0.2463 -0.0138 -0.3868
15109TIP3    H166742   1.076   4.280   3.671 -0.5962 -0.9413 -0.1964
15109TIP3    H266743   1.016   4.412   3.714  0.9198 -0.1120 -0.5722
15110TIP3   OH266744   3.191   5.550   4.001 -0.0065 -0.0075 -0.4274
15110TIP3    H166745   3.250   5.622   4.025 -1.5390  0.7982  1.1212
15110TIP3    H266746   3.195   5.547   3.906  2.2922  0.1908 -0.4017
15111TIP3   OH266747   1.918   4.409  16.970  0.1032  0.4118 -0.3348
15111TIP3    H166748   1.896   4.500  16.990 -2.2873 -0.0942 -0.3048
15111TIP3    H266749   2.008   4.412  16.939 -0.0582  2.8386 -0.7613
15112TIP3   OH266750   5.069   1.751   4.775 -0.1941 -0.2347  0.1904
15112TIP3    H166751   5.113   1.684   4.827  0.5092 -0.7576 -1.0233
15112TIP3    H266752   5.037   1.703   4.698  1.3601  1.0105 -1.2929
15113TIP3   OH266753   4.138   1.089   4.703  0.3939  0.0172 -0.3219
15113TIP3    H166754   4.064   1.047   4.746  0.6278  1.2854  1.4550
15113TIP3    H266755   4.130   1.182   4.727  1.2401  0.5876 -2.0652
15114TIP3   OH266756   4.608   2.824   1.264 -0.2174 -0.4404  0.5050
15114TIP3    H166757   4.581   2.851   1.352  1.1454  0.0962  0.7802
15114TIP3    H266758   4.616   2.729   1.270 -2.5450 -0.7133  0.2397
15115TIP3   OH266759   2.578   5.550   2.104  0.2682 -0.0961 -0.2140
15115TIP3    H166760   2.665   5.580   2.078  0.5009 -0.8424 -0.3103
15115TIP3    H266761   2.534   5.531   2.021 -0.1526  0.7176 -0.1862
15116TIP3   OH266762   3.143   0.607  16.060 -0.3005  0.5538 -0.2439
15116TIP3    H166763   3.178   0.682  16.108  1.4137 -0.6711  0.5222
15116TIP3    H266764   3.095   0.557  16.126 -0.0939  0.1689 -0.3850
15117TIP3   OH266765   2.441   4.407  12.089  0.4530 -0.4416 -0.0527
15117TIP3    H166766   2.450   4.500  12.068  0.6140  0.2049  2.5058
15117TIP3    H266767   2.492   4.362  12.021 -0.0121  1.2720 -1.6103
15118TIP3   OH266768   1.408   0.277   0.416 -0.3320 -0.2013  0.2147
15118TIP3    H166769   1.315   0.301   0.412 -0.0618  0.7412 -1.6002
15118TIP3    H266770   1.446   0.339   0.477 -0.7884 -0.2358  0.5430
15119TIP3   OH266771   4.748   5.170   3.015 -0.7549  0.8208 -0.6064
15119TIP3    H166772   4.737   5.117   3.094 -0.4291  0.0911 -1.0412
15119TIP3    H266773   4.664   5.163   2.969 -0.0453 -1.1772 -1.7592
15120TIP3   OH266774   3.088   2.000   3.396 -0.0640  0.1153  0.7592
15120TIP3    H166775   3.084   2.050   3.478  0.3187  0.7824  0.3765
15120TIP3    H266776   3.085   1.908   3.424  0.8092  0.3207  1.5790
15121TIP3   OH266777   1.207   3.724  15.912  0.3974  0.2428 -0.7392
15121TIP3    H166778   1.268   3.731  15.839  1.8660  1.2997  0.5296
15121TIP3    H266779   1.252   3.767  15.985 -1.0530 -0.6882  0.7681
15122TIP3   OH266780   4.707   3.741  12.321  0.1065 -0.1875  0.2288
15122TIP3    H166781   4.699   3.817  12.379 -0.4290  1.3843 -1.7831
15122TIP3    H266782   4.638   3.754  12.256  1.1706 -1.4538 -1.2063
15123TIP3   OH266783   1.762   5.183  11.359  0.6787 -0.0129  0.2295
15123TIP3    H166784   1.836   5.228  11.319 -0.9663  2.1268 -0.5795
15123TIP3    H266785   1.708   5.155  11.285  0.0904 -0.5162  0.8330
15124TIP3   OH266786   2.236   2.483  15.744  0.0050  0.1836  0.3149
15124TIP3    H166787   2.172   2.414  15.732  0.2550  0.0099 -0.0329
15124TIP3    H266788   2.200   2.558  15.696  1.1408 -0.5929 -1.8956
15125TIP3   OH266789   1.612   0.348   1.925  0.3786 -0.0771  0.6669
15125TIP3    H166790   1.564   0.403   1.988  2.9166  0.0601  2.6325
15125TIP3    H266791   1.610   0.261   1.963 -0.9375 -0.7596 -0.8567
15126TIP3   OH266792   0.537   1.300  15.289 -0.2600 -0.1311  0.3626
15126TIP3    H166793   0.539   1.395  15.298  0.2792 -0.1030  0.0254
15126TIP3    H266794   0.618   1.270  15.331 -0.7951 -0.5076  1.1498
15127TIP3   OH266795   3.157   3.575  15.927 -0.5868  0.0882 -0.2288
15127TIP3    H166796   3.161   3.653  15.982 -0.2224  1.1964 -1.7702
15127TIP3    H266797   3.241   3.531  15.942 -0.1716  0.7852 -0.4603
15128TIP3   OH266798   0.595   4.357   5.652 -0.4714 -0.1054  0.1781
15128TIP3    H166799   0.642   4.273   5.656 -0.9865 -0.4429 -0.6016
15128TIP3    H266800   0.605   4.394   5.740  0.0422 -0.8310  0.4392
15129TIP3   OH266801   5.639   0.557   0.948  0.5507  0.4052 -0.4526
15129TIP3    H166802   5.572   0.490   0.935  1.1859 -0.1910 -0.7183
15129TIP3    H266803   5.590   0.637   0.969 -0.2371 -0.0067 -0.7040
15130TIP3   OH266804   1.548   5.431  12.181  0.2310  0.3043 -0.2603
15130TIP3    H166805   1.536   5.507  12.239 -0.5493 -0.5388  0.7283
15130TIP3    H266806   1.600   5.370  12.233  0.5559  0.0216 -0.9171
15131TIP3   OH266807   3.404   3.125   5.706 -0.4073  0.0105  0.5887
15131TIP3    H166808   3.459   3.200   5.682 -0.9408 -0.0210 -0.7888
15131TIP3    H266809   3.348   3.159   5.776 -0.2924  0.7383  0.3439
15132TIP3   OH266810   5.494   0.898  13.408 -0.1523 -0.3015 -0.1839
15132TIP3    H166811   5.552   0.963  13.449 -2.0121  1.5988 -0.3814
15132TIP3    H266812   5.414   0.901  13.461 -0.6727 -1.6892 -0.8390
15133TIP3   OH266813   2.453   3.544  15.201  0.2425  0.3125 -0.0304
15133TIP3    H166814   2.395   3.551  15.278 -0.0222  1.1458 -0.2955
15133TIP3    H266815   2.420   3.468  15.153  0.3479 -0.1567  0.6247
15134TIP3   OH266816   2.132   0.575  13.609  1.5556 -0.8557 -0.5306
15134TIP3    H166817   2.139   0.666  13.579 -0.4574 -0.6831 -0.6136
15134TIP3    H266818   2.098   0.527  13.534 -2.4429 -0.6280  0.9135
15135TIP3   OH266819   0.516   0.325  12.065 -0.5709  0.0054 -0.6293
15135TIP3    H166820   0.548   0.392  12.126 -1.8199  0.4282 -0.4054
15135TIP3    H266821   0.479   0.257  12.121  1.5754 -1.4045 -0.8153
15136TIP3   OH266822   1.888   5.323  11.626  0.3531 -0.0870  0.1538
15136TIP3    H166823   1.798   5.347  11.649 -0.3286 -1.6029 -0.8060
15136TIP3    H266824   1.899   5.357  11.537  0.3682 -0.7879 -0.1160
15137TIP3   OH266825   6.503   0.090   3.762  0.5448  0.1734 -0.1026
15137TIP3    H166826   6.595   0.095   3.788  0.4135  2.1186  0.1211
15137TIP3    H266827   6.459   0.153   3.819 -1.4612 -2.6393  1.7351
15138TIP3   OH266828   5.493   1.094   4.768 -0.5569 -0.0237  0.1617
15138TIP3    H166829   5.585   1.082   4.792 -0.8039  0.4616  1.4471
15138TIP3    H266830   5.473   1.020   4.712  0.8277  0.2816 -0.7819
15139TIP3   OH266831   2.925   5.818   2.370 -0.0180  0.0539  0.5098
15139TIP3    H166832   2.978   5.739   2.382 -0.3090 -0.1102  0.7051
15139TIP3    H266833   2.883   5.806   2.285 -0.2610 -0.1134  0.6557
15140TIP3   OH266834   1.876   3.972  14.117 -0.4361 -0.5389 -0.0881
15140TIP3    H166835   1.914   3.899  14.166  0.1796  0.0765  0.3633
15140TIP3    H266836   1.790   3.940  14.091  0.2585 -1.8451 -0.8782
15141TIP3   OH266837   0.775   2.494   0.447  0.7932  0.0846  0.6999
15141TIP3    H166838   0.732   2.561   0.500 -1.8926  0.6838 -2.0139
15141TIP3    H266839   0.824   2.544   0.381 -1.2023 -0.5026 -1.3220
15142TIP3   OH266840   3.111   0.386  14.406  0.3112  0.5285  0.1058
15142TIP3    H166841   3.171   0.425  14.469  2.0578 -1.3112 -0.3000
15142TIP3    H266842   3.054   0.330  14.459 -1.2311  2.3794  0.5071
15143TIP3   OH266843   4.023   5.837   2.756 -0.3503  0.6625 -0.3552
15143TIP3    H166844   4.002   5.827   2.663  0.4663 -2.0370 -0.3443
15143TIP3    H266845   4.117   5.858   2.757 -0.6319  1.9629 -0.1476
15144TIP3   OH266846   6.364   4.232   3.584 -0.0241  0.6350 -0.0084
15144TIP3    H166847   6.313   4.208   3.661  0.7470 -0.6879  0.1240
15144TIP3    H266848   6.451   4.254   3.618  0.1026  0.8100 -0.4303
15145TIP3   OH266849   3.759   4.929  16.040 -0.3585  0.6170 -0.1974
15145TIP3    H166850   3.758   4.834  16.027  0.5174  0.3377  1.4691
15145TIP3    H266851   3.760   4.966  15.951 -3.3173 -0.8291 -0.9614
15146TIP3   OH266852   6.788   3.255   5.533  0.7659  0.0901 -0.7590
15146TIP3    H166853   6.777   3.320   5.603  0.7380 -0.0308 -0.6516
15146TIP3    H266854   6.840   3.301   5.467  3.2323 -0.6750  0.5288
15147TIP3   OH266855   1.847   3.377   5.624  0.1799  0.4827 -0.2339
15147TIP3    H166856   1.920   3.337   5.576  0.3848  0.3140  0.2068
15147TIP3    H266857   1.860   3.348   5.714 -0.8842 -0.2091 -0.2836
15148TIP3   OH266858   2.164   2.357   2.935 -0.2533 -0.1382 -0.1717
15148TIP3    H166859   2.244   2.401   2.963 -0.1088 -1.5280  1.7467
15148TIP3    H266860   2.114   2.345   3.016 -1.3534 -1.3491 -0.9993
15149TIP3   OH266861   5.387   5.793   5.810 -0.1964  0.0639  0.0400
15149TIP3    H166862   5.377   5.756   5.898 -0.5124 -1.0644 -0.4491
15149TIP3    H266863   5.385   5.888   5.823  0.7861 -0.0703  1.3657
15150TIP3   OH266864   1.939   0.022   5.953  0.0687 -0.4700  0.1935
15150TIP3    H166865   1.867  -0.013   5.902  0.8628 -0.9574 -0.6235
15150TIP3    H266866   1.913   0.008   6.044 -1.1798  0.0446 -0.0749
15151TIP3   OH266867   3.164   4.299   2.449  0.3595  0.6475 -0.3906
15151TIP3    H166868   3.169   4.219   2.501 -0.3601  0.5703 -0.4392
15151TIP3    H266869   3.132   4.366   2.509  0.7357  0.8546 -0.4125
15152TIP3   OH266870   6.407   5.680  13.061  0.4961  0.2789 -0.5679
15152TIP3    H166871   6.416   5.642  12.974 -1.3048  1.3850 -1.2794
15152TIP3    H266872   6.392   5.773  13.046  1.7094  0.7711  1.0140
15153TIP3   OH266873   4.676   6.537  14.039 -0.2550 -0.2502  0.5721
15153TIP3    H166874   4.671   6.624  13.999 -1.1612 -0.8929 -0.7927
15153TIP3    H266875   4.593   6.495  14.018  0.7339 -1.9980 -0.1643
15154TIP3   OH266876   4.321   4.540   1.636 -0.4737 -0.2480 -1.0521
15154TIP3    H166877   4.310   4.623   1.681 -1.4421 -1.2008  0.5773
15154TIP3    H266878   4.414   4.538   1.613 -0.8852  2.3117 -3.3839
15155TIP3   OH266879   2.719   1.465   4.357 -0.9991  0.3967  0.1711
15155TIP3    H166880   2.803   1.434   4.324 -0.7071 -0.2182  1.4265
15155TIP3    H266881   2.691   1.531   4.293 -0.2675 -0.4236 -1.0271
15156TIP3   OH266882   3.413   6.474   3.628 -0.5294  0.3100  0.0372
15156TIP3    H166883   3.345   6.417   3.593 -1.7980  1.7024  0.1490
15156TIP3    H266884   3.420   6.545   3.565 -1.6061  1.9289  1.6516
15157TIP3   OH266885   4.589   5.128   3.515 -0.2126 -0.1472  0.8498
15157TIP3    H166886   4.530   5.107   3.588 -0.7521 -1.1343  0.1632
15157TIP3    H266887   4.532   5.170   3.451 -0.1078 -0.8228  0.3082
15158TIP3   OH266888   5.424   4.646   1.824 -0.1749 -0.2189 -0.4120
15158TIP3    H166889   5.367   4.599   1.762 -0.9830  0.3301 -0.0998
15158TIP3    H266890   5.364   4.702   1.873  0.8846  2.0987 -1.6178
15159TIP3   OH266891   4.071   5.105  13.368  0.0497  0.2306  0.1024
15159TIP3    H166892   4.015   5.178  13.396  0.9750  0.8024  0.4852
15159TIP3    H266893   4.075   5.114  13.273  0.5374  0.9736  0.1842
15160TIP3   OH266894   6.376   0.829  13.300  0.0417 -0.3012  0.5385
15160TIP3    H166895   6.402   0.794  13.215 -0.2307  1.5068 -0.3245
15160TIP3    H266896   6.365   0.923  13.286 -0.6792 -0.0520  2.4160
15161TIP3   OH266897   0.957   4.240  15.993 -0.4453 -0.2660  0.1813
15161TIP3    H166898   1.011   4.195  15.929 -0.7119 -1.8294  1.0081
15161TIP3    H266899   0.914   4.310  15.944  2.5707  1.3277 -0.4475
15162TIP3   OH266900   1.813   2.294   0.955 -0.4661  0.0952 -0.2146
15162TIP3    H166901   1.810   2.358   0.884  1.9567 -0.4605 -0.9184
15162TIP3    H266902   1.906   2.273   0.965 -1.0549 -2.6012  0.6179
15163TIP3   OH266903   4.370   1.509  12.027 -0.1622  0.2153 -0.4557
15163TIP3    H166904   4.398   1.574  11.962 -1.4402  0.5172 -0.7350
15163TIP3    H266905   4.347   1.561  12.104  0.3056 -0.0468 -0.1409
15164TIP3   OH266906   0.301   5.728   5.316 -0.4497 -0.1240  0.5287
15164TIP3    H166907   0.246   5.688   5.383 -1.9192 -1.2366 -1.2703
15164TIP3    H266908   0.358   5.657   5.286 -1.2528 -0.2177 -0.8380
15165TIP3   OH266909   1.548   0.406  11.872 -0.1036  0.0654 -0.2739
15165TIP3    H166910   1.609   0.349  11.920  0.1434  0.9156  0.4564
15165TIP3    H266911   1.532   0.360  11.790 -0.4260 -1.3781  0.5536
15166TIP3   OH266912   6.640   3.573  12.439 -0.1223  0.6261  0.1791
15166TIP3    H166913   6.687   3.657  12.436  0.4096  0.3882  1.2650
15166TIP3    H266914   6.548   3.597  12.436  0.0175  1.1116 -1.9185
15167TIP3   OH266915   2.578   4.975   0.615  0.7122 -0.0240  0.5560
15167TIP3    H166916   2.511   5.016   0.559  2.5874  1.1793 -0.9566
15167TIP3    H266917   2.550   4.884   0.624 -0.1024 -0.0787 -1.7565
15168TIP3   OH266918   3.351   5.198   3.146  0.4352  0.0259 -0.5470
15168TIP3    H166919   3.399   5.278   3.121  1.1985  0.0377  0.8700
15168TIP3    H266920   3.383   5.178   3.234 -1.2782 -0.6858 -0.0576
15169TIP3   OH266921   3.360   5.985   0.954  0.0388  0.4471 -0.0468
15169TIP3    H166922   3.375   6.074   0.987  1.9433  0.0458  0.2768
15169TIP3    H266923   3.316   5.998   0.870  0.0778  1.6957  0.1105
15170TIP3   OH266924   4.206   4.485   6.477  0.6230  0.6179  0.3365
15170TIP3    H166925   4.249   4.416   6.426  1.4185  0.4076  1.2499
15170TIP3    H266926   4.146   4.438   6.535 -2.0878  0.9888 -1.9474
15171TIP3   OH266927   2.935   0.877   3.892  0.1282  0.2718 -0.2918
15171TIP3    H166928   2.843   0.899   3.877 -0.1550 -1.9801 -2.4306
15171TIP3    H266929   2.974   0.874   3.804  2.4191  1.6592  0.5832
15172TIP3   OH266930   2.341   5.921   4.558 -0.0797  0.5212  0.4849
15172TIP3    H166931   2.269   5.872   4.520 -0.3858  0.1371  1.5173
15172TIP3    H266932   2.302   5.967   4.633  1.3049 -2.3811  3.2458
15173TIP3   OH266933   0.209   2.919   1.109  0.3905  0.1263  0.3112
15173TIP3    H166934   0.291   2.869   1.100 -0.3570 -0.8284 -1.7498
15173TIP3    H266935   0.211   2.980   1.036  0.1953  1.5561  1.4666
15174TIP3   OH266936   0.152   1.361   3.182 -0.2691 -0.1401  0.1666
15174TIP3    H166937   0.114   1.442   3.215 -0.3144  0.0038 -0.2277
15174TIP3    H266938   0.241   1.360   3.216 -0.3850 -0.1075  0.4759
15175TIP3   OH266939   0.605   0.721   3.253 -0.8358 -0.5152 -0.3163
15175TIP3    H166940   0.548   0.798   3.250 -0.9236 -0.5997 -0.9539
15175TIP3    H266941   0.551   0.654   3.295 -1.2114 -0.5952 -0.9208
15176TIP3   OH266942   3.922   2.335   2.482 -0.7462  0.1293 -0.4471
15176TIP3    H166943   3.940   2.321   2.389  1.2094 -2.2012  0.1800
15176TIP3    H266944   4.004   2.314   2.526 -2.1918 -0.8663  1.9694
15177TIP3   OH266945   5.825   2.274  11.208 -0.1735 -0.2518 -0.1461
15177TIP3    H166946   5.918   2.274  11.188  0.0226  1.9001  0.5285
15177TIP3    H266947   5.820   2.263  11.303 -0.6783 -1.3455 -0.2802
15178TIP3   OH266948   0.120   2.865  11.126  0.1028  0.1288  0.3382
15178TIP3    H166949   0.193   2.906  11.173 -0.9899  0.6971  1.5772
15178TIP3    H266950   0.136   2.771  11.135  1.4116  0.2144 -0.6143
15179TIP3   OH266951   5.203   3.942  14.491  0.1498  0.4209 -0.7213
15179TIP3    H166952   5.143   3.963  14.420  0.4140 -0.2093 -1.1363
15179TIP3    H266953   5.256   3.870  14.458 -1.6117 -1.9113  1.1454
15180TIP3   OH266954   2.636   5.367  13.861 -0.2903 -0.1449 -0.1414
15180TIP3    H166955   2.595   5.292  13.817 -1.2193  1.0272 -1.3786
15180TIP3    H266956   2.680   5.414  13.791 -2.1289  1.9945  0.0072
15181TIP3   OH266957   1.162   1.978  16.622 -0.2910  0.1384  0.1158
15181TIP3    H166958   1.146   1.909  16.558  1.1626 -1.7266  1.6167
15181TIP3    H266959   1.076   1.995  16.661 -0.9949  0.5370 -1.5282
15182TIP3   OH266960   6.163   4.214  15.563  0.3734  0.3023 -0.6989
15182TIP3    H166961   6.241   4.189  15.612  0.9812  2.0269 -0.6814
15182TIP3    H266962   6.187   4.299  15.523 -2.0489  1.7487  0.6924
15183TIP3   OH266963   4.874   2.105  14.032 -0.6015  0.1788  0.4915
15183TIP3    H166964   4.809   2.172  14.011 -1.7304 -1.0324 -0.0026
15183TIP3    H266965   4.888   2.115  14.126 -0.7305  1.1040  0.4305
15184TIP3   OH266966   6.276   1.449   5.447 -0.6463  0.8302  0.1676
15184TIP3    H166967   6.369   1.454   5.469 -0.2663 -2.0822 -0.3313
15184TIP3    H266968   6.271   1.480   5.356 -0.4027  2.0992  0.5620
15185TIP3   OH266969   5.564   0.176  15.014  0.4475  0.4184  0.2084
15185TIP3    H166970   5.562   0.270  15.030  1.3072  0.6665 -1.0454
15185TIP3    H266971   5.579   0.168  14.920  2.6920 -0.9603  0.6206
15186TIP3   OH266972   1.709   3.454   0.879  0.1785  0.0294 -0.2748
15186TIP3    H166973   1.735   3.517   0.947 -0.1791  0.2302 -0.3218
15186TIP3    H266974   1.715   3.503   0.797 -0.4913  0.1284 -0.2726
15187TIP3   OH266975   5.034   0.820  15.545 -0.5117 -0.3865 -0.2619
15187TIP3    H166976   4.965   0.814  15.611  0.3046  1.2150  0.7812
15187TIP3    H266977   5.108   0.860  15.590  0.4208 -0.1816 -1.8908
15188TIP3   OH266978   1.620   0.489   6.340 -0.0918 -0.1872  0.5052
15188TIP3    H166979   1.599   0.545   6.266 -0.0680 -2.5192 -1.3881
15188TIP3    H266980   1.539   0.441   6.358  0.3947 -0.9407  0.7700
15189TIP3   OH266981   3.109   6.304   5.650  0.4333  0.5987 -0.3213
15189TIP3    H166982   3.055   6.366   5.700 -1.1488 -0.4882 -0.5834
15189TIP3    H266983   3.052   6.276   5.578  2.1722  1.0590 -1.9333
15190TIP3   OH266984   5.475   1.065   0.168  0.2089 -0.1232  0.5890
15190TIP3    H166985   5.503   0.974   0.158 -1.7956 -0.7726  0.4733
15190TIP3    H266986   5.421   1.066   0.247 -0.1374  0.8844  0.3623
15191TIP3   OH266987   6.566   1.961   4.174 -0.4228  0.2707  0.8578
15191TIP3    H166988   6.532   2.042   4.135 -1.0070 -1.3604 -2.3762
15191TIP3    H266989   6.490   1.922   4.217 -0.4973  0.6669  1.0999
15192TIP3   OH266990   1.914   2.067  14.149 -0.2278  0.3093 -0.5006
15192TIP3    H166991   1.923   2.162  14.156  1.9116  0.1336  0.1190
15192TIP3    H266992   1.882   2.052  14.061  0.8999  1.5755 -1.1651
15193TIP3   OH266993   1.730   4.665  10.950  0.4561 -0.1979 -0.0681
15193TIP3    H166994   1.797   4.615  10.903  0.3258 -0.6651  0.2372
15193TIP3    H266995   1.683   4.713  10.882  0.5403 -0.5378 -0.3662
15194TIP3   OH266996   6.200   5.790   5.529  0.9333  0.1235 -0.4837
15194TIP3    H166997   6.144   5.860   5.563  2.6010  1.4901 -0.3620
15194TIP3    H266998   6.157   5.709   5.555 -0.3991  1.1103  0.5188
15195TIP3   OH266999   0.629   4.658  16.388 -0.3484 -0.2423 -0.0206
15195TIP3    H167000   0.599   4.640  16.299  0.2685  0.3582 -0.3589
15195TIP3    H267001   0.672   4.743  16.382  1.3629 -1.0444  0.4613
15196TIP3   OH267002   5.956   5.011  14.107  0.2283 -0.4416  0.4234
15196TIP3    H167003   6.024   4.988  14.044  1.1101  0.3917  1.0543
15196TIP3    H267004   5.951   5.107  14.104 -1.7077 -0.5195 -0.4242
15197TIP3   OH267005   3.963   0.892  15.712 -0.1092 -0.9282  0.1206
15197TIP3    H167006   4.057   0.909  15.708  0.0628 -1.7698  0.4061
15197TIP3    H267007   3.936   0.925  15.798 -0.0002 -1.0555  0.2026
15198TIP3   OH267008   3.331   5.437  16.263 -0.0411 -0.2646 -0.2429
15198TIP3    H167009   3.322   5.496  16.338 -0.6455  0.7944 -1.1098
15198TIP3    H267010   3.245   5.396  16.255  0.1664 -0.7349 -0.0705
15199TIP3   OH267011   2.316   3.784   2.408  0.6694 -0.2116 -0.3676
15199TIP3    H167012   2.332   3.702   2.362 -2.2638 -1.3378  0.4430
15199TIP3    H267013   2.302   3.848   2.338  1.3565 -0.7398 -1.0043
15200TIP3   OH267014   3.326   3.172  13.759  0.2255  0.3391 -0.4798
15200TIP3    H167015   3.239   3.167  13.796 -0.0065  3.1590 -0.3874
15200TIP3    H267016   3.384   3.189  13.833  0.1696  2.8876 -0.9081
15201TIP3   OH267017   5.039   5.188   0.578 -0.0877 -0.5357  0.4015
15201TIP3    H167018   5.031   5.271   0.531  0.0669 -0.8807 -0.2530
15201TIP3    H267019   5.045   5.122   0.509 -2.0394 -1.2955  0.8818
15202TIP3   OH267020   4.050   5.329   3.297  0.1514 -0.0722  0.2418
15202TIP3    H167021   4.080   5.312   3.208 -0.6181  0.0169 -0.0411
15202TIP3    H267022   3.959   5.356   3.287 -0.0339 -0.3564  1.0838
15203TIP3   OH267023   5.199   1.594   4.013 -0.1818  0.0061  0.3951
15203TIP3    H167024   5.283   1.564   4.048  1.2994  2.4050 -0.8543
15203TIP3    H267025   5.222   1.641   3.933 -2.8325  0.0454 -0.4277
15204TIP3   OH267026   6.416   3.870   0.874 -0.3031 -0.2401  0.6226
15204TIP3    H167027   6.383   3.896   0.959 -0.0494  1.4681  0.2303
15204TIP3    H267028   6.393   3.777   0.867  0.5575 -0.7024  2.9422
15205TIP3   OH267029   2.524   4.616   1.403  0.0562 -0.4606 -0.1541
15205TIP3    H167030   2.552   4.690   1.457  1.2450  0.8022 -2.3435
15205TIP3    H267031   2.537   4.540   1.459 -0.1831  0.8766  1.8220
15206TIP3   OH267032   2.759   2.746  16.105 -0.8085 -0.1039  0.0827
15206TIP3    H167033   2.758   2.807  16.031  0.0061 -0.9498 -0.6500
15206TIP3    H267034   2.708   2.790  16.172 -1.6235  0.6740 -0.9974
15207TIP3   OH267035   2.102   6.157  16.585  0.2607 -0.1431 -0.5904
15207TIP3    H167036   2.052   6.232  16.618 -1.6038 -2.3103  2.0095
15207TIP3    H267037   2.190   6.171  16.619  0.1061  1.1254 -0.6496
15208TIP3   OH267038   3.896   0.465  14.397 -0.6102  0.0072 -0.0393
15208TIP3    H167039   3.983   0.426  14.391 -0.3399  0.7459 -1.4973
15208TIP3    H267040   3.863   0.438  14.482 -0.1844 -2.8314 -0.6792
15209TIP3   OH267041   5.190   6.235   5.844 -0.3158  1.0059 -0.2259
15209TIP3    H167042   5.159   6.318   5.807 -2.4256  0.8410  1.0166
15209TIP3    H267043   5.136   6.222   5.922  0.7950 -0.9610  0.2749
15210TIP3   OH267044   0.724   0.768   5.239  0.5264 -0.4327 -0.1775
15210TIP3    H167045   0.669   0.806   5.307 -1.2994 -0.7246 -1.3869
15210TIP3    H267046   0.687   0.681   5.225  1.4869 -0.7500 -0.8551
15211TIP3   OH267047   6.111   2.079  11.685  0.8297 -0.2125  0.1133
15211TIP3    H167048   6.113   2.071  11.780  0.5674 -1.2501  0.0377
15211TIP3    H267049   6.189   2.129  11.663  1.6659 -1.2085  0.7612
15212TIP3   OH267050   4.545   2.167  11.799  0.6745 -0.3007  0.1509
15212TIP3    H167051   4.608   2.102  11.768  1.1209 -0.7923  1.9918
15212TIP3    H267052   4.572   2.249  11.757  1.5059 -0.8357 -0.3798
15213TIP3   OH267053   2.936   6.108   6.002 -0.4964  0.0820 -0.0005
15213TIP3    H167054   2.904   6.098   6.091  1.0168 -0.1635  0.5532
15213TIP3    H267055   3.009   6.169   6.009 -2.1947  2.4897 -1.5612
15214TIP3   OH267056   3.460   5.783  11.869 -0.1750  0.0670 -0.0031
15214TIP3    H167057   3.446   5.699  11.826 -1.6107 -0.2454  0.9835
15214TIP3    H267058   3.549   5.779  11.903 -0.0829 -0.8723 -0.3408
15215TIP3   OH267059   5.456   2.593  16.652 -0.3560  0.7128 -0.3988
15215TIP3    H167060   5.480   2.526  16.716 -2.5656  0.6367  0.4152
15215TIP3    H267061   5.429   2.544  16.574 -2.6783  0.5452  0.4445
15216TIP3   OH267062   0.943   3.998   2.407  0.1756  0.1879 -0.1910
15216TIP3    H167063   0.944   3.903   2.419  0.8331  0.2807  0.6489
15216TIP3    H267064   0.864   4.016   2.356  1.0691 -0.9823 -2.0815
15217TIP3   OH267065   5.880   6.179  14.287  0.0833 -0.4555  0.0944
15217TIP3    H167066   5.894   6.098  14.337 -1.6469 -1.2272 -0.5763
15217TIP3    H267067   5.901   6.249  14.348 -0.2646 -1.4008  1.3446
15218TIP3   OH267068   1.203   1.357  12.459 -0.4327 -0.0630  0.0061
15218TIP3    H167069   1.182   1.451  12.461  0.3182  0.0987  0.9569
15218TIP3    H267070   1.299   1.354  12.453 -0.2224 -0.7170  2.4942
15219TIP3   OH267071   6.117   2.912  16.161  0.3576 -0.1352 -0.4679
15219TIP3    H167072   6.123   2.845  16.229 -0.7394  0.6497  0.4290
15219TIP3    H267073   6.182   2.978  16.187 -0.3170  0.3412  0.0395
15220TIP3   OH267074   1.549   1.311   5.376 -0.1033  0.1350  0.2518
15220TIP3    H167075   1.484   1.287   5.310  0.7026 -0.7588 -0.2306
15220TIP3    H267076   1.585   1.394   5.345  0.0347 -0.1126 -0.2691
15221TIP3   OH267077   0.390   0.718  14.371 -0.4851  0.0598  0.3687
15221TIP3    H167078   0.442   0.796  14.352  1.1833 -0.8216  1.0489
15221TIP3    H267079   0.301   0.741  14.345  0.0528  1.9933  0.0815
15222TIP3   OH267080   5.978   3.231  15.081 -0.5559 -0.2263  0.3381
15222TIP3    H167081   5.994   3.322  15.106  0.0223 -0.2117 -0.0492
15222TIP3    H267082   5.946   3.237  14.991  0.5723 -0.4555 -0.1001
15223TIP3   OH267083   2.883   0.008   4.991  0.5422 -0.0374  0.4547
15223TIP3    H167084   2.794   0.035   5.013  0.4862  1.0342 -0.9482
15223TIP3    H267085   2.931   0.012   5.074 -0.7796 -0.9626  1.2931
15224TIP3   OH267086   1.948   3.026   5.086  0.5740  0.1180 -0.2722
15224TIP3    H167087   1.917   3.076   5.010 -1.3415  2.1126  1.6856
15224TIP3    H267088   1.882   3.041   5.153  2.7824 -0.5622  2.2191
15225TIP3   OH267089   1.817   2.512  17.022  0.4901 -0.1460  0.4629
15225TIP3    H167090   1.877   2.461  16.967  0.3865  0.4840 -0.2486
15225TIP3    H267091   1.745   2.534  16.963 -0.2203 -0.4896  1.1835
15226TIP3   OH267092   3.711   4.321  14.731 -0.1787 -0.0319  0.0971
15226TIP3    H167093   3.803   4.319  14.706 -0.6737 -1.4817 -1.8467
15226TIP3    H267094   3.710   4.360  14.819  2.3708 -1.0897  0.6679
15227TIP3   OH267095   1.380   4.045   2.450 -0.2860  0.3425 -0.2727
15227TIP3    H167096   1.343   4.113   2.507  0.8200  0.8716 -0.1490
15227TIP3    H267097   1.344   3.963   2.483 -1.2353  0.8261 -0.0895
15228TIP3   OH267098   2.436   5.703   3.463  0.1349 -0.2399  0.6879
15228TIP3    H167099   2.365   5.722   3.402 -0.8778 -1.1821  1.5240
15228TIP3    H267100   2.515   5.730   3.417 -0.6770 -0.0147 -0.6353
15229TIP3   OH267101   6.373   5.712  15.613  0.2538  0.2780  0.1246
15229TIP3    H167102   6.307   5.691  15.547 -0.6388  1.7058  0.5041
15229TIP3    H267103   6.383   5.631  15.664 -0.8822 -0.1021 -0.2248
15230TIP3   OH267104   0.120   6.140   1.995  0.4006 -0.0987 -0.3499
15230TIP3    H167105   0.147   6.204   2.060  1.0460 -1.7754  1.1388
15230TIP3    H267106   0.199   6.123   1.944  0.0605  0.7397 -1.1797
15231TIP3   OH267107   1.577   0.497   0.560 -0.5978 -0.1690  0.5129
15231TIP3    H167108   1.574   0.475   0.653  1.0612  1.9035  1.1313
15231TIP3    H267109   1.667   0.525   0.545 -0.8214 -0.5390 -1.7566
15232TIP3   OH267110   1.780   3.421   6.526 -0.0471 -0.0280 -0.5857
15232TIP3    H167111   1.793   3.511   6.496 -0.0003 -0.3303 -1.4739
15232TIP3    H267112   1.840   3.369   6.474 -1.5476 -0.8521 -1.5440
15233TIP3   OH267113   1.888   2.390  13.284  0.1027 -0.2597 -0.6438
15233TIP3    H167114   1.846   2.313  13.323 -2.0741  1.3481  0.3937
15233TIP3    H267115   1.954   2.417  13.347 -2.0739  1.1693  1.1837
15234TIP3   OH267116   3.947   6.630  13.874 -0.3339  0.7255  0.4656
15234TIP3    H167117   4.006   6.594  13.941  1.3210  0.7075 -0.9399
15234TIP3    H267118   3.996   6.702  13.835  0.3933 -1.4737 -3.1869
15235TIP3   OH267119   1.396   2.301   3.866 -0.8377 -0.3081  0.2315
15235TIP3    H167120   1.391   2.348   3.949 -1.9220  0.5944 -0.3208
15235TIP3    H267121   1.486   2.314   3.836 -1.0692  1.3382  0.1621
15236TIP3   OH267122   0.661   5.538  15.251 -0.5543 -0.1235 -0.8406
15236TIP3    H167123   0.709   5.589  15.186  0.6251  0.9040  0.7680
15236TIP3    H267124   0.575   5.581  15.257 -0.6361 -0.1643 -1.6169
15237TIP3   OH267125   3.579   0.492  12.586  0.2331 -0.0114 -0.4026
15237TIP3    H167126   3.648   0.558  12.598 -0.3299  0.9195 -2.0008
15237TIP3    H267127   3.616   0.427  12.527 -0.0449  0.1843 -0.7993
15238TIP3   OH267128   4.631   0.294  12.093 -0.4639 -0.1720 -0.2677
15238TIP3    H167129   4.555   0.238  12.080 -0.3342 -0.3081 -0.4558
15238TIP3    H267130   4.604   0.357  12.159 -0.7388 -0.2207 -0.3331
15239TIP3   OH267131   3.666   5.898  15.271  0.2201  0.2724  0.2923
15239TIP3    H167132   3.595   5.957  15.296 -0.6984 -0.4982 -0.4461
15239TIP3    H267133   3.660   5.826  15.334 -0.8274 -0.6808 -0.8424
15240TIP3   OH267134   4.029   3.367  16.283 -0.6801  0.0228 -0.1994
15240TIP3    H167135   3.945   3.358  16.329 -0.6097  0.8131  0.1103
15240TIP3    H267136   4.022   3.307  16.209 -1.5200  0.0695 -0.1740
15241TIP3   OH267137   3.073   3.179  10.691  0.7384 -0.6515  0.2404
15241TIP3    H167138   3.021   3.258  10.674 -0.7234 -1.0832  2.3258
15241TIP3    H267139   3.105   3.152  10.605  0.0719  1.3762 -0.7060
15242TIP3   OH267140   6.460   6.105  13.121 -0.1434  0.2128 -0.0960
15242TIP3    H167141   6.433   6.040  13.186 -0.3937  2.2549  1.9947
15242TIP3    H267142   6.544   6.138  13.154  0.3490  0.4514 -1.5154
15243TIP3   OH267143   3.745   3.120  15.049 -0.2797  0.6199 -0.7136
15243TIP3    H167144   3.683   3.192  15.041 -0.2498  0.6676 -0.5020
15243TIP3    H267145   3.826   3.154  15.011  0.1181  1.1546  0.5936
15244TIP3   OH267146   6.673   3.096  11.823  0.4912 -0.0291  0.7595
15244TIP3    H167147   6.650   3.148  11.901 -1.9312 -0.6742  0.5529
15244TIP3    H267148   6.758   3.057  11.845  0.3992  0.6955  2.6193
15245TIP3   OH267149   6.575   0.533   5.446  0.8113  0.3460  0.1895
15245TIP3    H167150   6.483   0.558   5.439  1.4814  2.5646 -1.7950
15245TIP3    H267151   6.591   0.479   5.369  1.3402  0.5630  0.1442
15246TIP3   OH267152   3.943   2.579   0.802 -0.0795  0.1590  0.0626
15246TIP3    H167153   3.929   2.649   0.866 -1.4503 -1.2937  1.4045
15246TIP3    H267154   3.933   2.623   0.717  1.6844  2.1069  0.7718
15247TIP3   OH267155   2.005   0.541  11.879 -0.4747 -0.1482 -0.0335
15247TIP3    H167156   2.060   0.479  11.926  0.6902  0.5226 -0.4828
15247TIP3    H267157   2.012   0.514  11.787  0.9724  1.2937 -0.3892
15248TIP3   OH267158   4.474   0.238   4.696 -0.1257 -0.0295  0.2474
15248TIP3    H167159   4.549   0.215   4.750  0.8740 -0.4181 -1.2326
15248TIP3    H267160   4.485   0.187   4.616 -1.3387  0.7893 -0.4881
15249TIP3   OH267161   6.400   4.363  11.037  0.1229 -0.4362 -0.1060
15249TIP3    H167162   6.474   4.340  10.981  1.3210  0.5086  1.0044
15249TIP3    H267163   6.440   4.379  11.123 -1.6158 -1.6393  0.9841
15250TIP3   OH267164   4.917   3.119   1.571  0.3330  0.5392 -0.5434
15250TIP3    H167165   4.870   3.202   1.563 -0.7082 -0.0647 -0.9238
15250TIP3    H267166   5.006   3.139   1.543  0.6118  1.9522  1.1768
15251TIP3   OH267167   1.587   5.500   5.128  0.4760 -0.5927  0.1374
15251TIP3    H167168   1.540   5.482   5.209  1.5351 -0.9454  0.6879
15251TIP3    H267169   1.596   5.414   5.086 -1.6138 -0.2101 -1.2634
15252TIP3   OH267170   0.762   0.908   4.661 -0.8571  0.5547 -0.2357
15252TIP3    H167171   0.687   0.876   4.711 -2.8521  1.0028 -2.6870
15252TIP3    H267172   0.723   0.945   4.581  1.9401  1.6022 -1.2519
15253TIP3   OH267173   1.131   3.245   1.423  0.0649  0.6117  0.0196
15253TIP3    H167174   1.161   3.336   1.424 -0.2576  0.7169  0.1858
15253TIP3    H267175   1.047   3.248   1.377  0.8216  0.1560 -1.5008
15254TIP3   OH267176   4.079   4.859  13.283  0.0052 -0.5520  0.3194
15254TIP3    H167177   4.063   4.953  13.297  0.4598 -0.2441 -1.1225
15254TIP3    H267178   4.174   4.850  13.291  0.0677 -0.7049 -0.5680
15255TIP3   OH267179   3.829   3.331   5.422 -0.0891 -0.5293  0.4796
15255TIP3    H167180   3.815   3.252   5.474  0.2300 -0.3403  0.8597
15255TIP3    H267181   3.804   3.307   5.333  1.0426 -1.3904  0.3724
15256TIP3   OH267182   6.203   6.072   4.447 -0.0149 -0.3037  0.0682
15256TIP3    H167183   6.210   6.102   4.357 -3.8800 -0.0106 -0.3130
15256TIP3    H267184   6.258   5.994   4.451  0.3996 -0.2231 -2.5038
15257TIP3   OH267185   0.415   3.632   9.973 -0.5795  0.5944  0.3810
15257TIP3    H167186   0.416   3.707   9.914  2.4297  0.5844  0.2460
15257TIP3    H267187   0.442   3.667  10.058  0.1049 -0.1964  0.5012
15258TIP3   OH267188   5.573   0.094  15.293 -0.4197  0.3707  0.3514
15258TIP3    H167189   5.565   0.076  15.199 -1.6973  1.6261  0.1979
15258TIP3    H267190   5.521   0.025  15.335  0.9948 -0.8166  0.2307
15259TIP3   OH267191   1.477   6.816  16.844  0.1529  0.0401  0.3004
15259TIP3    H167192   1.564   6.780  16.828 -0.2904 -1.0847  0.2736
15259TIP3    H267193   1.483   6.907  16.817  1.3126 -0.0262  0.2777
15260TIP3   OH267194   1.271   2.573   0.754 -0.1007  0.1896  0.0455
15260TIP3    H167195   1.185   2.530   0.753  0.3037 -0.6368 -0.4719
15260TIP3    H267196   1.322   2.522   0.817 -0.1250  0.9704  0.7122
15261TIP3   OH267197   1.415   4.259  14.781 -0.0530 -0.1186 -0.5780
15261TIP3    H167198   1.345   4.322  14.797 -0.8074 -0.9669 -0.4548
15261TIP3    H267199   1.491   4.313  14.757 -0.0450  0.9621  1.6235
15262TIP3   OH267200   2.298   2.859  16.862  0.2131 -0.2574  0.1733
15262TIP3    H167201   2.275   2.852  16.769 -0.6764 -0.6419  0.4103
15262TIP3    H267202   2.369   2.923  16.865 -1.8722  2.2657 -0.4620
15263TIP3   OH267203   3.662   0.380  12.332  1.0447 -0.0688  0.5388
15263TIP3    H167204   3.601   0.434  12.282  2.6822  1.3451 -0.0612
15263TIP3    H267205   3.741   0.376  12.277  1.4683 -1.9362  1.2175
15264TIP3   OH267206   1.474   3.423   5.567 -0.4485 -0.4850  0.2524
15264TIP3    H167207   1.455   3.387   5.480 -0.0984 -1.0881  0.4219
15264TIP3    H267208   1.391   3.460   5.596 -0.4340  0.2418 -0.5768
15265TIP3   OH267209   2.220   1.595   2.680 -0.0403 -0.6056 -0.3826
15265TIP3    H167210   2.195   1.502   2.680 -0.6246 -0.4607  0.4708
15265TIP3    H267211   2.163   1.635   2.745  1.8635 -0.0865  1.0543
15266TIP3   OH267212   4.778   6.394   4.708  0.0457  0.0682 -0.2178
15266TIP3    H167213   4.813   6.473   4.667 -0.6338  0.0759 -0.8133
15266TIP3    H267214   4.738   6.424   4.790 -0.1121  0.3270 -0.3890
15267TIP3   OH267215   3.866   4.022   3.537  0.0542  0.2982 -0.3371
15267TIP3    H167216   3.959   4.030   3.519  0.0027  2.1021  0.0329
15267TIP3    H267217   3.858   3.939   3.583  1.3303 -0.3261 -1.1727
15268TIP3   OH267218   0.314   2.417   3.634  0.1456  0.2590 -0.0959
15268TIP3    H167219   0.390   2.365   3.659  0.1723  0.9509  1.3595
15268TIP3    H267220   0.352   2.491   3.586  0.0898 -1.0942 -2.3689
15269TIP3   OH267221   1.161   3.056   3.118  0.3893  0.2501  0.7771
15269TIP3    H167222   1.251   3.032   3.139  0.7111  0.8890  0.1987
15269TIP3    H267223   1.141   3.129   3.176 -0.5143 -1.2135  2.3906
15270TIP3   OH267224   4.023   6.703   6.085 -0.1180 -0.1629  0.5773
15270TIP3    H167225   4.089   6.760   6.046 -2.3214  1.0978 -1.6256
15270TIP3    H267226   3.981   6.757   6.152 -0.8775  0.1488 -0.1295
15271TIP3   OH267227   4.249   0.976   0.132  0.0555  0.1317 -0.2749
15271TIP3    H167228   4.325   0.966   0.189 -0.6178  0.2655  0.6641
15271TIP3    H267229   4.199   1.048   0.169 -0.6321 -0.0760 -0.7621
15272TIP3   OH267230   0.406   2.087  14.522 -0.2340  0.1517 -0.2588
15272TIP3    H167231   0.318   2.093  14.560 -0.2429 -0.8645 -0.0816
15272TIP3    H267232   0.434   2.178  14.511 -1.0289  0.4817  0.3362
15273TIP3   OH267233   5.331   1.175  17.021 -0.1820 -0.4205  0.6772
15273TIP3    H167234   5.289   1.093  16.993 -1.9243  0.1490  1.4892
15273TIP3    H267235   5.382   1.150  17.098  0.4735 -0.9975  0.0757
15274TIP3   OH267236   2.051   0.602  16.978 -0.2937 -0.2531 -0.0439
15274TIP3    H167237   2.076   0.644  17.061 -1.4934  0.2270  0.0866
15274TIP3    H267238   1.974   0.549  16.999 -0.4733 -0.3127 -0.8052
15275TIP3   OH267239   5.163   1.458  10.948  0.4403 -0.0026 -0.2962
15275TIP3    H167240   5.258   1.448  10.937  0.4816 -0.0538  0.0944
15275TIP3    H267241   5.153   1.509  11.028  0.1237 -0.6947  0.1220
15276TIP3   OH267242   5.418   1.129  14.405 -0.1795 -0.5314 -0.2299
15276TIP3    H167243   5.418   1.171  14.490  3.2061 -0.2521 -0.2434
15276TIP3    H267244   5.454   1.042  14.421 -2.6286 -1.7811 -0.9492
15277TIP3   OH267245   1.226   6.706  16.896 -0.2206  0.2212  0.7403
15277TIP3    H167246   1.295   6.757  16.853  1.6261 -1.9453  0.9722
15277TIP3    H267247   1.254   6.615  16.888 -3.8739 -0.9493 -0.4968
15278TIP3   OH267248   4.191   2.002   0.946 -0.1076 -0.1519 -0.2213
15278TIP3    H167249   4.103   2.039   0.941  0.0682  0.4241  0.6388
15278TIP3    H267250   4.206   1.988   1.040  1.2514  1.1377 -0.2026
15279TIP3   OH267251   0.594   0.510  14.417  0.0071  0.0403 -0.4865
15279TIP3    H167252   0.619   0.565  14.342 -2.1161  3.4609  1.0544
15279TIP3    H267253   0.498   0.514  14.419 -0.0392 -0.5592  1.9748
15280TIP3   OH267254   4.930   4.446   1.746 -1.2583  0.2265 -0.0358
15280TIP3    H167255   4.923   4.352   1.765  1.1950  0.5610  3.3713
15280TIP3    H267256   4.879   4.488   1.815 -1.5997  1.4726 -1.0202
15281TIP3   OH267257   6.642   0.352   0.770 -0.1396  0.2298  0.2073
15281TIP3    H167258   6.662   0.417   0.703  0.4058 -0.0968  0.0477
15281TIP3    H267259   6.607   0.277   0.721  0.2479 -0.0049  0.2820
15282TIP3   OH267260   3.593   4.102   3.206  0.0831 -0.4851 -0.0027
15282TIP3    H167261   3.683   4.103   3.174  0.4875  0.5264  1.0752
15282TIP3    H267262   3.597   4.049   3.285 -0.4544 -1.1269 -0.3960
15283TIP3   OH267263   4.337   6.578   1.422 -0.0848 -0.1279 -0.2661
15283TIP3    H167264   4.363   6.495   1.383  1.3388  0.5843 -0.9240
15283TIP3    H267265   4.415   6.608   1.469 -0.8793  0.3888  0.7722
15284TIP3   OH267266   4.999   0.577   0.996 -0.2403 -0.2998 -0.3547
15284TIP3    H167267   4.930   0.512   0.981 -1.0314  0.3562  0.3354
15284TIP3    H267268   4.986   0.604   1.087 -0.0384  0.9617 -0.6895
15285TIP3   OH267269   6.157   5.865   4.129  0.2825  0.1329 -0.6315
15285TIP3    H167270   6.246   5.844   4.158  0.4404 -0.5565 -1.5617
15285TIP3    H267271   6.145   5.812   4.051 -0.3249  1.5021 -1.5082
15286TIP3   OH267272   3.815   5.771   2.214  0.0943 -0.1550 -0.7259
15286TIP3    H167273   3.739   5.772   2.156  1.3342 -0.1556 -2.4264
15286TIP3    H267274   3.784   5.815   2.294 -0.9300  2.4127 -2.3914
15287TIP3   OH267275   0.457   4.259  15.221 -0.0488 -0.1775  0.2741
15287TIP3    H167276   0.423   4.213  15.297 -0.0863 -0.7808 -0.0969
15287TIP3    H267277   0.457   4.193  15.151  0.5775  0.1906 -0.0833
15288TIP3   OH267278   3.041   1.144  14.700  0.6497  0.3797  0.0023
15288TIP3    H167279   3.101   1.085  14.655 -0.0298  0.2297 -0.7430
15288TIP3    H267280   3.059   1.231  14.662 -0.5529  0.1120 -1.3054
15289TIP3   OH267281   2.140   1.371   6.170 -0.6175  0.5847  0.0571
15289TIP3    H167282   2.129   1.454   6.215 -0.2255  0.0728  1.1500
15289TIP3    H267283   2.226   1.340   6.198 -0.5336  0.0580 -0.7525
15290TIP3   OH267284   2.210   0.822  10.865 -0.5774  0.4518 -0.2633
15290TIP3    H167285   2.282   0.766  10.835 -0.4034  1.4635 -1.8198
15290TIP3    H267286   2.132   0.784  10.826 -0.7216  0.1623  0.2964
15291TIP3   OH267287   1.350   4.827   0.070 -0.5257 -0.1899 -0.6877
15291TIP3    H167288   1.364   4.892   0.001  0.0363 -0.5299 -0.8992
15291TIP3    H267289   1.323   4.878   0.146 -0.3100  0.2699 -0.9181
15292TIP3   OH267290   3.488   4.196   4.805  0.1007  0.2027 -0.2149
15292TIP3    H167291   3.495   4.115   4.754 -0.6631  1.2955 -2.1591
15292TIP3    H267292   3.435   4.172   4.881 -0.3397 -1.0626 -0.8921
15293TIP3   OH267293   2.990   1.591  11.451 -0.6917 -0.1107 -0.3207
15293TIP3    H167294   3.083   1.612  11.458 -0.2604 -1.1636 -2.3081
15293TIP3    H267295   2.988   1.498  11.430 -2.2840 -0.4193  0.9741
15294TIP3   OH267296   0.010   5.606  12.013  0.1510  0.2369  1.3424
15294TIP3    H167297  -0.084   5.616  11.998  0.4024  0.9875  0.1404
15294TIP3    H267298   0.047   5.690  11.987  1.1692 -0.0766  1.7325
15295TIP3   OH267299   5.796   2.469  13.929  0.3953  0.0433  0.5342
15295TIP3    H167300   5.778   2.388  13.882  0.8104  0.6582 -0.7206
15295TIP3    H267301   5.830   2.441  14.014 -0.4845 -1.0880  0.5315
15296TIP3   OH267302   5.892   0.563  13.135 -0.2578 -0.5901  0.3273
15296TIP3    H167303   5.890   0.596  13.045  0.7137 -1.7881 -0.1667
15296TIP3    H267304   5.947   0.485  13.131  0.1497 -0.4421  2.0553
15297TIP3   OH267305   6.333   5.709  11.868  0.8509 -0.0324 -0.5039
15297TIP3    H167306   6.364   5.795  11.839  2.1719 -0.2526  0.1953
15297TIP3    H267307   6.243   5.726  11.898 -0.1388  0.4167 -3.4617
15298TIP3   OH267308   2.767   0.387   1.034 -0.4140  0.1812 -0.1489
15298TIP3    H167309   2.751   0.478   1.059  0.2877  0.0749  0.7429
15298TIP3    H267310   2.854   0.368   1.070 -0.5293 -0.8220 -0.3843
15299TIP3   OH267311   1.866   1.396  11.702 -0.0559  0.5342  0.7452
15299TIP3    H167312   1.873   1.390  11.607  0.2116  1.0402  0.7296
15299TIP3    H267313   1.831   1.311  11.729  0.5762  0.1133  0.2642
15300TIP3   OH267314   1.818   3.435  13.783 -0.1238 -0.3732 -0.9051
15300TIP3    H167315   1.903   3.405  13.815 -0.0015  0.6325 -0.2301
15300TIP3    H267316   1.755   3.406  13.849 -0.2329 -0.5881 -1.0996
15301TIP3   OH267317   4.851   6.640  13.385 -0.0217 -0.0589  0.2905
15301TIP3    H167318   4.756   6.634  13.379 -0.0022 -1.3795  1.0255
15301TIP3    H267319   4.884   6.583  13.316  0.2041 -1.4133  1.4656
15302TIP3   OH267320   5.510   1.207   3.574 -0.2653  0.0835  0.1600
15302TIP3    H167321   5.494   1.146   3.646  0.7356 -0.1565  0.1993
15302TIP3    H267322   5.594   1.248   3.595 -1.3035  2.1295  0.5625
15303TIP3   OH267323   2.149   5.071  12.430 -0.2635  0.2147 -0.4567
15303TIP3    H167324   2.149   4.998  12.369  0.7757 -1.0036  0.9349
15303TIP3    H267325   2.236   5.070  12.469 -0.3524  1.9743 -0.1343
15304TIP3   OH267326   5.832   0.726   1.396 -0.2593  0.1935 -0.8871
15304TIP3    H167327   5.774   0.666   1.442  1.5405 -2.3223 -1.6988
15304TIP3    H267328   5.775   0.772   1.334 -1.6767 -0.7548 -0.3342
15305TIP3   OH267329   5.063   3.302   3.812 -0.0756  0.0732 -0.3846
15305TIP3    H167330   5.090   3.308   3.904  2.6285 -2.2408 -0.8957
15305TIP3    H267331   4.996   3.370   3.803 -0.0975  0.7440  3.1385
15306TIP3   OH267332   6.033   3.944  11.765  0.0736 -0.0027  0.2114
15306TIP3    H167333   6.056   3.984  11.681  2.5266 -0.3475  0.6328
15306TIP3    H267334   6.000   3.857  11.742  0.8790 -0.1566 -0.4022
15307TIP3   OH267335   4.088   0.610  10.833 -0.1203 -0.5511 -0.6740
15307TIP3    H167336   4.095   0.703  10.813 -2.7299  0.0471  0.6462
15307TIP3    H267337   4.049   0.571  10.755 -1.9120  0.1111 -0.1705
15308TIP3   OH267338   3.625   6.575   1.757  0.2100  0.5237 -0.6264
15308TIP3    H167339   3.554   6.634   1.729  1.0157  0.4305 -3.1182
15308TIP3    H267340   3.704   6.612   1.717  1.1644 -0.7280  0.0463
15309TIP3   OH267341   6.776   5.864  13.312  0.0589  0.3439 -0.3223
15309TIP3    H167342   6.751   5.952  13.284 -0.8278  0.8682  1.9630
15309TIP3    H267343   6.717   5.806  13.263  0.3650  1.0143 -1.5279
15310TIP3   OH267344   3.866   0.854  13.175  0.2211  0.1285  0.0805
15310TIP3    H167345   3.881   0.899  13.092 -0.2644 -0.0360 -0.0983
15310TIP3    H267346   3.798   0.905  13.219  0.4551  0.1976  0.3644
15311TIP3   OH267347   1.863   2.997   3.086 -0.2910 -0.2301  0.2037
15311TIP3    H167348   1.914   3.034   3.013  0.5345 -0.9666  0.3845
15311TIP3    H267349   1.790   2.952   3.044 -0.9304  1.0037 -0.0532
15312TIP3   OH267350   4.296   4.473   1.070 -0.3086 -0.2878 -0.6180
15312TIP3    H167351   4.223   4.520   1.110  0.6973  2.5025 -1.8008
15312TIP3    H267352   4.362   4.468   1.139 -1.6157 -3.0773  0.5439
15313TIP3   OH267353   3.286   3.945  11.345  0.8970  0.1928  0.3687
15313TIP3    H167354   3.360   3.904  11.300 -0.2167 -0.9842 -0.4917
15313TIP3    H267355   3.259   4.016  11.286  0.9251  0.1812  0.3419
15314TIP3   OH267356   5.087   5.103   5.024  0.2498  0.1905 -0.1509
15314TIP3    H167357   5.137   5.075   4.947  2.0361  2.1095  0.2237
15314TIP3    H267358   4.997   5.115   4.992  0.5175 -0.9757 -1.4211
15315TIP3   OH267359   5.270   3.419  12.243  0.0679  0.2884  0.2596
15315TIP3    H167360   5.269   3.384  12.332  2.9525  2.4216  1.3116
15315TIP3    H267361   5.344   3.374  12.201  1.1929  1.9874  0.3031
15316TIP3   OH267362   6.680   1.752   1.055  0.1003  0.3331 -0.1382
15316TIP3    H167363   6.699   1.718   1.143 -0.4173  1.1655  0.3117
15316TIP3    H267364   6.614   1.693   1.020  0.8265 -0.4262 -0.2647
15317TIP3   OH267365   2.469   4.586  12.754 -0.4692  0.8440 -0.5238
15317TIP3    H167366   2.397   4.556  12.810 -1.0430  1.4791 -0.9060
15317TIP3    H267367   2.479   4.516  12.690 -0.7039  0.7220 -0.4302
15318TIP3   OH267368   0.057   5.349  11.911  0.0990 -0.2445 -0.1253
15318TIP3    H167369   0.080   5.431  11.955  0.9370  0.7884 -2.3230
15318TIP3    H267370  -0.038   5.354  11.900  0.1513  0.4682 -0.2842
15319TIP3   OH267371   4.611   2.569   3.251  0.3499 -0.4873  0.5191
15319TIP3    H167372   4.647   2.647   3.209 -0.9608 -0.0259  0.2227
15319TIP3    H267373   4.686   2.510   3.259  1.2591  0.6000  0.3080
15320TIP3   OH267374   0.289   1.457  15.419 -0.2848  0.2285 -0.5136
15320TIP3    H167375   0.252   1.424  15.337  0.2772 -1.9461  0.0269
15320TIP3    H267376   0.326   1.379  15.460  1.2588  1.6295  0.8542
15321TIP3   OH267377   4.018   6.725   2.092  0.2313 -0.2188  0.0421
15321TIP3    H167378   4.072   6.661   2.045  1.1023 -0.7324  1.6813
15321TIP3    H267379   3.941   6.677   2.120  0.0539 -0.0978 -0.2358
15322TIP3   OH267380   4.220   0.550  16.033  0.2507  0.1291  0.6487
15322TIP3    H167381   4.201   0.574  16.124  0.5949 -1.2715  1.1266
15322TIP3    H267382   4.184   0.462  16.024 -1.4125  0.9164 -1.1578
15323TIP3   OH267383   3.588   3.796   0.789  0.6454  0.2714 -0.2930
15323TIP3    H167384   3.658   3.851   0.824  1.2337  0.6428 -1.9326
15323TIP3    H267385   3.514   3.856   0.778  0.2550  0.0214  0.8223
15324TIP3   OH267386   1.099   2.498  12.927  0.0326 -0.2697  0.4153
15324TIP3    H167387   1.100   2.409  12.962 -0.7435 -0.4960 -0.0959
15324TIP3    H267388   1.016   2.504  12.879  1.2157 -0.0987 -1.6964
15325TIP3   OH267389   5.704   4.353  17.021  0.1603  0.4030  0.6879
15325TIP3    H167390   5.693   4.259  17.032  0.2119  0.5834  2.5960
15325TIP3    H267391   5.661   4.373  16.938  0.2805 -1.3100  0.1785
15326TIP3   OH267392   2.039   3.548  14.974 -0.1061 -0.5807  0.0125
15326TIP3    H167393   1.984   3.564  14.898 -0.5577 -1.2319  0.1949
15326TIP3    H267394   2.051   3.453  14.976 -0.7428 -0.6554  1.1936
15327TIP3   OH267395   3.772   4.019   5.594 -0.2777 -0.2077  0.3777
15327TIP3    H167396   3.751   4.030   5.686 -2.4334  0.5289 -0.1494
15327TIP3    H267397   3.845   4.079   5.579 -0.2385  0.0453  1.4783
15328TIP3   OH267398   6.699   4.802  11.303 -0.1084  0.2207 -0.0164
15328TIP3    H167399   6.789   4.797  11.334 -0.6834  1.5691  2.1162
15328TIP3    H267400   6.688   4.724  11.248  1.8887 -0.7928  0.9004
15329TIP3   OH267401   0.367   4.057   1.140 -0.2850 -0.3284  0.0291
15329TIP3    H167402   0.436   3.993   1.121  1.3810  1.2679  0.4142
15329TIP3    H267403   0.368   4.066   1.235 -1.3376 -0.5780  0.0767
15330TIP3   OH267404   2.786   6.610  11.861 -0.5143 -0.3605  0.1277
15330TIP3    H167405   2.721   6.662  11.814  0.5337 -0.1906 -1.1523
15330TIP3    H267406   2.780   6.523  11.822  0.8773 -0.0329 -0.9033
15331TIP3   OH267407   2.041   6.586  15.567  0.3310 -0.0864 -0.4195
15331TIP3    H167408   2.023   6.676  15.540  3.5009  1.0912  0.9597
15331TIP3    H267409   1.991   6.575  15.648  0.9115  0.9298  0.0978
15332TIP3   OH267410   2.114   0.338   3.436 -0.4258 -0.3291  0.1551
15332TIP3    H167411   2.036   0.320   3.489 -0.9568  0.2844 -0.4017
15332TIP3    H267412   2.081   0.386   3.360  0.6419  1.0048  0.4966
15333TIP3   OH267413   0.160   2.011  13.810  0.3182 -0.4432  0.2461
15333TIP3    H167414   0.100   1.941  13.786  0.2705 -0.4184  0.2909
15333TIP3    H267415   0.188   2.048  13.727 -1.2914  0.8668  0.2247
15334TIP3   OH267416   3.489   3.081  11.090  0.0916 -0.4120  0.2199
15334TIP3    H167417   3.560   3.114  11.145  1.3340 -0.0220 -1.5462
15334TIP3    H267418   3.422   3.051  11.152  0.5515  1.8468  1.9063
15335TIP3   OH267419   2.257   5.086   4.069 -0.1055 -0.1393  0.1511
15335TIP3    H167420   2.289   5.134   4.145  0.9643 -1.3122  0.4651
15335TIP3    H267421   2.162   5.099   4.071 -0.0231  0.4038  1.2852
15336TIP3   OH267422   5.959   4.633   5.794 -0.1748 -0.0541  0.9492
15336TIP3    H167423   5.904   4.580   5.737 -1.4468  2.3212 -0.2163
15336TIP3    H267424   5.977   4.578   5.869 -1.7783 -1.9272  0.0385
15337TIP3   OH267425   1.764   2.139  11.986  0.4256 -0.2269  0.1234
15337TIP3    H167426   1.692   2.084  12.017  0.6768 -1.1502 -0.8571
15337TIP3    H267427   1.763   2.128  11.891  1.7622 -0.1440  0.0797
15338TIP3   OH267428   4.024   5.485   0.370 -0.2614  0.0101 -0.0718
15338TIP3    H167429   4.035   5.456   0.461 -0.8145  2.2043  0.7524
15338TIP3    H267430   4.077   5.564   0.364  0.2224 -0.4141 -1.8656
15339TIP3   OH267431   6.572   5.766   2.100 -0.3857 -0.6582  0.4374
15339TIP3    H167432   6.477   5.774   2.105 -0.3097  0.1722  0.7028
15339TIP3    H267433   6.591   5.755   2.007 -0.6593  0.4256  0.2400
15340TIP3   OH267434   5.379   6.176  15.780  0.5097  0.2631 -0.0464
15340TIP3    H167435   5.464   6.187  15.822  0.3937 -1.4269  0.7222
15340TIP3    H267436   5.375   6.083  15.757 -0.9970  0.3754 -0.3465
15341TIP3   OH267437   1.789   2.534   3.229 -0.1457  0.1912 -0.5052
15341TIP3    H167438   1.760   2.598   3.294 -0.3714 -0.8218  0.4213
15341TIP3    H267439   1.885   2.542   3.229  0.0482 -1.2021  1.5211
15342TIP3   OH267440   6.589   6.307   4.046  0.2702  0.0178  0.5391
15342TIP3    H167441   6.560   6.218   4.064 -0.5842  0.3060  0.6613
15342TIP3    H267442   6.510   6.361   4.057  1.1707  1.0609  2.4205
15343TIP3   OH267443   3.762   1.461   0.872 -0.2801 -0.5319 -0.0695
15343TIP3    H167444   3.757   1.366   0.871  1.0767 -0.6320 -1.0637
15343TIP3    H267445   3.801   1.482   0.957  1.3746 -1.0461 -0.6485
15344TIP3   OH267446   5.466   4.809   0.678 -0.1946  0.6058 -0.2354
15344TIP3    H167447   5.403   4.857   0.733 -0.5651  1.0415 -1.0187
15344TIP3    H267448   5.440   4.718   0.685 -1.6088  0.8913 -1.3950
15345TIP3   OH267449   0.260   1.373  12.069  0.2011 -0.4831 -1.3368
15345TIP3    H167450   0.294   1.427  12.140  0.0288 -0.5060 -1.2351
15345TIP3    H267451   0.168   1.399  12.061  0.1743 -0.6060 -1.4337
15346TIP3   OH267452   5.346   6.615  15.715 -0.2512  0.0491 -0.3354
15346TIP3    H167453   5.388   6.701  15.712  0.9539 -0.5393 -1.2939
15346TIP3    H267454   5.373   6.579  15.800  2.6684 -0.9747 -1.5716
15347TIP3   OH267455   3.902   4.707   6.313  0.2574  0.1535 -0.4265
15347TIP3    H167456   3.870   4.638   6.254 -1.6227 -0.3506  1.0897
15347TIP3    H267457   3.823   4.753   6.341  1.2610  1.3232  0.5723
15348TIP3   OH267458   5.888   2.311   0.808 -0.6641 -0.2929  0.6866
15348TIP3    H167459   5.903   2.406   0.806  0.9600 -0.5191 -1.2338
15348TIP3    H267460   5.973   2.273   0.784 -1.6322 -2.1704  0.0417
15349TIP3   OH267461   6.356   4.628   2.215 -0.1773 -0.2366 -0.3984
15349TIP3    H167462   6.350   4.702   2.154  1.3808 -0.2375 -0.5796
15349TIP3    H267463   6.450   4.610   2.222 -0.2002  0.3870  2.7480
15350TIP3   OH267464   3.026   0.153  13.066 -0.1265 -0.9072 -0.1379
15350TIP3    H167465   2.989   0.174  13.152  0.9799 -1.7060  0.5624
15350TIP3    H267466   2.978   0.077  13.037 -0.7326 -0.4351 -0.3904
15351TIP3   OH267467   4.182   3.938   4.352 -0.2232 -0.1284  0.3012
15351TIP3    H167468   4.107   3.992   4.379 -1.4179 -1.6062  0.1036
15351TIP3    H267469   4.186   3.948   4.257 -1.0056 -1.0255  0.1559
15352TIP3   OH267470   0.490   0.178  13.476  0.2334  0.5866 -0.4323
15352TIP3    H167471   0.537   0.186  13.560  0.9163  0.3671 -0.7839
15352TIP3    H267472   0.559   0.184  13.410  0.0314 -1.5728 -0.9202
15353TIP3   OH267473   1.563   6.017  16.684  0.0135 -0.3971 -0.6526
15353TIP3    H167474   1.495   5.948  16.684 -1.3034  0.8550 -0.9141
15353TIP3    H267475   1.571   6.042  16.593  1.2371 -0.8797 -0.6929
15354TIP3   OH267476   3.312   4.516   4.462  0.5790 -0.3527 -0.5617
15354TIP3    H167477   3.272   4.547   4.544  0.4865 -2.7576  0.3914
15354TIP3    H267478   3.357   4.592   4.427  1.2566  0.6127  2.1391
15355TIP3   OH267479   0.031   4.634   4.671 -0.2756  0.2220 -0.4078
15355TIP3    H167480   0.124   4.657   4.670 -0.2536  0.1430 -0.2767
15355TIP3    H267481   0.024   4.570   4.742 -0.2936 -0.3309 -0.9006
15356TIP3   OH267482   5.948   2.530  15.942 -0.0318  0.2948  0.1267
15356TIP3    H167483   5.914   2.442  15.955 -2.2861  0.9087 -1.1132
15356TIP3    H267484   6.028   2.517  15.891  0.1724 -1.0632  0.7579
15357TIP3   OH267485   2.361   6.434   3.984 -0.5293 -0.2812 -0.1751
15357TIP3    H167486   2.309   6.421   4.064  0.9328  0.2544  0.9057
15357TIP3    H267487   2.388   6.526   3.988  1.0989 -0.7204 -0.2992
15358TIP3   OH267488   6.516   0.493  12.285  0.2061 -0.3457  0.0199
15358TIP3    H167489   6.514   0.542  12.367 -0.9604  0.1982 -0.3092
15358TIP3    H267490   6.605   0.504  12.252 -0.5008  3.2676 -1.0442
15359TIP3   OH267491   2.995   1.364  14.409  0.4241 -0.0992  0.0776
15359TIP3    H167492   2.937   1.396  14.341  2.5013  1.7696 -0.9435
15359TIP3    H267493   3.038   1.288  14.370  0.2622 -0.1677  0.0304
15360TIP3   OH267494   1.763   4.140  12.433 -0.0754  0.0651  0.6545
15360TIP3    H167495   1.800   4.083  12.367  1.2801  2.7206 -1.0334
15360TIP3    H267496   1.670   4.115  12.437  0.3330 -1.7920 -0.4168
15361TIP3   OH267497   0.966   1.011  16.581 -0.3129 -0.4088  0.3280
15361TIP3    H167498   0.988   0.956  16.506  0.1973 -0.8607  0.8062
15361TIP3    H267499   0.870   1.008  16.585 -0.2658 -1.8216  0.7672
15362TIP3   OH267500   4.537   0.746  15.113  0.3748  0.2536 -0.4340
15362TIP3    H167501   4.503   0.673  15.165  2.1720 -0.2948  0.0327
15362TIP3    H267502   4.597   0.792  15.173  0.6315  1.0490 -1.2830
15363TIP3   OH267503   1.737   1.906  15.100  0.0700 -0.3706 -0.2140
15363TIP3    H167504   1.828   1.878  15.092 -0.0784 -0.6018 -1.1798
15363TIP3    H267505   1.708   1.920  15.010 -0.0055  2.5408  0.1699
15364TIP3   OH267506   4.233   6.011  12.554  0.1987  0.4735  0.1989
15364TIP3    H167507   4.269   5.924  12.573  1.9071  1.3098  0.9801
15364TIP3    H267508   4.190   6.000  12.470  2.2729 -0.6538 -0.8103
15365TIP3   OH267509   3.455   2.415  15.190  0.7403 -0.3355 -0.2509
15365TIP3    H167510   3.395   2.340  15.184  0.5276 -0.1259 -0.8000
15365TIP3    H267511   3.528   2.391  15.133  0.6736 -0.1285 -0.4234
15366TIP3   OH267512   3.442   6.604  11.609  0.2609  0.1035  0.4104
15366TIP3    H167513   3.505   6.562  11.668 -0.7072 -0.3539  1.1260
15366TIP3    H267514   3.383   6.534  11.583 -0.1347  0.5977 -0.0287
15367TIP3   OH267515   3.170   0.631  12.252 -0.0027  0.2429 -0.6863
15367TIP3    H167516   3.125   0.568  12.195  1.5349  0.1386 -1.8630
15367TIP3    H267517   3.251   0.587  12.276  0.8686  1.5578 -1.1065
15368TIP3   OH267518   3.257   4.990   3.988  0.2772  0.0165 -0.1458
15368TIP3    H167519   3.337   4.944   4.013  1.3546  1.2713 -1.1557
15368TIP3    H267520   3.262   5.074   4.034  0.2595  0.6629 -1.2734
15369TIP3   OH267521   2.365   5.311   5.612 -0.7982  0.5979  0.1152
15369TIP3    H167522   2.295   5.249   5.633 -0.6911  0.5761  0.4079
15369TIP3    H267523   2.437   5.257   5.581 -0.5007  0.5275  0.9138
15370TIP3   OH267524   6.254   2.260  14.385  0.0454  0.0332  0.4736
15370TIP3    H167525   6.312   2.316  14.437 -1.5453  1.2392  1.0152
15370TIP3    H267526   6.283   2.273  14.295 -0.4106  1.9395  0.5608
15371TIP3   OH267527   0.119   4.853  14.293 -0.0458  0.3851  0.4952
15371TIP3    H167528   0.120   4.948  14.285  0.1382  0.3133 -0.3830
15371TIP3    H267529   0.150   4.821  14.208 -0.6873 -0.4675  0.5703
15372TIP3   OH267530   2.021   2.520  14.104 -0.3960  0.1325 -0.2230
15372TIP3    H167531   2.012   2.546  14.196 -0.1652 -2.0770  0.4924
15372TIP3    H267532   2.113   2.538  14.084  0.0582 -1.1329  0.6138
15373TIP3   OH267533   2.433   5.087  11.217 -0.8911 -0.4391  0.2941
15373TIP3    H167534   2.427   5.057  11.308 -1.9283  0.2451  0.4629
15373TIP3    H267535   2.497   5.158  11.220 -0.1740 -1.0592  0.2920
15374TIP3   OH267536   3.545   4.422  13.143  0.3176 -0.2437  0.1437
15374TIP3    H167537   3.540   4.423  13.239 -2.8513 -3.2525  0.1968
15374TIP3    H267538   3.595   4.343  13.123 -1.3819 -1.1633 -0.6185
15375TIP3   OH267539   6.103   3.370  16.980  0.0315 -0.0620  0.0109
15375TIP3    H167540   6.194   3.398  16.973 -0.0512  0.0592 -0.6069
15375TIP3    H267541   6.103   3.280  16.949  0.0495 -0.2904  0.6469
15376TIP3   OH267542   0.045   3.330   0.732 -1.3457  0.8748  0.3829
15376TIP3    H167543   0.061   3.422   0.757 -1.7415  0.7665  1.0683
15376TIP3    H267544   0.127   3.285   0.753 -1.0455  1.1134 -0.2294
15377TIP3   OH267545   5.487   6.183   4.438  0.2030  0.1368 -0.6886
15377TIP3    H167546   5.419   6.120   4.462  0.0786  0.5960  0.2353
15377TIP3    H267547   5.550   6.132   4.386 -0.6528 -0.3759 -1.2379
15378TIP3   OH267548   1.824   5.707   5.682 -0.2735  0.5972  0.2423
15378TIP3    H167549   1.905   5.670   5.716  0.0053  0.7856 -0.2003
15378TIP3    H267550   1.809   5.659   5.600 -0.7116  0.4320  0.4158
15379TIP3   OH267551   3.110   6.017  17.005  0.1401 -0.1446  0.3889
15379TIP3    H167552   3.203   6.030  16.986 -0.1596 -0.0894 -1.2079
15379TIP3    H267553   3.096   5.923  16.992 -0.2208  0.0110 -0.4089
15380TIP3   OH267554   0.467   3.933  14.820 -0.1188  0.2380  0.1269
15380TIP3    H167555   0.417   4.006  14.784 -0.4819  0.1227  0.3906
15380TIP3    H267556   0.544   3.926  14.764 -0.1118  0.7854  0.0666
15381TIP3   OH267557   3.969   1.663  10.718 -0.0991  0.3301 -0.6170
15381TIP3    H167558   3.942   1.753  10.734  2.1083  0.7098  1.3562
15381TIP3    H267559   3.981   1.658  10.623 -0.9870  1.8496 -0.8397
15382TIP3   OH267560   4.100   2.629   3.682  0.3730 -0.2973  0.2106
15382TIP3    H167561   4.193   2.645   3.666  0.1610 -0.8177 -1.7339
15382TIP3    H267562   4.098   2.554   3.742  1.1975  0.7620  1.6224
15383TIP3   OH267563   2.065   5.570  11.520 -0.3829 -0.4842 -0.2451
15383TIP3    H167564   2.051   5.622  11.440 -3.2897 -0.2541  0.2988
15383TIP3    H267565   2.122   5.626  11.574 -0.4931  0.5150 -1.1120
15384TIP3   OH267566   3.378   2.406   5.205  0.0617 -0.2349  0.4945
15384TIP3    H167567   3.417   2.463   5.271 -1.3471  0.8101  0.4768
15384TIP3    H267568   3.291   2.443   5.190 -0.3912 -1.6187 -0.5116
15385TIP3   OH267569   2.146   4.190   0.138 -0.0103  0.4132 -0.6423
15385TIP3    H167570   2.172   4.098   0.142  0.0140  0.4392 -0.0858
15385TIP3    H267571   2.166   4.217   0.049  1.4657  0.3198 -0.3583
15386TIP3   OH267572   1.908   1.220   1.329  0.2496  0.0601  0.7146
15386TIP3    H167573   1.892   1.196   1.238 -0.9538  1.0607  0.6423
15386TIP3    H267574   1.948   1.142   1.367  0.2209 -0.5829 -0.5217
15387TIP3   OH267575   0.082   1.896   0.978  0.0836  0.0827 -0.2046
15387TIP3    H167576   0.140   1.821   0.993  0.2277  0.4417  1.1484
15387TIP3    H267577  -0.006   1.858   0.982  0.1703 -0.1302 -0.2731
15388TIP3   OH267578   0.434   3.497   3.989 -0.0699 -0.8426  0.0573
15388TIP3    H167579   0.522   3.532   4.002 -0.3795  0.6209 -1.4410
15388TIP3    H267580   0.384   3.530   4.063  0.3902 -0.7957  0.3520
15389TIP3   OH267581   0.360   3.966  16.256  0.2202  0.4242 -0.2047
15389TIP3    H167582   0.435   4.022  16.277  0.0124  0.8732 -0.6397
15389TIP3    H267583   0.365   3.895  16.320  0.6165  0.8193  0.2138
15390TIP3   OH267584   1.431   2.203   1.788 -0.4141  0.4071  0.9405
15390TIP3    H167585   1.521   2.196   1.820  0.1129 -1.4956 -0.7161
15390TIP3    H267586   1.376   2.185   1.864  0.7144 -2.1397  1.2412
15391TIP3   OH267587   2.575   4.400  11.196 -0.1971  0.7058 -0.1444
15391TIP3    H167588   2.491   4.367  11.162  0.2481 -0.5999 -0.0462
15391TIP3    H267589   2.556   4.489  11.224 -1.1027  1.0805 -1.8426
15392TIP3   OH267590   2.500   0.614   4.026  0.1076 -0.2716  0.2177
15392TIP3    H167591   2.458   0.571   4.100  1.7159 -1.3529  0.5576
15392TIP3    H267592   2.497   0.707   4.047 -0.3828 -0.4916  1.1442
15393TIP3   OH267593   5.442   0.672   6.610 -0.4187  0.1280 -0.2355
15393TIP3    H167594   5.351   0.655   6.636 -0.5292  0.4847 -0.3893
15393TIP3    H267595   5.492   0.603   6.654 -0.9522 -1.1049 -1.4802
15394TIP3   OH267596   0.801   6.002  13.313  0.2634 -0.4035  0.1107
15394TIP3    H167597   0.857   5.948  13.257  0.8030 -1.6285  1.7787
15394TIP3    H267598   0.859   6.039  13.378 -0.5338  0.0717  0.5728
15395TIP3   OH267599   1.300   6.759   5.823  0.1960 -0.3267  0.4321
15395TIP3    H167600   1.266   6.812   5.895 -1.6618 -0.1183 -0.5344
15395TIP3    H267601   1.297   6.669   5.855 -1.1198 -0.2883  0.4345
15396TIP3   OH267602   0.097   1.515  12.380  0.0760 -0.3602 -0.6015
15396TIP3    H167603   0.186   1.479  12.375  0.9614  1.6427 -0.1713
15396TIP3    H267604   0.088   1.546  12.470 -1.1550 -0.7215 -0.5811
15397TIP3   OH267605   6.356   1.334   6.106 -0.6808  0.4888  0.2987
15397TIP3    H167606   6.389   1.419   6.076  1.0227  0.2617  1.3597
15397TIP3    H267607   6.360   1.339   6.201 -2.4123 -0.1195  0.4360
15398TIP3   OH267608   2.280   5.667   1.052 -0.6385 -0.1925  0.4037
15398TIP3    H167609   2.304   5.683   0.960 -0.7272 -0.7689  0.2721
15398TIP3    H267610   2.288   5.752   1.094  0.2942 -0.1011  0.0600
15399TIP3   OH267611   0.231   1.040  16.403  0.7566  0.2616 -0.0164
15399TIP3    H167612   0.204   0.981  16.332 -0.1863 -0.2129  0.7218
15399TIP3    H267613   0.214   1.127  16.369 -0.1156  0.0234 -0.2197
15400TIP3   OH267614   0.735   2.399  12.840 -0.7385 -0.1898  0.1598
15400TIP3    H167615   0.683   2.425  12.917 -1.0360  1.0625 -0.4314
15400TIP3    H267616   0.678   2.338  12.792 -2.1787  1.9409 -1.0173
15401TIP3   OH267617   1.156   0.867  12.885  0.3801  0.4927  0.6281
15401TIP3    H167618   1.150   0.895  12.793 -1.0092  0.2171  0.6021
15401TIP3    H267619   1.158   0.949  12.935 -2.5329  0.7808  0.4929
15402TIP3   OH267620   5.268   5.460   0.945 -0.3547 -0.1897 -0.0648
15402TIP3    H167621   5.328   5.395   0.982  1.6953  0.7352 -1.5653
15402TIP3    H267622   5.209   5.410   0.890  0.3795 -0.9233 -0.2113
15403TIP3   OH267623   3.140   6.319   4.138 -0.0146 -0.0390 -0.2689
15403TIP3    H167624   3.082   6.354   4.070 -1.0094 -1.2916 -0.1025
15403TIP3    H267625   3.081   6.288   4.206  0.9567  0.6754  0.9354
15404TIP3   OH267626   0.175   3.266   3.982 -0.2714  0.1252  0.4183
15404TIP3    H167627   0.156   3.252   3.889  0.4138 -1.7852  0.5273
15404TIP3    H267628   0.270   3.277   3.986 -0.1579 -0.9435  0.9934
15405TIP3   OH267629   0.477   4.487   0.395 -0.0179 -0.3790 -0.0300
15405TIP3    H167630   0.393   4.445   0.378  0.6140 -1.1867 -1.3134
15405TIP3    H267631   0.470   4.520   0.485 -0.7889 -2.7062  0.8416
15406TIP3   OH267632   1.428   3.122  15.419 -0.1018 -0.2360  0.2713
15406TIP3    H167633   1.440   3.217  15.431  1.9950 -0.3132 -0.7955
15406TIP3    H267634   1.333   3.112  15.405 -0.1238  2.0656 -2.2279
15407TIP3   OH267635   0.314   0.927   0.902  0.2018  0.8617 -0.2923
15407TIP3    H167636   0.372   0.893   0.971 -0.3763  0.4051 -0.0215
15407TIP3    H267637   0.226   0.909   0.935 -0.0871  1.1875 -0.8856
15408TIP3   OH267638   3.384   3.056  12.124  0.4184  0.3746 -0.5674
15408TIP3    H167639   3.408   3.004  12.201  0.6637 -0.0724 -0.9353
15408TIP3    H267640   3.291   3.039  12.112  0.2593  0.8631 -0.0632
15409TIP3   OH267641   1.731   6.630  13.146  0.4410 -0.2477  0.3637
15409TIP3    H167642   1.823   6.616  13.124  0.0739  0.1887 -1.6293
15409TIP3    H267643   1.699   6.689  13.078 -1.2665 -0.2097  1.1564
15410TIP3   OH267644   1.074   5.426   3.818 -0.0790  0.1890  0.2490
15410TIP3    H167645   1.148   5.370   3.841  1.6331  2.2656  0.0478
15410TIP3    H267646   0.997   5.379   3.852  1.3999 -1.5356  1.3908
15411TIP3   OH267647   3.842   5.732   4.501  0.7103  0.6017  0.1851
15411TIP3    H167648   3.920   5.690   4.463 -0.7460 -0.6512 -1.6314
15411TIP3    H267649   3.813   5.793   4.434 -0.2845  0.4959  0.5052
15412TIP3   OH267650   6.336   6.628  14.470  0.1734 -0.1314  0.0220
15412TIP3    H167651   6.394   6.553  14.477  1.4716  0.7049 -1.0906
15412TIP3    H267652   6.258   6.595  14.426  2.0094 -0.2985 -3.4715
15413TIP3   OH267653   4.462   5.781  12.956 -0.0272  0.5432 -0.0102
15413TIP3    H167654   4.532   5.721  12.981  0.2126  0.5245 -0.7183
15413TIP3    H267655   4.441   5.758  12.866 -1.6170 -0.1091  0.4805
15414TIP3   OH267656   1.234   2.682  12.257 -0.5341  0.4369  0.1818
15414TIP3    H167657   1.142   2.672  12.281 -0.9380 -0.5419 -1.5999
15414TIP3    H267658   1.278   2.700  12.340 -2.3610  1.3521  1.0223
15415TIP3   OH267659   4.967   1.250  13.406  1.1385 -0.3336  0.1698
15415TIP3    H167660   5.049   1.299  13.400  0.9417  0.4699  2.9417
15415TIP3    H267661   4.993   1.163  13.437  0.9208  0.1045  1.6214
15416TIP3   OH267662   6.625   6.642   2.167  0.0004  0.0101  0.2216
15416TIP3    H167663   6.535   6.644   2.200  0.3442 -0.0649  1.1856
15416TIP3    H267664   6.673   6.589   2.230  0.8376  0.4787 -0.0052
15417TIP3   OH267665   3.948   5.418  13.265  0.1372  0.4703  0.3947
15417TIP3    H167666   4.006   5.387  13.334 -0.6807 -0.0036  0.8929
15417TIP3    H267667   3.864   5.376  13.284 -0.1187  0.3876 -0.8593
15418TIP3   OH267668   5.039   4.036  12.286 -0.1795  0.7147  0.4733
15418TIP3    H167669   5.009   3.962  12.338 -0.9704  0.7660  0.1040
15418TIP3    H267670   5.100   4.082  12.343  0.1805 -0.1075  0.7739
15419TIP3   OH267671   3.993   4.303  14.694 -0.0668 -0.8236 -0.0396
15419TIP3    H167672   4.025   4.367  14.758 -1.7502 -0.4729  0.4819
15419TIP3    H267673   4.060   4.234  14.694  1.3177  0.4521  0.0842
15420TIP3   OH267674   1.431   4.233   3.809 -0.4925  0.4626  0.1699
15420TIP3    H167675   1.456   4.146   3.839 -0.6988  0.3912  0.1394
15420TIP3    H267676   1.360   4.259   3.868 -1.6706 -0.1457 -0.9334
15421TIP3   OH267677   4.309   6.613  16.582  0.3270 -0.3687  0.2998
15421TIP3    H167678   4.258   6.544  16.623 -0.3064  0.3505  0.7501
15421TIP3    H267679   4.303   6.595  16.488 -0.4966 -0.4648  0.3686
15422TIP3   OH267680   6.018   5.628   1.959 -0.4454 -0.2305  0.6769
15422TIP3    H167681   6.003   5.697   2.024  0.4476 -0.7801  1.5039
15422TIP3    H267682   6.017   5.547   2.010 -1.8256 -0.8717 -0.3356
15423TIP3   OH267683   6.112   6.197   0.874 -0.0674  0.0289 -0.3195
15423TIP3    H167684   6.148   6.112   0.851 -1.3264 -1.2727  2.0872
15423TIP3    H267685   6.173   6.234   0.937 -0.4162  0.0831 -0.0053
15424TIP3   OH267686   6.508   3.397  16.533  0.0584  0.1423 -0.0152
15424TIP3    H167687   6.561   3.476  16.548  0.2431 -0.2505  1.6264
15424TIP3    H267688   6.434   3.428  16.481  0.5450  1.2441 -0.0868
15425TIP3   OH267689   1.975   5.373  12.952 -0.0714 -0.6057  0.2985
15425TIP3    H167690   2.067   5.349  12.965 -0.2324 -0.0065  3.0924
15425TIP3    H267691   1.978   5.448  12.893  1.4317  0.5799  1.7815
15426TIP3   OH267692   6.569   6.810   4.468  0.1951  0.2937 -0.3707
15426TIP3    H167693   6.474   6.807   4.465  0.2141 -0.3245 -0.7353
15426TIP3    H267694   6.591   6.817   4.561 -0.1914 -0.8971 -0.1697
15427TIP3   OH267695   5.857   6.455  12.070  0.0021  0.4327 -0.2615
15427TIP3    H167696   5.895   6.408  11.996  0.2272  0.5436 -0.2156
15427TIP3    H267697   5.866   6.547  12.048 -0.8132  0.4564 -0.5365
15428TIP3   OH267698   5.548   2.796   1.236 -0.2567 -0.0749  0.7091
15428TIP3    H167699   5.526   2.841   1.155 -1.0212  0.2688  1.0979
15428TIP3    H267700   5.607   2.726   1.209  0.1878  0.5609 -0.0288
15429TIP3   OH267701   1.502   1.721  15.358  0.4450 -0.1625 -0.3027
15429TIP3    H167702   1.564   1.683  15.420 -0.2948  1.0921  1.2879
15429TIP3    H267703   1.532   1.811  15.345 -1.5440  0.8060  1.3179
15430TIP3   OH267704   4.166   5.897   4.274 -0.8526 -0.0818 -0.0491
15430TIP3    H167705   4.218   5.835   4.326  0.2265  0.9591  0.1405
15430TIP3    H267706   4.130   5.844   4.203  1.2956 -0.6736 -0.7795
15431TIP3   OH267707   2.367   6.711  13.258  0.4230 -0.0201  0.0539
15431TIP3    H167708   2.287   6.758  13.284  1.6979  0.8678  2.7625
15431TIP3    H267709   2.366   6.632  13.313  0.9710 -0.4554 -0.5577
15432TIP3   OH267710   5.242   1.942  15.643 -0.6134  0.0501  0.2367
15432TIP3    H167711   5.304   1.933  15.716 -0.8620  0.1220  0.4582
15432TIP3    H267712   5.195   2.023  15.661 -0.5646  0.1552 -0.0944
15433TIP3   OH267713   6.586   6.309   1.732 -0.0946 -0.0437  0.2325
15433TIP3    H167714   6.514   6.370   1.743 -0.0054  0.0672  0.2055
15433TIP3    H267715   6.585   6.286   1.639  0.6725  0.9203 -0.0235
15434TIP3   OH267716   3.975   6.498   4.461  0.2329 -0.6596 -0.3482
15434TIP3    H167717   4.045   6.474   4.400  1.3324  0.8833  0.2489
15434TIP3    H267718   4.017   6.503   4.546 -0.3596  1.1820 -0.1135
15435TIP3   OH267719   4.153   6.300  13.619 -0.2292  0.0398  0.4774
15435TIP3    H167720   4.102   6.302  13.700 -1.5967  1.2946 -0.3762
15435TIP3    H267721   4.090   6.279  13.551 -0.1808  3.6888 -0.9258
15436TIP3   OH267722   2.744   3.156  13.246  0.1933 -0.2630 -0.8026
15436TIP3    H167723   2.684   3.214  13.293  0.6968  0.0512 -0.5447
15436TIP3    H267724   2.722   3.068  13.278  0.1368 -0.1100 -0.4156
15437TIP3   OH267725   5.999   6.078  12.776 -0.6282  0.3557  0.4195
15437TIP3    H167726   6.041   6.101  12.694 -1.1454 -0.8000 -0.2008
15437TIP3    H267727   5.906   6.071  12.754 -0.7694  0.0309  1.0982
15438TIP3   OH267728   1.004   4.978  11.780 -0.1244  0.2417  0.8402
15438TIP3    H167729   1.019   5.062  11.736  0.7197  0.1057  0.8377
15438TIP3    H267730   1.082   4.926  11.758 -0.6087 -0.5190  0.8900
15439TIP3   OH267731   0.928   5.055   2.619 -0.2691 -0.1917  0.1524
15439TIP3    H167732   0.918   4.959   2.618 -1.3136 -0.1248  1.5410
15439TIP3    H267733   0.841   5.088   2.639  0.3966  0.9963  1.2330
15440TIP3   OH267734   2.079   6.307   1.717 -0.2167 -0.1548  0.0008
15440TIP3    H167735   2.113   6.252   1.789 -0.2227  0.1296  0.2231
15440TIP3    H267736   1.985   6.310   1.732 -0.2834 -0.5375 -0.3318
15441TIP3   OH267737   2.774   0.500   3.239  0.3132 -0.3325 -0.6665
15441TIP3    H167738   2.701   0.495   3.178 -1.0567  0.1115  0.8641
15441TIP3    H267739   2.783   0.594   3.258  1.2320 -0.3927 -0.7480
15442TIP3   OH267740   3.505   5.018  14.136  0.4700  0.6337  0.1115
15442TIP3    H167741   3.574   5.046  14.076  1.4264 -1.2383  0.2524
15442TIP3    H267742   3.552   4.984  14.212 -0.5558 -0.9364  0.1036
15443TIP3   OH267743   1.183   3.969  14.011  0.2157 -0.1574 -0.5854
15443TIP3    H167744   1.095   4.008  14.007  0.5567  0.8452  1.1692
15443TIP3    H267745   1.167   3.875  13.998 -1.0467  0.0784 -0.9214
15444TIP3   OH267746   4.382   5.658  15.541  0.2445  0.0636  0.3680
15444TIP3    H167747   4.470   5.627  15.518  0.1184  0.7277 -1.0966
15444TIP3    H267748   4.388   5.754  15.535 -0.1752  0.2025  1.8252
15445TIP3   OH267749   6.347   5.603   4.805  0.1970  0.2200 -0.5337
15445TIP3    H167750   6.269   5.581   4.856 -0.7099  1.0151 -1.5272
15445TIP3    H267751   6.325   5.577   4.716  1.6789 -0.9673 -0.6085
15446TIP3   OH267752   3.697   4.486   5.874 -0.0234 -0.2365 -0.1927
15446TIP3    H167753   3.713   4.430   5.950  0.7523 -1.8075 -1.4508
15446TIP3    H267754   3.785   4.503   5.838 -0.4222 -0.1543 -1.1657
15447TIP3   OH267755   6.574   4.715  16.121 -0.4683  0.0484  0.0230
15447TIP3    H167756   6.665   4.738  16.138 -0.5971  0.9998 -0.4858
15447TIP3    H267757   6.578   4.652  16.048 -0.2726  1.1147 -0.9141
15448TIP3   OH267758   0.214   6.090  14.392 -0.5121 -0.7058 -0.0175
15448TIP3    H167759   0.201   6.183  14.375  0.1896 -0.4459  0.8018
15448TIP3    H267760   0.201   6.081  14.487 -0.2088 -1.3727 -0.0332
15449TIP3   OH267761   1.471   3.672  11.151  0.1136  0.4858 -0.3246
15449TIP3    H167762   1.562   3.648  11.170  0.5028  1.8137 -0.3509
15449TIP3    H267763   1.478   3.761  11.116 -1.0848  0.1350 -1.5340
15450TIP3   OH267764   6.394   4.637  10.371  0.6029 -0.3967  0.6413
15450TIP3    H167765   6.414   4.601  10.285  1.2869  1.0478  0.1612
15450TIP3    H267766   6.473   4.685  10.396  0.8796 -1.7617  2.6417
15451TIP3   OH267767   2.962   5.503  12.506 -0.2230  0.2090 -0.2521
15451TIP3    H167768   2.931   5.586  12.542  0.6803  0.5545 -0.2423
15451TIP3    H267769   3.020   5.528  12.434 -1.3148 -0.4589 -1.3950
15452TIP3   OH267770   4.323   0.641  14.230 -0.1524 -0.2475 -0.4761
15452TIP3    H167771   4.360   0.676  14.149 -2.0513 -3.1693 -2.8468
15452TIP3    H267772   4.388   0.577  14.260 -0.4143 -0.7891 -1.0303
15453TIP3   OH267773   0.615   6.685   0.271  0.0234  0.2961 -0.0126
15453TIP3    H167774   0.630   6.633   0.192  1.9935 -0.0929  0.5669
15453TIP3    H267775   0.520   6.690   0.279 -0.4725  3.3026 -4.3139
15454TIP3   OH267776   5.807   5.252   1.386 -0.0955 -0.6956  0.0451
15454TIP3    H167777   5.877   5.205   1.340 -0.1422  0.3864 -1.2272
15454TIP3    H267778   5.744   5.185   1.410  0.3886 -1.4289 -0.6702
15455TIP3   OH267779   4.188   3.042  15.803  0.7860  0.2742  0.4782
15455TIP3    H167780   4.248   3.019  15.732  0.3218  2.1096 -0.5666
15455TIP3    H267781   4.235   3.018  15.883  2.2176  0.1485 -0.3703
15456TIP3   OH267782   4.949   5.465  16.263 -0.7273  0.4818  0.2909
15456TIP3    H167783   4.881   5.532  16.273 -1.8846 -0.1701 -2.3036
15456TIP3    H267784   4.901   5.384  16.243  0.7565 -0.2945 -0.3409
15457TIP3   OH267785   0.848   6.076   0.701  0.3858 -0.3199 -0.0806
15457TIP3    H167786   0.784   6.052   0.634  2.3369  0.1367 -2.2226
15457TIP3    H267787   0.834   6.012   0.772 -0.8197 -1.7221 -1.5186
15458TIP3   OH267788   3.968   4.522   5.935  0.6078 -0.0198  0.2447
15458TIP3    H167789   3.894   4.524   5.995  1.5402  0.2910  1.4133
15458TIP3    H267790   4.042   4.493   5.988  1.1568 -1.2409 -1.1201
15459TIP3   OH267791   3.369   3.135  16.118  0.3328  0.4355  0.1119
15459TIP3    H167792   3.430   3.103  16.052  0.8720  0.4398  0.6023
15459TIP3    H267793   3.323   3.057  16.148 -1.3047  0.6560 -1.6191
15460TIP3   OH267794   1.930   6.050  13.635 -0.5195 -0.0694  0.3352
15460TIP3    H167795   1.896   6.031  13.548 -0.2566  0.6490  0.0697
15460TIP3    H267796   1.878   6.125  13.664 -1.4897 -1.0742  1.3286
15461TIP3   OH267797   2.598   3.982   4.734  0.6218 -0.6485  0.3807
15461TIP3    H167798   2.576   4.017   4.820 -0.7061  0.0031 -0.1984
15461TIP3    H267799   2.629   4.057   4.684 -1.4235 -0.3763 -0.6002
15462TIP3   OH267800   6.426   3.660   4.036  0.3104 -0.6518 -0.1175
15462TIP3    H167801   6.334   3.656   4.008  0.4980  0.1645 -0.9086
15462TIP3    H267802   6.442   3.576   4.079 -0.9158 -0.6499  0.3861
15463TIP3   OH267803   2.101   3.326  13.560  0.6946  0.1438 -0.1046
15463TIP3    H167804   2.058   3.241  13.550  0.2655  0.0766  1.8806
15463TIP3    H267805   2.113   3.358  13.470 -0.7473 -1.1979 -0.8161
15464TIP3   OH267806   5.117   6.737  12.957  0.0750  0.1855  0.0986
15464TIP3    H167807   5.066   6.708  12.882  1.6485  0.4772 -1.1230
15464TIP3    H267808   5.158   6.819  12.929 -0.7873  1.3418  1.9516
15465TIP3   OH267809   3.727   2.651  15.502 -0.5555 -0.3834 -0.4057
15465TIP3    H167810   3.784   2.697  15.440 -0.7434  0.9203  0.3397
15465TIP3    H267811   3.785   2.629  15.575 -0.2234 -2.3446 -1.1956
15466TIP3   OH267812   2.913   4.780  10.663  0.0283  0.3534  0.1875
15466TIP3    H167813   2.841   4.812  10.609 -1.7062 -0.7457  1.7402
15466TIP3    H267814   2.917   4.686  10.645  0.4998  0.2542  0.7612
15467TIP3   OH267815   5.300   2.053   6.425 -1.1693 -0.6696  0.3535
15467TIP3    H167816   5.212   2.066   6.459 -1.5636 -2.0384 -0.0732
15467TIP3    H267817   5.311   1.958   6.421  0.0142 -0.5324 -0.3813
15468TIP3   OH267818   1.175   5.937   4.268  0.3031  0.3021  0.2597
15468TIP3    H167819   1.122   5.917   4.345  2.7049 -1.1236  1.6701
15468TIP3    H267820   1.226   6.014   4.293  0.7066  0.1562 -0.1116
15469TIP3   OH267821   0.252   2.685  14.708 -0.2786  0.2558  0.4342
15469TIP3    H167822   0.180   2.674  14.769 -0.6427 -0.1246 -0.0588
15469TIP3    H267823   0.330   2.664  14.759 -0.5980 -0.2932  0.7012
15470TIP3   OH267824   4.457   1.036  10.238 -0.3864  0.5159 -0.2340
15470TIP3    H167825   4.456   0.958  10.293  0.7401 -0.4863 -1.5905
15470TIP3    H267826   4.543   1.075  10.252 -0.4138  0.7280 -0.6328
15471TIP3   OH267827   5.810   2.866  11.800  0.1605  0.3578 -1.1120
15471TIP3    H167828   5.722   2.904  11.790 -0.3457 -0.8963 -1.6836
15471TIP3    H267829   5.825   2.865  11.894 -0.2354  1.0274 -1.0347
15472TIP3   OH267830   2.243   2.423  13.801 -0.4481 -0.3022  0.1945
15472TIP3    H167831   2.335   2.411  13.775 -0.9193  0.5094 -2.1392
15472TIP3    H267832   2.241   2.510  13.841 -0.5516  0.8514 -2.1254
15473TIP3   OH267833   0.710   5.412  16.212  0.5722 -0.6337 -0.0102
15473TIP3    H167834   0.678   5.322  16.221  0.8896 -0.5924  2.1853
15473TIP3    H267835   0.728   5.440  16.302  1.1635  1.3904 -0.6991
15474TIP3   OH267836   1.509   2.503   4.082  0.3318 -0.1711  0.3314
15474TIP3    H167837   1.579   2.461   4.132 -0.5218 -1.1705  0.7273
15474TIP3    H267838   1.553   2.544   4.007  1.3474 -0.6338  0.6647
15475TIP3   OH267839   3.443   2.641   4.955  0.7267  0.5910  0.2736
15475TIP3    H167840   3.498   2.603   5.023  1.0679 -1.0159 -0.8472
15475TIP3    H267841   3.354   2.612   4.976  1.0970 -1.7744 -1.0963
15476TIP3   OH267842   6.818   3.514  14.610 -0.2522 -0.0872 -0.7249
15476TIP3    H167843   6.888   3.572  14.579  0.2441  0.0706  0.6048
15476TIP3    H267844   6.818   3.526  14.705 -2.6697  0.5506 -0.7320
15477TIP3   OH267845   6.703   3.048   3.838  0.2108  0.5953  0.4276
15477TIP3    H167846   6.783   3.085   3.800  0.3722 -0.2604 -0.0981
15477TIP3    H267847   6.709   3.069   3.932  1.9082 -0.8910  0.7043
15478TIP3   OH267848   3.623   4.133   6.116 -0.1786  0.2058  0.4487
15478TIP3    H167849   3.695   4.196   6.126  0.4120 -0.1851 -1.0720
15478TIP3    H267850   3.652   4.056   6.165  0.0388  0.3736  0.5893
15479TIP3   OH267851   1.345   6.367   1.940  0.2108  0.4142  0.5860
15479TIP3    H167852   1.261   6.386   1.982 -1.4567  2.7357 -3.1713
15479TIP3    H267853   1.325   6.295   1.879  0.5768  1.6107 -1.0256
15480TIP3   OH267854   2.137   1.914  14.087 -0.0444 -0.5077  0.6750
15480TIP3    H167855   2.067   1.962  14.131  0.3522  0.1749  0.5728
15480TIP3    H267856   2.181   1.980  14.033 -1.4311 -1.5864 -1.9253
15481TIP3   OH267857   2.272   2.238  15.543  0.0943  0.3319 -0.1653
15481TIP3    H167858   2.346   2.276  15.590  0.0953  0.7273 -0.4840
15481TIP3    H267859   2.202   2.232  15.608  0.2649  0.3741  0.0207
15482TIP3   OH267860   3.982   2.493  15.410 -0.2305 -0.2225  0.0874
15482TIP3    H167861   3.890   2.467  15.401 -0.8677  1.0165  2.3059
15482TIP3    H267862   3.997   2.554  15.338 -0.0797 -2.8981 -2.3244
15483TIP3   OH267863   6.578   4.282  14.551  0.0693 -0.1036  0.4061
15483TIP3    H167864   6.613   4.365  14.584  1.1765 -0.3814 -0.0287
15483TIP3    H267865   6.490   4.278  14.586  0.9610 -0.0900  2.8469
15484TIP3   OH267866   5.613   1.699   5.218  0.6695 -0.0720  0.0033
15484TIP3    H167867   5.543   1.722   5.279  1.5982 -0.4371  1.2715
15484TIP3    H267868   5.635   1.608   5.241  0.5686 -0.4649 -1.3772
15485TIP3   OH267869   1.136   0.376  12.054  1.0479  0.2990 -0.1819
15485TIP3    H167870   1.104   0.300  12.006  0.7088  0.1879  0.2229
15485TIP3    H267871   1.068   0.395  12.118  1.0610  1.0351 -0.3774
15486TIP3   OH267872   5.402   6.065  11.437  0.5287 -0.3694 -0.7046
15486TIP3    H167873   5.324   6.013  11.453 -1.0585  1.7374 -1.1459
15486TIP3    H267874   5.389   6.102  11.350  0.2761  2.7294  0.5240
15487TIP3   OH267875   3.271   2.033  14.052 -0.4601  0.0419 -0.2518
15487TIP3    H167876   3.262   2.095  14.125 -1.2990 -0.6751  0.2732
15487TIP3    H267877   3.182   2.016  14.023 -0.1959 -0.4433 -0.8035
15488TIP3   OH267878   1.830   1.364   1.781  0.1581 -0.2738 -0.0416
15488TIP3    H167879   1.799   1.344   1.693  1.2915 -0.4552 -0.4194
15488TIP3    H267880   1.834   1.279   1.825  2.2789 -0.5986 -0.7452
15489TIP3   OH267881   6.466   6.530  11.829  0.1331 -0.0890  0.3529
15489TIP3    H167882   6.553   6.569  11.831 -0.2239  0.7053  0.6452
15489TIP3    H267883   6.408   6.602  11.803 -0.3787 -0.7238 -0.3185
15490TIP3   OH267884   2.387   2.182  15.058  0.5246  0.2274 -0.4349
15490TIP3    H167885   2.345   2.143  15.134  1.6799 -0.5412 -0.1758
15490TIP3    H267886   2.371   2.276  15.067  0.2818  0.0994  0.5082
15491TIP3   OH267887   3.420   1.398   0.622  0.5750 -0.2022  0.1352
15491TIP3    H167888   3.461   1.312   0.637  1.4657  0.3116  0.7726
15491TIP3    H267889   3.393   1.426   0.709  0.8935  0.4502  0.0284
15492TIP3   OH267890   5.184   6.596   1.017  0.5475  0.5883 -0.6934
15492TIP3    H167891   5.195   6.532   0.946  2.2509  2.0777 -1.8558
15492TIP3    H267892   5.255   6.576   1.078 -0.0684  0.1968 -0.0949
15493TIP3   OH267893   1.908   4.254  13.894 -0.1334  0.5621 -0.9784
15493TIP3    H167894   1.976   4.232  13.957 -1.1184  1.0267  0.2932
15493TIP3    H267895   1.871   4.169  13.869  0.8027  0.3170 -1.5803
15494TIP3   OH267896   4.380   1.663   0.167  0.5187 -0.0299 -0.0400
15494TIP3    H167897   4.325   1.654   0.089  1.0324  0.6664 -0.4961
15494TIP3    H267898   4.429   1.581   0.171  0.9326  0.1666 -0.8140
15495TIP3   OH267899   4.368   4.365   5.427 -0.2125  0.1376 -0.1232
15495TIP3    H167900   4.442   4.332   5.376  0.3194  1.1794 -0.0428
15495TIP3    H267901   4.359   4.456   5.400  0.2534  0.8130  1.8259
15496TIP3   OH267902   2.817   5.491  14.092 -0.1599  0.8254  0.5681
15496TIP3    H167903   2.780   5.580  14.089 -1.0903  0.4173 -1.2700
15496TIP3    H267904   2.768   5.442  14.026  0.7886 -0.9057  1.0803
15497TIP3   OH267905   1.144   4.936  16.373 -0.3031 -0.0842 -0.1700
15497TIP3    H167906   1.087   4.933  16.296 -0.6361  1.1072 -0.0030
15497TIP3    H267907   1.089   4.902  16.444  0.0510 -1.3164 -0.4636
15498TIP3   OH267908   3.373   0.824   2.207  0.2391 -0.5211 -0.7228
15498TIP3    H167909   3.324   0.814   2.289  0.6652  1.5950 -0.1452
15498TIP3    H267910   3.465   0.817   2.233  0.3549 -0.9268 -1.2187
15499TIP3   OH267911   0.936   6.090   2.687  0.1900  0.4402 -0.5096
15499TIP3    H167912   1.031   6.099   2.679 -0.0188  2.7762 -1.2536
15499TIP3    H267913   0.921   6.068   2.779  1.4161  0.8834 -0.1833
15500TIP3   OH267914   2.768   0.112   1.935  0.9769 -0.0446 -0.0978
15500TIP3    H167915   2.864   0.111   1.944  0.8810  1.0993  1.7004
15500TIP3    H267916   2.748   0.199   1.900  0.5893 -0.2622 -0.4233
15501TIP3   OH267917   0.928   0.875  16.342 -0.2993 -0.2782 -0.4231
15501TIP3    H167918   0.853   0.851  16.396 -0.0304 -0.0199  0.0735
15501TIP3    H267919   0.993   0.807  16.359  0.3958  0.6579  0.8463
15502TIP3   OH267920   2.489   5.090  16.201  0.2690  0.1863  0.2356
15502TIP3    H167921   2.518   5.133  16.120  1.1836  0.2212  0.5699
15502TIP3    H267922   2.501   5.156  16.269 -0.7613  0.2524  0.3742
15503TIP3   OH267923   2.782   1.588  12.214  0.2094  0.2680 -0.0098
15503TIP3    H167924   2.759   1.502  12.179 -0.5993  0.7058 -0.5909
15503TIP3    H267925   2.743   1.650  12.152  2.1037  1.0677 -0.4606
15504TIP3   OH267926   0.082   2.974   2.069 -0.4947  0.7286  0.6119
15504TIP3    H167927   0.004   2.919   2.064 -0.9730  1.4430 -0.2859
15504TIP3    H267928   0.154   2.917   2.042 -0.9259  0.4334  0.0589
15505TIP3   OH267929   2.861   0.435   6.054  0.1957  0.1676  0.0230
15505TIP3    H167930   2.857   0.504   5.988  0.9610  1.1023  0.9203
15505TIP3    H267931   2.907   0.474   6.127 -2.8715  0.0743  2.2126
15506TIP3   OH267932   2.736   5.168   0.957 -0.2353 -0.7503  0.0976
15506TIP3    H167933   2.816   5.133   0.918  1.0324 -0.4246  2.2716
15506TIP3    H267934   2.762   5.250   0.997 -0.9018 -1.9291  3.2777
15507TIP3   OH267935   0.468   0.016   0.705  0.6024 -0.0930  0.0699
15507TIP3    H167936   0.377   0.005   0.676  0.1928 -3.2181  2.0701
15507TIP3    H267937   0.509  -0.069   0.688  1.9366 -0.1374  2.8864
15508TIP3   OH267938   1.505   1.702  11.714 -0.3625 -0.2107  0.0538
15508TIP3    H167939   1.592   1.682  11.748  0.0807  0.0812 -0.8641
15508TIP3    H267940   1.481   1.785  11.755  0.5800  0.6354 -1.0579
15509TIP3   OH267941   1.588   6.551  14.166  0.3892  0.0499 -0.1755
15509TIP3    H167942   1.547   6.630  14.200  0.2880 -0.3066  0.5587
15509TIP3    H267943   1.585   6.489  14.239 -1.5518 -1.3846 -1.3505
15510TIP3   OH267944   3.760   2.444   5.849 -0.9595 -0.2055 -0.1124
15510TIP3    H167945   3.694   2.454   5.917 -0.1418  1.0115  0.5383
15510TIP3    H267946   3.757   2.527   5.800 -1.2371 -0.8910 -1.3009
15511TIP3   OH267947   4.370   0.999   1.477 -0.4397  0.0166  0.5377
15511TIP3    H167948   4.440   1.011   1.413 -2.4069 -1.3029 -2.0715
15511TIP3    H267949   4.375   0.906   1.501 -1.0614 -0.0041  0.6103
15512TIP3   OH267950   3.064   1.135   0.567  0.2344 -0.3096 -0.4349
15512TIP3    H167951   3.025   1.195   0.630  0.9886  0.5742 -0.7846
15512TIP3    H267952   3.129   1.188   0.520  0.4984 -1.2438 -1.1629
15513TIP3   OH267953   3.669   2.936  15.227  0.0524  0.2511 -0.0489
15513TIP3    H167954   3.743   2.896  15.273 -1.0439 -1.0462  0.6713
15513TIP3    H267955   3.707   3.009  15.178  2.0911 -1.4526 -1.1374
15514TIP3   OH267956   0.966   4.800   5.969 -0.1003 -0.0509  0.2419
15514TIP3    H167957   1.029   4.742   6.011  1.0289  1.2815  0.4412
15514TIP3    H267958   0.921   4.843   6.042 -0.7047 -0.4126  0.0915
15515TIP3   OH267959   1.110   3.815   6.233 -0.2042  0.0798 -0.2699
15515TIP3    H167960   1.200   3.845   6.222  0.3320 -0.5964  1.7500
15515TIP3    H267961   1.107   3.730   6.187  0.7463 -0.7521  1.1370
15516TIP3   OH267962   5.688   4.643  14.172 -0.4156 -0.8495  0.2787
15516TIP3    H167963   5.763   4.694  14.142 -1.0042 -0.4549 -0.5550
15516TIP3    H267964   5.618   4.664  14.110 -0.9534 -1.9160  0.4982
15517TIP3   OH267965   0.630   3.793  16.385 -0.1137 -0.0051 -0.3945
15517TIP3    H167966   0.625   3.882  16.350 -2.1016 -0.1337 -0.5240
15517TIP3    H267967   0.539   3.766  16.397  0.3973 -0.7331  2.9932
15518TIP3   OH267968   3.540   1.026  13.289 -0.1829 -0.1642 -0.1166
15518TIP3    H167969   3.453   1.034  13.327  0.4556  0.0228  1.3559
15518TIP3    H267970   3.527   0.968  13.213 -1.7473  0.6966 -0.5476
15519TIP3   OH267971   2.870   1.483   1.999  0.0508  0.1812 -0.3677
15519TIP3    H167972   2.966   1.486   2.004  0.1041 -0.5060 -0.8903
15519TIP3    H267973   2.851   1.409   1.941 -0.8167 -0.1987  0.3731
15520TIP3   OH267974   1.075   1.643   1.551 -0.1415  0.0489 -0.0019
15520TIP3    H167975   1.022   1.711   1.593 -1.2294 -1.4545  1.1311
15520TIP3    H267976   1.047   1.643   1.459 -0.1813  1.0477 -0.0019
15521TIP3   OH267977   6.134   1.651   5.651  0.0657 -0.5747 -0.6471
15521TIP3    H167978   6.219   1.653   5.694 -0.1246  0.4475 -0.2905
15521TIP3    H267979   6.138   1.720   5.585 -0.6470 -0.1501 -0.2666
15522TIP3   OH267980   5.771   1.062  14.339 -0.2393  0.1760 -0.0597
15522TIP3    H167981   5.832   1.121  14.294 -0.0569 -1.3537 -1.9263
15522TIP3    H267982   5.705   1.041  14.273 -2.2634  0.9580  1.6047
15523TIP3   OH267983   0.447   6.608   5.143 -0.0958  0.4103 -0.4704
15523TIP3    H167984   0.381   6.554   5.098 -1.4446  0.0983  1.7425
15523TIP3    H267985   0.396   6.659   5.206  1.8402 -0.3666  1.8431
15524TIP3   OH267986   3.208   2.826  11.923 -0.4099 -0.0884  0.1260
15524TIP3    H167987   3.139   2.891  11.912  0.2382  1.0804  2.3421
15524TIP3    H267988   3.161   2.744  11.942 -1.1978 -0.0159 -1.4020
15525TIP3   OH267989   0.422   1.019   2.904 -0.0088 -0.2369 -0.6081
15525TIP3    H167990   0.444   0.981   2.820  0.4623 -1.6172  0.1150
15525TIP3    H267991   0.328   1.008   2.912 -0.1152  0.2662 -1.1189
15526TIP3   OH267992   0.417   3.589  12.632 -0.3240  0.0190  0.4325
15526TIP3    H167993   0.404   3.683  12.645 -2.3082 -0.0921 -0.2897
15526TIP3    H267994   0.467   3.561  12.709  0.1812  1.6246  0.7317
15527TIP3   OH267995   3.149   4.084   1.233  0.0198  0.3152  0.3241
15527TIP3    H167996   3.204   4.061   1.159  0.1574  0.6584  0.3180
15527TIP3    H267997   3.082   4.016   1.235  0.4168 -0.0794  0.3060
15528TIP3   OH267998   4.772   3.082   4.571 -0.3492  0.0098  0.3613
15528TIP3    H167999   4.682   3.059   4.594 -0.3859 -0.6244 -0.3723
15528TIP3    H268000   4.762   3.145   4.500 -0.2254 -0.9337 -0.5218
15529TIP3   OH268001   1.622   0.058  14.908  0.2865  0.8446 -0.5285
15529TIP3    H168002   1.697   0.077  14.964 -0.0821 -1.0223  0.7124
15529TIP3    H268003   1.558   0.126  14.928  1.4105  2.1169 -1.1721
15530TIP3   OH268004   5.945   0.987  12.854  0.8196 -0.3834  0.4616
15530TIP3    H168005   5.860   1.021  12.880 -0.1331 -0.7469 -1.9684
15530TIP3    H268006   6.004   1.062  12.859  0.1904  0.0579  1.3759
15531TIP3   OH268007   0.193   2.344  14.437 -0.2893  0.3361 -0.0347
15531TIP3    H168008   0.211   2.436  14.414 -1.5608  0.9156  1.1256
15531TIP3    H268009   0.270   2.296  14.405  0.9716  1.9731  0.3807
15532TIP3   OH268010   2.546   2.995  12.187  0.1473 -0.0689  0.4038
15532TIP3    H168011   2.458   3.020  12.214 -0.2192 -0.2345 -0.5980
15532TIP3    H268012   2.560   2.908  12.226  0.2186  0.3283  1.2892
15533TIP3   OH268013   2.361   6.099  13.297 -0.2984  0.2694 -0.0913
15533TIP3    H168014   2.384   6.135  13.211  0.4035  2.7823  1.0506
15533TIP3    H268015   2.268   6.079  13.290 -0.0461 -0.5297 -1.7159
15534TIP3   OH268016   2.364   4.085  14.672 -0.3707 -0.1056  0.3642
15534TIP3    H168017   2.459   4.073  14.673 -0.5459 -1.7568  0.8093
15534TIP3    H268018   2.347   4.143  14.745  0.1503 -1.5214  1.6782
15535TIP3   OH268019   0.897   2.883   0.791  0.9692  0.4323  0.1570
15535TIP3    H168020   0.858   2.886   0.878  0.9955  0.8639  0.1574
15535TIP3    H268021   0.921   2.791   0.778 -1.7979 -0.2660 -0.6197
15536TIP3   OH268022   6.260   4.489   5.103 -0.2230  0.0025 -0.3531
15536TIP3    H168023   6.166   4.504   5.096  0.0634  1.4234 -1.7609
15536TIP3    H268024   6.300   4.572   5.076  1.4522 -0.8755 -0.7356
15537TIP3   OH268025   2.125   4.242   2.365 -0.5115  0.1222  0.0076
15537TIP3    H168026   2.180   4.254   2.288 -0.6989 -1.0213 -0.3217
15537TIP3    H268027   2.089   4.329   2.382 -1.9158  0.0741 -2.3102
15538TIP3   OH268028   4.648   6.613  13.108 -0.2286 -0.2438  0.2399
15538TIP3    H168029   4.560   6.581  13.091 -0.2797 -1.9876  3.2290
15538TIP3    H268030   4.705   6.556  13.056 -0.7121 -0.9681  0.4976
15539TIP3   OH268031   0.850   3.693  15.005  0.1875  0.0402  0.1127
15539TIP3    H168032   0.783   3.759  15.022 -0.5808 -0.4307 -0.9322
15539TIP3    H268033   0.825   3.655  14.920  3.9459  2.5904 -2.4643
15540TIP3   OH268034   4.696   6.109  15.543  0.3601 -0.3370  0.0484
15540TIP3    H168035   4.653   6.054  15.478  0.3386  0.4155 -0.5876
15540TIP3    H268036   4.664   6.197  15.525  1.1276  0.0313  0.4391
15541TIP3   OH268037   2.646   4.934  13.014  0.5288  0.2324  0.1886
15541TIP3    H168038   2.635   4.952  13.107 -1.9155 -0.0243  0.0101
15541TIP3    H268039   2.648   4.838  13.008 -2.3276  0.1091 -0.2008
15542TIP3   OH268040   1.883   2.660   6.134 -0.5210 -0.3504 -0.2843
15542TIP3    H168041   1.976   2.669   6.110 -0.1585 -1.6961  0.4694
15542TIP3    H268042   1.835   2.691   6.058  0.5676 -0.3705 -1.0044
15543TIP3   OH268043   6.262   1.485   3.942  0.1616 -0.2586  0.6398
15543TIP3    H168044   6.334   1.498   3.879 -0.4131 -2.9543 -0.7102
15543TIP3    H268045   6.304   1.443   4.017  0.0861 -1.9326 -0.1903
15544TIP3   OH268046   1.343   2.430   5.723  0.0582 -0.3238 -0.1528
15544TIP3    H168047   1.388   2.420   5.639  0.0175  2.2556 -0.5624
15544TIP3    H268048   1.406   2.475   5.779 -0.5493 -0.4195  0.6320
15545TIP3   OH268049   4.098   3.579  16.794  0.7101 -0.4643  0.1731
15545TIP3    H168050   4.100   3.637  16.869  0.0019  0.2224 -0.3232
15545TIP3    H268051   4.184   3.590  16.752  1.3464 -1.3196  1.2071
15546TIP3   OH268052   5.261   0.138  11.293  0.0265 -0.2426 -0.2399
15546TIP3    H168053   5.293   0.153  11.204  0.2364  0.9748  0.0352
15546TIP3    H268054   5.287   0.216  11.342 -0.9655 -0.4511  0.6514
15547TIP3   OH268055   6.380   1.267  14.017  0.4540 -0.6257  0.4907
15547TIP3    H168056   6.429   1.214  13.954 -0.0357  1.2634 -1.5989
15547TIP3    H268057   6.303   1.214  14.038  2.0509 -2.5536  1.8894
15548TIP3   OH268058   5.567   0.390  12.470  1.1699 -0.2448  0.0951
15548TIP3    H168059   5.508   0.315  12.470  3.8486 -2.5882 -1.8650
15548TIP3    H268060   5.617   0.381  12.551  1.2933 -0.4321 -0.0014
15549TIP3   OH268061   6.655   4.679  10.492  0.1231 -0.6530 -0.3714
15549TIP3    H168062   6.712   4.610  10.458  2.5673  0.2406  1.5780
15549TIP3    H268063   6.713   4.753  10.506 -1.9245  0.9698 -0.0108
15550TIP3   OH268064   0.019   0.288  13.625 -0.7254  0.0314  0.4855
15550TIP3    H168065  -0.073   0.280  13.651 -0.8513 -1.1173 -0.2361
15550TIP3    H268066   0.016   0.299  13.529 -0.1047 -0.1898  0.4379
15551TIP3   OH268067   1.914   4.204  14.325 -0.1433  0.3453  0.0003
15551TIP3    H168068   1.908   4.108  14.328  1.9524 -0.0237 -2.9968
15551TIP3    H268069   1.824   4.234  14.313 -0.6409 -1.4169 -0.9706
15552TIP3   OH268070   4.503   0.252   0.221  0.6955 -0.0947 -0.2239
15552TIP3    H168071   4.498   0.168   0.267  0.9579  0.3033  0.5588
15552TIP3    H268072   4.574   0.240   0.158  1.4842 -0.1287  0.6350
15553TIP3   OH268073   3.878   4.927  16.450 -0.1213  0.1149  0.0422
15553TIP3    H168074   3.840   4.984  16.383  0.1248 -0.4553 -0.5886
15553TIP3    H268075   3.836   4.842  16.436 -1.3188  0.3786  1.6747
15554TIP3   OH268076   0.118   1.293   4.886 -0.2320 -0.1863  0.3336
15554TIP3    H168077   0.100   1.214   4.938 -2.6893  0.0074 -0.1260
15554TIP3    H268078   0.036   1.312   4.841  0.7302  1.8295 -0.7099
15555TIP3   OH268079   5.313   4.072  15.868  0.1051 -0.1460  0.2767
15555TIP3    H168080   5.239   4.128  15.892  0.0916  0.1743 -0.4861
15555TIP3    H268081   5.389   4.130  15.870  0.1436 -0.1758 -0.1850
15556TIP3   OH268082   0.991   5.360   0.334  0.2839 -0.0419  0.5299
15556TIP3    H168083   0.943   5.333   0.255  0.0077  2.4233 -0.2487
15556TIP3    H268084   1.083   5.348   0.311  0.2087  0.7371 -0.2387
15557TIP3   OH268085   0.526   1.588   0.475 -0.1784 -0.6186 -0.2749
15557TIP3    H168086   0.484   1.670   0.499 -0.2421  0.2508 -3.0394
15557TIP3    H268087   0.485   1.523   0.532 -0.0310  1.2208  2.0800
15558TIP3   OH268088   4.686   4.140  12.836 -0.0297 -0.2265  0.0052
15558TIP3    H168089   4.614   4.141  12.773  0.8695 -0.3520 -1.0586
15558TIP3    H268090   4.739   4.064  12.811  2.0341  1.4647 -1.0857
15559TIP3   OH268091   0.752   6.172  15.188 -0.1306 -0.5124 -0.0547
15559TIP3    H168092   0.763   6.200  15.279 -0.0791  1.9821 -0.7777
15559TIP3    H268093   0.816   6.223  15.139 -1.7538 -0.0527 -1.7896
15560TIP3   OH268094   4.020   2.749  15.901 -0.3136  0.2256  0.2515
15560TIP3    H168095   4.059   2.784  15.821 -0.3900  0.3808  0.2827
15560TIP3    H268096   3.970   2.672  15.871 -0.6209  0.4827  0.0988
15561TIP3   OH268097   4.813   0.873   2.964  0.1315 -0.1317  0.0200
15561TIP3    H168098   4.890   0.816   2.961  0.2278 -0.2927  2.9826
15561TIP3    H268099   4.771   0.853   3.047 -2.3659  0.9687 -0.8742
15562TIP3   OH268100   1.175   2.400   6.171  0.0901 -0.1084 -0.3668
15562TIP3    H168101   1.111   2.344   6.215 -1.1984  0.6848 -1.1735
15562TIP3    H268102   1.252   2.344   6.159 -0.3562 -1.0165  0.8271
15563TIP3   OH268103   6.806   1.603   4.875 -0.4789  0.0757  1.0801
15563TIP3    H168104   6.758   1.543   4.933 -3.6649  3.7081  2.6409
15563TIP3    H268105   6.852   1.662   4.934  3.3187 -1.1012 -0.4156
15564TIP3   OH268106   5.749   3.769   2.992 -0.0029 -0.8167  0.2097
15564TIP3    H168107   5.836   3.731   2.986  0.2217 -0.2238 -0.4318
15564TIP3    H268108   5.689   3.695   2.978  0.3985 -1.1885  0.4548
15565TIP3   OH268109   3.570   6.774  16.591 -0.3565 -0.0822 -0.2212
15565TIP3    H168110   3.513   6.847  16.613 -0.6612 -0.1027 -0.9128
15565TIP3    H268111   3.555   6.709  16.659 -0.3325  0.3620  0.2106
15566TIP3   OH268112   0.979   0.705  11.811  0.2080  0.9106 -0.3788
15566TIP3    H168113   0.932   0.636  11.764  0.8956 -0.7212  1.1622
15566TIP3    H268114   0.911   0.753  11.858 -0.1022 -0.8111  1.0601
15567TIP3   OH268115   1.947   2.794  12.180  0.5206  0.8277  0.1050
15567TIP3    H168116   1.957   2.872  12.235  0.5213  1.0602 -0.2242
15567TIP3    H268117   1.865   2.755  12.209 -0.3900  1.9060 -0.9016
15568TIP3   OH268118   6.571   4.041   1.344 -0.0439 -0.4627 -0.1662
15568TIP3    H168119   6.656   4.084   1.330 -0.5818 -0.2129 -3.2821
15568TIP3    H268120   6.531   4.091   1.415  1.3172  1.1616 -0.4699
15569TIP3   OH268121   3.465   1.879  11.334 -0.1243  0.4188  0.2857
15569TIP3    H168122   3.440   1.911  11.420 -0.6577  1.3375 -0.1990
15569TIP3    H268123   3.386   1.888  11.280  0.4209  0.6052 -0.5091
15570TIP3   OH268124   4.464   2.959   0.182  0.3893 -0.9463  0.2209
15570TIP3    H168125   4.512   2.986   0.104  0.5611  0.1800  0.7149
15570TIP3    H268126   4.469   3.033   0.241 -2.3118 -0.5878  0.1315
15571TIP3   OH268127   4.576   3.161   5.216  0.0302  0.1311 -0.4396
15571TIP3    H168128   4.509   3.103   5.253 -0.5915 -0.1155 -1.8729
15571TIP3    H268129   4.583   3.233   5.278  0.8622 -1.4646  1.4398
15572TIP3   OH268130   0.511   3.662   1.864 -0.3739 -0.1110  0.1924
15572TIP3    H168131   0.416   3.673   1.864 -0.5421 -1.0815  1.9399
15572TIP3    H268132   0.544   3.729   1.804 -2.0644  1.2389  0.7028
15573TIP3   OH268133   1.972   2.341  10.750  0.3411  0.8251  0.0375
15573TIP3    H168134   1.923   2.379  10.823 -0.8738 -3.0662  1.4566
15573TIP3    H268135   1.927   2.375  10.672 -1.3965  1.3706  1.2023
15574TIP3   OH268136   2.236   2.496   0.137  0.7060 -0.0650  0.4985
15574TIP3    H168137   2.258   2.439   0.211  0.6914  0.2271  0.7321
15574TIP3    H268138   2.150   2.532   0.159 -0.6948 -2.2423 -1.0352
15575TIP3   OH268139   0.942   1.133   1.329  0.0190  0.2360  0.2725
15575TIP3    H168140   0.947   1.140   1.425  1.1403 -1.2858  0.3641
15575TIP3    H268141   1.032   1.115   1.302 -0.7404 -2.3827 -0.7624
15576TIP3   OH268142   3.685   3.635   4.452  0.4352  0.2487  0.1558
15576TIP3    H168143   3.724   3.548   4.465  0.2214  0.2663  0.9699
15576TIP3    H268144   3.760   3.692   4.433  0.9769  0.4693  2.6403
15577TIP3   OH268145   0.548   4.107  16.748  0.1641  0.0549  0.8358
15577TIP3    H168146   0.474   4.058  16.783 -0.8316 -0.4466 -1.7921
15577TIP3    H268147   0.606   4.041  16.712  0.2026  0.6380 -0.2027
15578TIP3   OH268148   4.110   2.949  16.270  0.1241  0.3053  0.0615
15578TIP3    H168149   4.083   2.970  16.359  1.6083  0.0079  0.6139
15578TIP3    H268150   4.170   2.875  16.280 -0.4682 -0.3856 -1.2903
15579TIP3   OH268151   2.846   2.452  15.121 -0.0227  0.0614 -0.5101
15579TIP3    H168152   2.927   2.492  15.151 -0.5302  0.5372  0.2941
15579TIP3    H268153   2.810   2.410  15.200 -0.7853  0.2744 -0.7327
15580TIP3   OH268154   0.429   2.117   2.875  0.1063 -0.0709  0.0029
15580TIP3    H168155   0.459   2.060   2.946  2.6957  2.3951  1.0604
15580TIP3    H268156   0.337   2.134   2.894  0.6130  0.1475  2.5635
15581TIP3   OH268157   5.967   2.343   2.518  0.3977 -0.8781 -0.2567
15581TIP3    H168158   5.877   2.329   2.546  0.1339  0.2747 -0.4864
15581TIP3    H268159   5.995   2.422   2.565  0.7671 -0.3381 -1.3504
15582TIP3   OH268160   2.814   1.795  16.743  0.7587  0.3867  0.0967
15582TIP3    H168161   2.765   1.877  16.736 -1.2018 -0.7182 -0.0277
15582TIP3    H268162   2.878   1.811  16.811  0.3305  1.9809  0.1632
15583TIP3   OH268163   3.321   6.420   0.844 -0.1164 -0.0497  0.6069
15583TIP3    H168164   3.313   6.444   0.752  1.0989  1.8439  0.9495
15583TIP3    H268165   3.415   6.401   0.856 -0.5141 -1.8589  1.1146
15584TIP3   OH268166   5.425   2.384   1.196 -0.0727 -0.3139 -0.0451
15584TIP3    H168167   5.473   2.385   1.279  2.3589  0.2551 -1.3529
15584TIP3    H268168   5.403   2.292   1.181  1.7755 -0.8001  0.0337
15585TIP3   OH268169   2.439   5.877  16.788  0.0121  0.2947 -0.1103
15585TIP3    H168170   2.502   5.890  16.717 -0.4269 -0.2830 -0.6196
15585TIP3    H268171   2.360   5.844  16.744  0.1267 -1.2558  0.7811
15586TIP3   OH268172   5.427   5.523   3.284  0.2843 -0.4384  0.1904
15586TIP3    H168173   5.343   5.480   3.301  1.5078 -2.3018  1.8557
15586TIP3    H268174   5.424   5.603   3.337 -1.6036  1.2359 -2.1798
15587TIP3   OH268175   0.785   6.156  11.643  0.5477 -0.4162  0.9183
15587TIP3    H168176   0.770   6.157  11.738 -1.7483 -2.0417  0.6432
15587TIP3    H268177   0.745   6.237  11.612  0.4637 -0.3380  1.2242
15588TIP3   OH268178   5.676   2.789  12.183  0.3411  0.3924  0.0587
15588TIP3    H168179   5.716   2.874  12.201  0.6978  0.2281  0.0547
15588TIP3    H268180   5.741   2.743  12.130  0.3745 -0.0806  0.5028
15589TIP3   OH268181   4.756   2.234   5.737 -0.4259 -0.1901  0.0450
15589TIP3    H168182   4.692   2.280   5.682 -0.3262  0.3683  0.3889
15589TIP3    H268183   4.735   2.260   5.826  0.6119  0.4330  0.1227
15590TIP3   OH268184   6.416   2.073   3.013  0.1764 -0.1388 -0.2893
15590TIP3    H168185   6.437   2.014   2.940 -1.8312  0.0954 -1.1163
15590TIP3    H268186   6.411   2.015   3.089  0.2992 -0.7030 -0.6979
15591TIP3   OH268187   6.026   0.468  10.552  0.3004  0.0418 -0.4547
15591TIP3    H168188   5.977   0.396  10.510  1.8702  0.9838 -4.3920
15591TIP3    H268189   5.961   0.536  10.565 -0.6415 -1.0103  0.5834
15592TIP3   OH268190   0.003   2.777  11.440 -0.4953 -0.4449  0.2034
15592TIP3    H168191  -0.065   2.714  11.416 -0.7394 -0.0524 -0.1401
15592TIP3    H268192  -0.024   2.859  11.399  0.6728 -0.5133 -0.7572
15593TIP3   OH268193   1.294   5.427   6.289 -0.2104  0.2743 -0.1876
15593TIP3    H168194   1.262   5.367   6.356 -1.7829  0.7633 -0.4634
15593TIP3    H268195   1.366   5.474   6.331 -0.9483  0.3345  1.0450
15594TIP3   OH268196   2.920   3.362   4.772 -0.5989 -0.9988 -0.7485
15594TIP3    H168197   2.873   3.280   4.754 -1.7690 -0.1806 -1.5296
15594TIP3    H268198   2.869   3.429   4.728  0.0790  0.2351  0.2795
15595TIP3   OH268199   4.128   4.015  11.872 -0.3216 -0.1789 -0.0067
15595TIP3    H168200   4.156   3.930  11.905 -0.1209 -0.2325 -0.3056
15595TIP3    H268201   4.122   4.003  11.777  1.0635  0.4962 -0.2166
15596TIP3   OH268202   2.999   3.737   0.469 -0.5284  0.4856 -0.0703
15596TIP3    H168203   2.909   3.712   0.449 -1.2593  2.9012 -0.1159
15596TIP3    H268204   3.005   3.829   0.443  1.8344  0.5192  0.3542
15597TIP3   OH268205   2.447   6.526   1.283  0.7483 -0.2304 -0.6119
15597TIP3    H168206   2.477   6.568   1.202  0.2654  1.2432 -0.0596
15597TIP3    H268207   2.425   6.599   1.341  0.7825 -1.2665  0.7423
15598TIP3   OH268208   3.577   1.949   3.476 -0.6870  0.2391 -0.3786
15598TIP3    H168209   3.606   2.040   3.485 -0.8668  0.2814 -0.2089
15598TIP3    H268210   3.543   1.943   3.387 -0.0157  0.1458 -0.6393
15599TIP3   OH268211   3.413   6.538  12.896  0.2937 -0.2887 -0.9045
15599TIP3    H168212   3.366   6.545  12.813 -1.8863 -3.1749 -0.0663
15599TIP3    H268213   3.438   6.445  12.901  0.9986 -0.0325  1.3334
15600TIP3   OH268214   1.355   2.068   1.564  0.3625 -0.1669  0.9948
15600TIP3    H168215   1.404   2.121   1.501 -2.1555  0.3820 -0.6524
15600TIP3    H268216   1.397   2.087   1.648  3.1220 -0.0389 -0.2859
15601TIP3   OH268217   2.053   0.243  11.935  0.0767 -0.0409  0.3762
15601TIP3    H168218   2.084   0.227  11.846 -0.5438  0.0540  0.1391
15601TIP3    H268219   2.120   0.204  11.991  0.6688  0.2361 -0.1212
15602TIP3   OH268220   5.964   3.031   0.040 -0.0170 -0.5548 -0.0373
15602TIP3    H168221   5.874   3.013   0.015 -0.2091  1.6045 -1.0515
15602TIP3    H268222   5.958   3.091   0.114  0.6067 -1.6805  0.9621
15603TIP3   OH268223   0.343   3.699  16.373 -0.5412  0.1284  0.7457
15603TIP3    H168224   0.317   3.666  16.286  1.1651  0.0884  0.2036
15603TIP3    H268225   0.369   3.620  16.421  1.6895  0.4220  0.1164
15604TIP3   OH268226   4.225   3.044  10.447 -0.2583 -0.2494 -0.0903
15604TIP3    H168227   4.135   3.042  10.412  0.2545 -0.0648 -1.4892
15604TIP3    H268228   4.256   2.954  10.438  0.8948  0.3346 -3.0236
15605TIP3   OH268229   4.981   2.044  15.050  0.6460  0.2533 -0.2618
15605TIP3    H168230   5.038   2.023  14.976 -1.3270 -0.0849 -1.7863
15605TIP3    H268231   4.966   2.139  15.043  0.5481  0.2391 -0.2557
15606TIP3   OH268232   3.591   6.160  12.654  0.0258  0.3082  0.1467
15606TIP3    H168233   3.624   6.083  12.607 -0.2531 -0.7776  1.6791
15606TIP3    H268234   3.549   6.213  12.586  0.3579 -0.8074 -0.9662
15607TIP3   OH268235   3.557   2.758  11.409  0.1598  0.2048 -0.4803
15607TIP3    H168236   3.516   2.820  11.470  0.4747  0.1912 -0.2514
15607TIP3    H268237   3.587   2.813  11.336 -0.3666  0.2000 -0.7101
15608TIP3   OH268238   4.592   4.114   3.095 -0.4127 -0.0782  0.7530
15608TIP3    H168239   4.526   4.055   3.132 -3.7155  2.0754 -1.1954
15608TIP3    H268240   4.595   4.188   3.155  1.9692 -1.0099  1.9343
15609TIP3   OH268241   2.723   0.174   1.220 -0.0600  0.2225  0.3607
15609TIP3    H168242   2.648   0.122   1.191 -0.6161  1.0795  0.2150
15609TIP3    H268243   2.717   0.255   1.170  1.4181  0.0015 -0.2120
15610TIP3   OH268244   1.435   3.547   1.959 -0.0405  0.0971 -0.0278
15610TIP3    H168245   1.363   3.589   1.911  1.6249  1.5362 -1.4080
15610TIP3    H268246   1.514   3.572   1.910  1.3290 -2.2525  0.8371
15611TIP3   OH268247   3.273   0.851  11.309  0.6714 -0.1290 -0.0197
15611TIP3    H168248   3.238   0.762  11.308 -0.7625  0.3777 -2.0709
15611TIP3    H268249   3.259   0.881  11.398 -2.8237 -0.5250 -0.3135
15612TIP3   OH268250   4.183   3.539   0.839 -0.1189  0.5612  0.2874
15612TIP3    H168251   4.187   3.546   0.934  1.2247 -0.4171  0.3345
15612TIP3    H268252   4.252   3.476   0.817 -0.8570  0.2632 -1.2796
15613TIP3   OH268253   3.268   1.702   1.715  0.1834  0.9943  0.0536
15613TIP3    H168254   3.282   1.633   1.650 -1.4792  0.4035  0.2797
15613TIP3    H268255   3.352   1.749   1.718  0.6849  0.2869 -1.6065
15614TIP3   OH268256   1.576   1.139  16.018 -0.2407  0.0225  0.1559
15614TIP3    H168257   1.541   1.124  15.931  0.4373 -0.9406  0.0245
15614TIP3    H268258   1.605   1.230  16.018 -0.1720  0.0072 -0.6529
15615TIP3   OH268259   3.667   2.722  13.713 -0.2792 -0.8138 -0.2146
15615TIP3    H168260   3.587   2.670  13.709 -1.2981  0.5714  0.9775
15615TIP3    H268261   3.665   2.776  13.634 -0.0363 -1.4333 -0.6492
15616TIP3   OH268262   2.459   6.057  12.809  0.0091  0.0531 -0.3268
15616TIP3    H168263   2.404   6.006  12.869  1.6334  1.7286  2.8369
15616TIP3    H268264   2.405   6.131  12.783 -0.1651  0.1968  0.4417
15617TIP3   OH268265   5.587   4.772  16.722  0.0274  0.1570 -0.9720
15617TIP3    H168266   5.597   4.829  16.646  1.5444  0.4333 -0.5956
15617TIP3    H268267   5.570   4.832  16.794  1.3693  0.1540 -0.6224
15618TIP3   OH268268   3.683   5.364  15.001  0.4208 -0.4298  0.6362
15618TIP3    H168269   3.735   5.394  14.926  0.9596  0.0932  1.2048
15618TIP3    H268270   3.679   5.441  15.059  0.3229 -0.9385  1.3129
15619TIP3   OH268271   6.580   4.682  13.933  0.2911 -0.5723  0.2834
15619TIP3    H168272   6.537   4.602  13.965 -0.0274 -0.3282  0.4799
15619TIP3    H268273   6.649   4.651  13.875  1.3222 -1.0581  1.7212
15620TIP3   OH268274   2.167   6.740   5.599 -0.1743 -0.1726  0.2225
15620TIP3    H168275   2.150   6.685   5.523 -1.0579 -1.7278  1.4726
15620TIP3    H268276   2.230   6.691   5.651  1.1433  1.3035  0.0871
15621TIP3   OH268277   5.988   1.136  16.117  0.0551  0.5067  0.4766
15621TIP3    H168278   5.925   1.094  16.058  0.0769  0.9076  0.1592
15621TIP3    H268279   5.982   1.087  16.199  0.9246 -0.8559 -0.2399
15622TIP3   OH268280   0.838   4.914   1.448 -0.1745  0.6275  0.2040
15622TIP3    H168281   0.886   4.942   1.526 -0.7784 -0.6866  1.0897
15622TIP3    H268282   0.888   4.839   1.415  0.2462  1.3551 -0.8873
15623TIP3   OH268283   2.999   0.249  12.796 -0.1854  0.4878  0.6545
15623TIP3    H168284   2.923   0.306  12.807 -1.3167 -1.0286  1.0522
15623TIP3    H268285   3.031   0.235  12.885  0.4714  0.9836  0.5019
15624TIP3   OH268286   4.138   0.891  13.845 -0.4954  0.2170 -0.0603
15624TIP3    H168287   4.070   0.902  13.778  1.6672 -0.5028 -2.5683
15624TIP3    H268288   4.200   0.830  13.805  0.8193 -0.4402  2.7717
15625TIP3   OH268289   4.936   4.815  13.909  0.4520  0.2574  0.1859
15625TIP3    H168290   4.944   4.890  13.849  0.4833  0.3275  0.2787
15625TIP3    H268291   4.979   4.743  13.863 -1.9512 -0.4420 -1.1750
15626TIP3   OH268292   6.472   1.624   1.709 -0.1142 -0.7638  0.0126
15626TIP3    H168293   6.443   1.572   1.784 -2.9369 -2.0266 -1.7715
15626TIP3    H268294   6.492   1.559   1.641  0.3028  0.3907 -1.0028
15627TIP3   OH268295   5.668   2.256   3.596  0.5683  0.0964  0.0907
15627TIP3    H168296   5.759   2.231   3.579  0.4728 -0.0108 -0.2697
15627TIP3    H268297   5.662   2.348   3.571  0.1305 -0.3719 -1.6438
15628TIP3   OH268298   5.756   4.304  16.439 -0.4134  0.1089 -0.6563
15628TIP3    H168299   5.798   4.363  16.376  0.4448  0.4350  0.1918
15628TIP3    H268300   5.664   4.300  16.411 -1.0329  3.4644  0.3537
15629TIP3   OH268301   0.835   0.538   3.659  0.6642  0.0281  0.4299
15629TIP3    H168302   0.746   0.570   3.674  1.5303  2.0929  1.4832
15629TIP3    H268303   0.841   0.460   3.713 -0.0462  0.7236  1.5524
15630TIP3   OH268304   3.652   2.441   4.109  0.2196  0.1172  0.0858
15630TIP3    H168305   3.695   2.499   4.046 -1.1487  0.1474 -0.8749
15630TIP3    H268306   3.594   2.387   4.056 -0.9726  0.1231  1.3196
15631TIP3   OH268307   4.100   2.960  12.656  0.1671  0.0823 -0.4899
15631TIP3    H168308   4.118   2.894  12.723  1.1864 -0.1252 -0.9416
15631TIP3    H268309   4.150   3.037  12.685 -0.0356  0.2532 -0.5950
15632TIP3   OH268310   3.296   2.570  16.082 -0.2683  0.4368  0.1449
15632TIP3    H168311   3.242   2.649  16.087 -1.6195 -0.4736  0.3811
15632TIP3    H268312   3.260   2.521  16.007  0.7484  0.1725 -0.1904
15633TIP3   OH268313   0.377   5.376  12.148  0.4072 -0.2916  0.3560
15633TIP3    H168314   0.466   5.344  12.167  0.0366 -1.4049  0.3187
15633TIP3    H268315   0.325   5.296  12.137 -0.8784  0.3322  1.6480
15634TIP3   OH268316   0.065   6.343  15.106 -0.8696  0.1130 -0.3856
15634TIP3    H168317   0.159   6.331  15.098 -0.8743 -0.2748  0.1016
15634TIP3    H268318   0.031   6.255  15.122 -0.9862  0.5762  2.5635
15635TIP3   OH268319   4.316   2.520   5.401  0.2783  0.6807  0.2113
15635TIP3    H168320   4.373   2.595   5.385  0.6860  0.6167  1.2969
15635TIP3    H268321   4.295   2.526   5.494 -1.3008  0.5677 -0.1064
15636TIP3   OH268322   0.634   5.091  13.956  0.0914  0.1057 -0.0626
15636TIP3    H168323   0.572   5.147  13.909  0.9572 -0.5467 -2.0663
15636TIP3    H268324   0.595   5.003  13.951 -0.2758  0.1619  1.3306
15637TIP3   OH268325   2.511   1.248  13.135 -0.4333 -0.4472  0.1735
15637TIP3    H168326   2.432   1.235  13.082 -0.9629  1.2192  0.4710
15637TIP3    H268327   2.583   1.247  13.071 -0.8973 -0.0557 -0.3720
15638TIP3   OH268328   1.336   3.101  10.959 -0.1893  0.1070 -0.2429
15638TIP3    H168329   1.429   3.107  10.937 -0.0169  0.6287  0.6202
15638TIP3    H268330   1.321   3.172  11.020 -0.4917 -1.7210  1.9395
15639TIP3   OH268331   2.563   6.410   3.632 -0.2509  0.3237 -0.0365
15639TIP3    H168332   2.505   6.349   3.678  0.7091 -0.1264  0.6021
15639TIP3    H268333   2.525   6.496   3.649 -0.7841  0.0334  0.2921
15640TIP3   OH268334   0.028   2.249  13.309  0.7187  0.0494  0.0568
15640TIP3    H168335  -0.015   2.167  13.284 -1.6213  0.8288  1.2429
15640TIP3    H268336   0.006   2.310  13.239 -1.0584  0.6969  1.0892
15641TIP3   OH268337   1.398   1.806   0.276 -0.0350  0.7069  0.1167
15641TIP3    H168338   1.436   1.894   0.268 -0.1078  0.7944  0.7188
15641TIP3    H268339   1.433   1.758   0.200  0.2412  1.1688 -0.0511
15642TIP3   OH268340   0.031   5.603   4.436  0.2709 -0.3520  0.1273
15642TIP3    H168341   0.060   5.605   4.345 -0.0795  1.1129  0.0276
15642TIP3    H268342   0.113   5.608   4.487  0.3969  0.3090 -0.1292
15643TIP3   OH268343   4.837   5.622  12.630  0.7155  0.1441  0.5920
15643TIP3    H168344   4.778   5.561  12.673 -0.1974 -0.7249 -1.7335
15643TIP3    H268345   4.830   5.703  12.682 -1.0182 -0.5416  1.5108
15644TIP3   OH268346   3.972   4.935  16.789  0.1001  0.6343  0.0469
15644TIP3    H168347   3.894   4.898  16.749  0.6910 -0.7498  0.1298
15644TIP3    H268348   3.938   4.992  16.859 -0.8202 -0.5441  0.5910
15645TIP3   OH268349   4.907   2.096   0.193  0.2203  0.1126 -0.2415
15645TIP3    H168350   5.002   2.106   0.202  0.6842 -3.4469  0.0453
15645TIP3    H268351   4.895   2.071   0.101 -0.8247  2.9145 -0.9791
15646TIP3   OH268352   1.454   0.402  11.053  0.0401 -0.2164  0.5202
15646TIP3    H168353   1.459   0.474  10.991  0.0119 -0.9033 -0.2986
15646TIP3    H268354   1.368   0.413  11.096 -0.2486 -0.1429 -0.0685
15647TIP3   OH268355   5.264   4.383  12.103  0.4145 -0.5828  0.1288
15647TIP3    H168356   5.230   4.302  12.064  0.8678 -0.0810 -1.3582
15647TIP3    H268357   5.187   4.439  12.112  0.8000  1.1948 -4.7669
15648TIP3   OH268358   2.342   2.036  11.191  0.3886  0.2703 -0.2224
15648TIP3    H168359   2.357   1.979  11.266 -2.7128  0.4336  0.6615
15648TIP3    H268360   2.344   2.125  11.228 -1.7173  0.3279 -0.1130
15649TIP3   OH268361   0.574   3.606  16.148  0.2188 -0.4491 -0.0103
15649TIP3    H168362   0.652   3.595  16.094 -0.2385  1.4029 -1.1134
15649TIP3    H268363   0.603   3.662  16.220 -0.5433  2.2407 -1.6675
15650TIP3   OH268364   6.776   2.232  14.330  0.2751 -0.0677  0.6622
15650TIP3    H168365   6.786   2.283  14.250 -0.0970 -1.4881 -0.3355
15650TIP3    H268366   6.855   2.252  14.381  0.6552  0.6522 -0.1850
15651TIP3   OH268367   6.216   0.302  13.399 -0.3085 -0.8274 -0.0045
15651TIP3    H168368   6.160   0.281  13.473 -0.7198  0.0855 -0.0385
15651TIP3    H268369   6.255   0.386  13.422 -0.9455 -0.2053 -1.0893
15652TIP3   OH268370   2.279   1.004  13.774 -0.0161  0.5847  0.1083
15652TIP3    H168371   2.283   1.068  13.845 -0.7334 -1.2221  1.8713
15652TIP3    H268372   2.370   0.982  13.756  0.1588  0.6014  0.9369
15653TIP3   OH268373   4.540   5.768  10.709  0.2701  0.6143 -0.8141
15653TIP3    H168374   4.506   5.717  10.635 -0.2835 -0.7108  0.2952
15653TIP3    H268375   4.474   5.836  10.724  0.5811  1.1297 -1.7809
15654TIP3   OH268376   2.746   5.440  11.640 -0.3025 -0.1679 -0.6709
15654TIP3    H168377   2.827   5.484  11.667 -0.5337  0.4017 -0.8933
15654TIP3    H268378   2.696   5.507  11.594 -1.7490  0.0259  1.0784
15655TIP3   OH268379   2.513   6.058   4.377  0.5647  0.0685 -0.6155
15655TIP3    H168380   2.607   6.043   4.381  0.7608  0.7722 -2.0788
15655TIP3    H268381   2.479   6.019   4.459  2.3230  1.5916  0.9225
15656TIP3   OH268382   3.824   1.072  13.889  0.1581 -0.3611 -0.3327
15656TIP3    H168383   3.879   1.035  13.820  1.4075 -1.8777  1.3769
15656TIP3    H268384   3.828   1.167  13.875 -0.3355 -0.6274 -2.8053
15657TIP3   OH268385   4.980   5.607  14.259 -0.1894 -0.2847 -0.9226
15657TIP3    H168386   5.008   5.623  14.349 -0.2871 -2.7476 -0.3859
15657TIP3    H268387   4.957   5.694  14.225  0.2137  0.7491  1.2817
15658TIP3   OH268388   6.100   6.679  16.240  0.1717 -0.5644  0.2606
15658TIP3    H168389   6.126   6.648  16.327 -0.3346 -1.8093 -0.0072
15658TIP3    H268390   6.173   6.734  16.212  0.6171 -0.6358  1.2257
15659TIP3   OH268391   4.793   1.927  16.982 -0.0704 -0.3045  0.1975
15659TIP3    H168392   4.713   1.921  16.930  0.1092 -0.4139 -0.0683
15659TIP3    H268393   4.766   1.905  17.071 -0.3280 -0.3801  0.1018
15660TIP3   OH268394   6.503   6.500  15.608  0.1311 -0.1537 -0.6589
15660TIP3    H168395   6.512   6.412  15.645 -1.2321  0.8888  2.4880
15660TIP3    H268396   6.584   6.513  15.557  1.8633 -2.0657  1.3993
15661TIP3   OH268397   4.502   1.918   4.397  0.2877  0.2205  0.5275
15661TIP3    H168398   4.568   1.928   4.466 -1.0270 -0.9617  2.0269
15661TIP3    H268399   4.474   2.008   4.378  1.2778  0.6248  0.9153
15662TIP3   OH268400   1.072   2.711  13.243 -0.2770  0.0141  0.4159
15662TIP3    H168401   1.117   2.758  13.313  0.0362 -0.2609  0.4033
15662TIP3    H268402   1.143   2.684  13.184 -0.4089 -0.8228  0.6286
15663TIP3   OH268403   5.706   6.327  12.320 -0.3117  0.2064  0.3177
15663TIP3    H168404   5.633   6.367  12.367 -1.4040 -1.2739 -0.0543
15663TIP3    H268405   5.693   6.351  12.229  0.7193  1.4327  0.4482
15664TIP3   OH268406   5.749   4.642   5.465 -0.6246  0.0940  0.0284
15664TIP3    H168407   5.697   4.655   5.544  0.8496  2.7385  0.6653
15664TIP3    H268408   5.716   4.707   5.403  0.8399  0.7379 -0.1090
15665TIP3   OH268409   1.105   5.380   5.576 -0.1022  0.0396 -0.0947
15665TIP3    H168410   1.040   5.312   5.594 -1.0178  0.3069 -2.1682
15665TIP3    H268411   1.062   5.462   5.602  0.6223 -0.0403  1.4555
15666TIP3   OH268412   2.836   2.111  15.444  0.1014  0.2318  0.0037
15666TIP3    H168413   2.900   2.182  15.435  0.8076 -0.2117  1.2308
15666TIP3    H268414   2.881   2.033  15.411 -0.3418  0.1732 -0.4804
15667TIP3   OH268415   0.112   6.221   0.882  0.1115 -0.4106 -0.2279
15667TIP3    H168416   0.029   6.210   0.835 -0.0962 -0.7399  0.2160
15667TIP3    H268417   0.088   6.224   0.974  0.5514 -0.0542 -0.1171
15668TIP3   OH268418   0.715   6.649  14.517 -0.1130 -0.1272 -0.2387
15668TIP3    H168419   0.798   6.691  14.540 -0.4294 -0.1616  1.0928
15668TIP3    H268420   0.719   6.638  14.422  1.9639 -1.3219 -0.0777
15669TIP3   OH268421   6.486   3.715  11.414 -0.1491  0.0988 -0.4397
15669TIP3    H168422   6.505   3.656  11.341 -2.4608  0.1373 -1.1385
15669TIP3    H268423   6.498   3.803  11.378 -1.7512  0.1319 -0.9821
15670TIP3   OH268424   0.942   4.142  14.591  0.0761  0.4279  0.3766
15670TIP3    H168425   0.990   4.164  14.511  1.1788 -1.2935  0.5221
15670TIP3    H268426   0.977   4.058  14.618  0.4779  1.4181  3.2748
15671TIP3   OH268427   4.210   5.959   5.268  0.0192  0.8479  0.4111
15671TIP3    H168428   4.162   6.002   5.197  0.7182  0.4720 -0.3084
15671TIP3    H268429   4.286   5.919   5.225  0.7729  1.1054  1.4625
15672TIP3   OH268430   0.886   5.371  15.554 -0.4567  0.1209  0.1682
15672TIP3    H168431   0.811   5.344  15.501 -1.1437  0.4804  0.9353
15672TIP3    H268432   0.940   5.423  15.494 -1.0408  0.2317 -0.2742
15673TIP3   OH268433   6.106   4.473  12.562  0.1929  0.1998 -0.3392
15673TIP3    H168434   6.181   4.415  12.574  1.2256  1.6875  0.6824
15673TIP3    H268435   6.030   4.421  12.588  0.6152 -1.8281 -2.7559
15674TIP3   OH268436   3.028   1.913  12.715 -0.4547  0.6669 -0.0054
15674TIP3    H168437   3.013   1.904  12.809 -3.1165 -0.1566 -0.4262
15674TIP3    H268438   3.112   1.870  12.700 -0.6499 -0.4646  1.8146
15675TIP3   OH268439   2.072   1.116   3.701 -0.6646  0.2911  0.3247
15675TIP3    H168440   2.115   1.031   3.690 -0.2705  0.6157 -0.7845
15675TIP3    H268441   2.002   1.115   3.636 -1.0705  0.5653  0.7548
15676TIP3   OH268442   2.004   6.783  11.514  0.1442 -0.2073  0.4207
15676TIP3    H168443   1.910   6.793  11.499  0.1887 -0.9341 -0.4381
15676TIP3    H268444   2.041   6.870  11.501 -0.3176 -0.0698  0.0246
15677TIP3   OH268445   0.342   0.039  15.322 -0.8091 -0.3279 -0.1396
15677TIP3    H168446   0.422   0.088  15.342 -1.3319  0.4129  0.2115
15677TIP3    H268447   0.331  -0.020  15.397 -2.0003  1.4503  1.1782
15678TIP3   OH268448   1.564   0.938   2.283 -0.3474  0.3351 -0.4502
15678TIP3    H168449   1.557   0.896   2.369  1.4018  1.7987  0.5049
15678TIP3    H268450   1.620   0.879   2.232  0.8023  0.6814  0.3501
15679TIP3   OH268451   5.145   6.102  13.587 -0.0254  0.4012  0.3862
15679TIP3    H168452   5.179   6.120  13.675  1.2558  0.5865 -0.1341
15679TIP3    H268453   5.094   6.022  13.597  0.5568  0.1244  1.1920
15680TIP3   OH268454   2.867   0.674  12.837  0.2571  0.7653  0.2973
15680TIP3    H168455   2.897   0.643  12.923 -0.6693  2.1509  1.1602
15680TIP3    H268456   2.826   0.597  12.797 -1.7444  0.7069  2.2620
15681TIP3   OH268457   1.872   5.211   1.629 -0.0149  0.2893 -0.2908
15681TIP3    H168458   1.798   5.162   1.665 -0.0725  1.3686  1.1356
15681TIP3    H268459   1.922   5.146   1.579  0.1232 -1.3269  1.8141
15682TIP3   OH268460   2.751   1.642   2.440 -0.0236 -0.8101  0.0321
15682TIP3    H168461   2.819   1.613   2.380  0.1769 -0.3990  0.0561
15682TIP3    H268462   2.737   1.734   2.418  2.3474  0.3521  2.6670
15683TIP3   OH268463   3.076   4.636  15.064 -0.4419  0.1147  0.3196
15683TIP3    H168464   3.103   4.614  15.153 -1.0868  0.6239  0.6484
15683TIP3    H268465   3.121   4.572  15.009  1.8893  1.2562  0.7670
15684TIP3   OH268466   1.273   2.517  11.591  0.1893  0.2130 -0.1761
15684TIP3    H168467   1.259   2.472  11.674 -0.2897  2.1373  0.8550
15684TIP3    H268468   1.207   2.586  11.589  1.1609  1.1776 -1.4351
15685TIP3   OH268469   6.314   2.295  12.760  0.1046 -0.3807  0.2735
15685TIP3    H168470   6.249   2.365  12.750  1.1341  0.5275 -0.2601
15685TIP3    H268471   6.398   2.340  12.759  0.7867 -1.6157  0.0816
15686TIP3   OH268472   4.737   3.427  13.940 -0.6687  0.1842 -0.4816
15686TIP3    H168473   4.769   3.356  13.996 -1.4118  0.7816  0.7388
15686TIP3    H268474   4.758   3.399  13.851 -0.5081 -1.3314  0.0126
15687TIP3   OH268475   6.225   5.275  12.447  0.4481  0.3263 -0.0184
15687TIP3    H168476   6.298   5.261  12.386  1.3598  2.6236  0.4683
15687TIP3    H268477   6.266   5.285  12.532 -0.6242 -0.2279  0.5846
15688TIP3   OH268478   2.711   5.105  14.260  0.4352  0.1651  0.1274
15688TIP3    H168479   2.662   5.187  14.262  0.4055  0.1675 -0.3781
15688TIP3    H268480   2.799   5.131  14.230  0.1306 -0.1130 -1.0704
15689TIP3   OH268481   5.466   3.373  16.869 -0.5148 -0.7495 -0.6084
15689TIP3    H168482   5.418   3.392  16.788 -1.6642 -1.8376 -0.2083
15689TIP3    H268483   5.408   3.401  16.939  0.6713  0.6310 -0.1177
15690TIP3   OH268484   2.736   3.618   6.110 -0.0766  0.3948 -0.0685
15690TIP3    H168485   2.643   3.598   6.123  0.0338  0.3914  0.8310
15690TIP3    H268486   2.778   3.586   6.190  0.8617 -0.5831 -0.9353
15691TIP3   OH268487   5.182   0.095  13.389  0.0663  0.1895  0.0018
15691TIP3    H168488   5.217   0.072  13.475  1.1299 -1.7502 -0.8670
15691TIP3    H268489   5.249   0.152  13.351 -0.2490  0.7786  0.3124
15692TIP3   OH268490   4.607   2.123   5.062  0.0323  0.3316 -0.5127
15692TIP3    H168491   4.594   2.186   4.992  0.4869 -0.3211 -1.2086
15692TIP3    H268492   4.634   2.043   5.017  0.5978 -0.0250  0.4273
15693TIP3   OH268493   0.553   0.769   0.053  0.1917 -0.5915  0.4232
15693TIP3    H168494   0.633   0.716   0.048 -0.2194 -1.4174  2.1343
15693TIP3    H268495   0.517   0.752   0.140 -0.8165  1.2954  0.4313
15694TIP3   OH268496   0.438   2.966   3.246  0.1215 -0.3265  0.6969
15694TIP3    H168497   0.415   3.052   3.211  0.5234 -1.0423 -1.4851
15694TIP3    H268498   0.356   2.917   3.248  0.1902 -0.4840  0.0700
15695TIP3   OH268499   6.608   4.619  16.728 -0.6329 -0.2432  0.2822
15695TIP3    H168500   6.525   4.664  16.715 -0.4519  0.2525  0.7961
15695TIP3    H268501   6.673   4.688  16.727 -0.2484 -0.6041  0.1262
15696TIP3   OH268502   1.786   5.137  14.137  0.0299 -0.2762  0.6789
15696TIP3    H168503   1.856   5.172  14.191  0.8257 -0.8534  0.0362
15696TIP3    H268504   1.818   5.052  14.107 -0.0665  0.3376 -1.3033
15697TIP3   OH268505   3.828   0.971   2.154  0.8313 -0.6698 -0.3016
15697TIP3    H168506   3.894   0.961   2.086  1.2946 -0.0192  0.0371
15697TIP3    H268507   3.746   0.987   2.107  1.1559 -0.1883 -0.7151
15698TIP3   OH268508   0.921   6.117  13.789  0.2586 -0.0811 -0.3716
15698TIP3    H168509   0.900   6.029  13.758  1.6090 -1.0507  1.2992
15698TIP3    H268510   0.939   6.167  13.709 -0.3932 -1.3410 -1.3415
15699TIP3   OH268511   0.164   2.022  14.091  0.0237 -0.5754 -0.1188
15699TIP3    H168512   0.093   1.959  14.101  1.1586 -2.0669 -0.9752
15699TIP3    H268513   0.149   2.062  14.005  0.1806 -0.8407 -0.2703
15700TIP3   OH268514   4.812   5.719   5.158 -0.1728 -0.0392 -0.0252
15700TIP3    H168515   4.885   5.688   5.213 -0.2567  2.2447  1.5254
15700TIP3    H268516   4.737   5.722   5.218 -0.8856  0.1904 -0.9080
15701TIP3   OH268517   1.708   0.657   1.899 -0.2102  0.1280  0.1696
15701TIP3    H168518   1.707   0.615   1.813 -2.1652 -2.9722  1.5055
15701TIP3    H268519   1.620   0.691   1.911 -0.0140  0.3686  1.0193
15702TIP3   OH268520   1.457   1.863   3.560 -0.6452  0.1999  0.0465
15702TIP3    H168521   1.365   1.889   3.566 -0.3549  1.1202  0.7430
15702TIP3    H268522   1.479   1.874   3.467 -1.2920 -0.2630 -0.1678
15703TIP3   OH268523   5.706   5.730  12.697  0.3015  0.0840 -0.0550
15703TIP3    H168524   5.721   5.639  12.670 -0.7329  0.2137 -1.1947
15703TIP3    H268525   5.793   5.765  12.714  0.7777 -0.8989 -0.3836
15704TIP3   OH268526   5.475   1.699   2.206  0.4514  0.3666 -0.2121
15704TIP3    H168527   5.467   1.765   2.136 -1.2643 -0.1350 -0.5284
15704TIP3    H268528   5.551   1.647   2.180 -0.3804 -0.0503 -1.9443
15705TIP3   OH268529   0.501   0.893  12.156  0.0710 -0.1143  0.1542
15705TIP3    H168530   0.519   0.915  12.064  4.9575 -0.7880  0.6810
15705TIP3    H268531   0.489   0.977  12.199  2.1644  0.5639 -0.4758
15706TIP3   OH268532   4.652   1.477  10.847  0.0396 -0.1773  0.0798
15706TIP3    H168533   4.648   1.557  10.899  0.8349 -0.5294  0.7030
15706TIP3    H268534   4.746   1.460  10.836 -0.1209 -0.9178 -0.2045
15707TIP3   OH268535   2.995   5.252  11.071 -0.6218 -0.2521 -0.2087
15707TIP3    H168536   3.060   5.183  11.086  1.2983  1.1630 -1.4967
15707TIP3    H268537   2.965   5.238  10.981 -0.3033  0.5161 -0.4371
15708TIP3   OH268538   4.132   5.046   2.390 -0.3517  0.1537  0.0788
15708TIP3    H168539   4.043   5.081   2.379  0.4457  2.1769 -0.5657
15708TIP3    H268540   4.173   5.058   2.304  0.7726 -0.0418  0.5651
15709TIP3   OH268541   3.902   0.263  11.763  0.3300 -0.4348 -0.4767
15709TIP3    H168542   3.975   0.212  11.729  0.2625 -1.3355  0.6857
15709TIP3    H268543   3.826   0.231  11.714  0.0211 -2.6175  1.2912
15710TIP3   OH268544   6.465   3.186   2.018 -0.8124 -0.0799 -0.5184
15710TIP3    H168545   6.516   3.266   2.034 -1.1893  0.0537  0.0403
15710TIP3    H268546   6.401   3.184   2.089 -0.4916 -1.1373 -0.2460
15711TIP3   OH268547   3.424   1.120   6.181 -0.0196  0.4916 -0.5039
15711TIP3    H168548   3.351   1.155   6.232  0.5400 -1.5250  1.8810
15711TIP3    H268549   3.502   1.150   6.228  0.5819  0.0357 -1.1983
15712TIP3   OH268550   5.706   4.663   2.236  0.0109 -0.7268 -0.7616
15712TIP3    H168551   5.619   4.663   2.196  0.0912 -0.3930 -0.9412
15712TIP3    H268552   5.708   4.744   2.288  0.4888 -0.3329 -1.3712
15713TIP3   OH268553   1.750   3.395  15.011  0.4085 -0.1002 -0.0402
15713TIP3    H168554   1.773   3.455  15.083  1.9949 -1.0657  0.2892
15713TIP3    H268555   1.815   3.413  14.943 -0.7729  0.4408 -1.0609
15714TIP3   OH268556   4.893   4.381  10.818  0.1064 -0.3681  0.5456
15714TIP3    H168557   4.868   4.399  10.909  0.0603  0.8204  0.3198
15714TIP3    H268558   4.813   4.351  10.776 -0.8523  2.5247  0.0578
15715TIP3   OH268559   6.600   0.854  12.864  0.2154 -0.4385  0.1955
15715TIP3    H168560   6.553   0.770  12.869  2.5093 -1.8040  0.1557
15715TIP3    H268561   6.638   0.854  12.776  0.5987  0.4536  0.3613
15716TIP3   OH268562   5.223   0.860   6.292 -0.3043 -0.2007 -0.2063
15716TIP3    H168563   5.190   0.771   6.281 -0.7932 -0.1290  0.5808
15716TIP3    H268564   5.234   0.869   6.387  0.6422  0.2616 -0.3535
15717TIP3   OH268565   1.796   4.911  11.126 -0.5239 -0.3887 -0.2156
15717TIP3    H168566   1.749   4.847  11.073 -2.8330  0.7994  0.2299
15717TIP3    H268567   1.755   4.995  11.103  1.3767  0.7341  0.3040
15718TIP3   OH268568   3.325   5.069  15.297 -0.1338  0.4072 -0.3707
15718TIP3    H168569   3.287   5.026  15.220  0.0184 -2.3523  0.9670
15718TIP3    H268570   3.359   4.997  15.350  1.7237  2.3716  1.2713
15719TIP3   OH268571   1.930   5.589   2.622 -0.1389 -0.7055  0.3589
15719TIP3    H168572   1.979   5.614   2.544  1.9044 -1.1085  1.4482
15719TIP3    H268573   1.897   5.671   2.658  0.9632 -0.2493  0.3667
15720TIP3   OH268574   6.540   4.067  16.648  0.5053 -0.2344  0.5207
15720TIP3    H168575   6.617   4.037  16.697  0.3797 -0.0316  0.8463
15720TIP3    H268576   6.469   4.068  16.713  0.0588 -1.1134  0.0576
15721TIP3   OH268577   5.982   4.275   1.575 -0.3006 -0.0751 -0.4954
15721TIP3    H168578   5.910   4.229   1.532 -2.0442 -1.5638  3.4690
15721TIP3    H268579   5.950   4.364   1.586  0.0236  0.2285 -1.8766
15722TIP3   OH268580   2.240   2.562  14.970 -0.2179 -0.4479  0.1011
15722TIP3    H168581   2.169   2.616  14.937  1.0732 -0.1143 -2.4503
15722TIP3    H268582   2.210   2.530  15.055 -2.0951  2.1436  0.5315
15723TIP3   OH268583   3.893   0.162  16.613  0.1440 -0.1042  0.6501
15723TIP3    H168584   3.942   0.226  16.666  2.1965  0.9288 -2.2103
15723TIP3    H268585   3.899   0.081  16.663 -0.3387  1.3103  3.2116
15724TIP3   OH268586   4.935   1.507  10.464 -0.5342 -0.2403  0.0600
15724TIP3    H168587   4.858   1.449  10.459 -0.3731 -0.4216 -0.3412
15724TIP3    H268588   5.002   1.462  10.412 -0.0805 -0.1983  0.5911
15725TIP3   OH268589   3.612   5.371  15.586 -0.3735 -0.2136 -0.2714
15725TIP3    H168590   3.696   5.391  15.627  0.0454  1.4128 -1.7932
15725TIP3    H268591   3.548   5.382  15.656  0.6030 -0.9461  0.7738
15726TIP3   OH268592   1.623   3.000   4.781 -0.2401  0.2674  0.0207
15726TIP3    H168593   1.606   2.908   4.763 -1.5443  0.4585  0.1659
15726TIP3    H268594   1.696   3.023   4.724 -0.8552 -0.4759 -1.0981
15727TIP3   OH268595   3.104   5.741  13.424  0.0602 -0.7840 -0.5804
15727TIP3    H168596   3.112   5.766  13.516  0.8048  0.0446 -0.8542
15727TIP3    H268597   3.159   5.804  13.377  1.8403 -2.7624 -1.3427
15728TIP3   OH268598   1.280   3.213  13.234  0.2971  0.3112  0.1089
15728TIP3    H168599   1.279   3.272  13.159 -0.6280  1.3248  0.8810
15728TIP3    H268600   1.293   3.271  13.309 -1.4515 -0.3482  0.9677
15729TIP3   OH268601   6.525   1.139   1.465 -0.7523  0.5578  0.0409
15729TIP3    H168602   6.601   1.153   1.521 -1.1805  0.5139  0.6460
15729TIP3    H268603   6.457   1.196   1.503 -1.3658 -0.2799  0.2246
15730TIP3   OH268604   3.848   5.005  11.265 -0.6593  0.0935  0.0302
15730TIP3    H168605   3.771   5.033  11.314 -2.9269 -0.3663 -2.9688
15730TIP3    H268606   3.854   5.068  11.193 -0.1956 -1.6845 -1.5699
15731TIP3   OH268607   1.718   2.849   0.352 -0.5837  0.5025  0.3579
15731TIP3    H168608   1.784   2.907   0.388 -0.1838  0.1523  0.1959
15731TIP3    H268609   1.745   2.761   0.380 -0.2292  0.2135 -0.8277
15732TIP3   OH268610   2.799   5.402  12.737 -0.4203 -0.0801  0.2112
15732TIP3    H168611   2.750   5.335  12.785 -0.2943  0.5716  1.3039
15732TIP3    H268612   2.824   5.466  12.805 -1.1004  1.4020 -0.8762
15733TIP3   OH268613   6.134   5.660  12.971  0.1657 -0.9401 -0.0394
15733TIP3    H168614   6.221   5.699  12.975 -0.0384 -0.4455 -0.3120
15733TIP3    H268615   6.149   5.572  12.937  0.5763 -0.9144  0.0711
15734TIP3   OH268616   1.030   4.657   5.250  0.2524 -0.1818  0.0560
15734TIP3    H168617   1.071   4.593   5.308 -0.1430 -1.7058 -1.2865
15734TIP3    H268618   0.955   4.611   5.212  0.1546  0.9623 -1.2068
15735TIP3   OH268619   3.246   5.698   4.854  0.5178  0.3088  0.1256
15735TIP3    H168620   3.258   5.611   4.817 -0.4313 -0.4109  1.4206
15735TIP3    H268621   3.259   5.758   4.780  1.3518 -0.9083 -0.7473
15736TIP3   OH268622   0.353   6.330  11.739 -0.3097  0.2663  0.5388
15736TIP3    H168623   0.313   6.286  11.664 -0.4366 -1.1361  1.3894
15736TIP3    H268624   0.280   6.377  11.780 -0.2075  1.1823 -0.2739
15737TIP3   OH268625   4.156   5.054  11.286 -0.2728 -0.0092  0.3564
15737TIP3    H168626   4.249   5.059  11.309  0.1924 -0.1255 -1.4009
15737TIP3    H268627   4.146   4.971  11.241 -0.4699  1.4637 -2.5235
15738TIP3   OH268628   4.477   4.027   0.535  0.5139  0.1220 -0.3419
15738TIP3    H168629   4.511   4.056   0.451  0.4180  1.2523 -0.0054
15738TIP3    H268630   4.434   3.943   0.516  0.2560  0.4950 -1.4742
15739TIP3   OH268631   3.550   1.707   5.653 -0.4960  0.0125 -0.7472
15739TIP3    H168632   3.592   1.653   5.586  1.8718  0.0881  0.5500
15739TIP3    H268633   3.609   1.782   5.662 -3.1557  2.4118 -1.7804
15740TIP3   OH268634   0.404   2.344  13.718 -0.3011  0.2794 -0.4050
15740TIP3    H168635   0.401   2.289  13.640 -0.1547  0.3390 -0.4540
15740TIP3    H268636   0.318   2.385  13.723 -0.5595 -0.2832 -0.1303
15741TIP3   OH268637   0.353   2.084   5.445  0.1118  0.0566 -0.0336
15741TIP3    H168638   0.381   2.166   5.404  1.4779  0.8476  2.2968
15741TIP3    H268639   0.293   2.111   5.515  0.9736 -0.8471  1.0983
15742TIP3   OH268640   3.933   2.624  14.784 -0.2346  0.0241  0.4592
15742TIP3    H168641   3.951   2.717  14.797 -1.6874  0.2268  1.2366
15742TIP3    H268642   3.850   2.609  14.829  0.0608 -1.6996  0.4966
15743TIP3   OH268643   3.315   1.878   1.379 -0.5407 -0.2265 -0.0704
15743TIP3    H168644   3.307   1.898   1.286  0.0386 -0.1237 -0.1028
15743TIP3    H268645   3.225   1.870   1.410 -0.7290 -0.6662 -0.7255
15744TIP3   OH268646   0.286   1.010  14.445  0.0186 -0.4017 -0.3883
15744TIP3    H168647   0.301   0.998  14.351  0.7522  1.5841 -0.5617
15744TIP3    H268648   0.191   1.001  14.455 -0.0830 -0.5167 -1.3369
15745TIP3   OH268649   1.724   0.197   2.728  0.1789 -0.2925 -0.2645
15745TIP3    H168650   1.629   0.201   2.734  0.2218  1.1405 -0.3406
15745TIP3    H268651   1.755   0.226   2.814  0.5832 -3.8106  0.9740
15746TIP3   OH268652   1.009   2.749  12.394  0.2387 -0.0926  0.1558
15746TIP3    H168653   0.982   2.660  12.418 -0.2952  0.7272  2.9707
15746TIP3    H268654   0.928   2.799  12.391  0.6675  0.6093  0.0913
15747TIP3   OH268655   4.970   3.589  13.288 -0.4153  0.6908  0.4108
15747TIP3    H168656   4.993   3.540  13.209  0.1169 -0.4412  1.2289
15747TIP3    H268657   5.026   3.666  13.287 -0.7100  0.9067 -0.5120
15748TIP3   OH268658   4.792   2.355  14.373 -0.4754  0.4369  1.1409
15748TIP3    H168659   4.887   2.352  14.364 -0.3525  1.2557  1.9627
15748TIP3    H268660   4.760   2.283  14.319  0.4951  1.2307 -0.5776
15749TIP3   OH268661   2.238   3.865  14.558 -0.2478  0.2581  0.4840
15749TIP3    H168662   2.242   3.900  14.469  1.4555 -0.2599  0.3205
15749TIP3    H268663   2.248   3.942  14.614  0.4883  0.3840  0.1868
15750TIP3   OH268664   4.131   3.357   3.811  0.1552  0.2308  0.3911
15750TIP3    H168665   4.180   3.413   3.870  0.6247 -0.2672  0.4858
15750TIP3    H268666   4.146   3.394   3.724 -0.7911  1.1464  0.6040
15751TIP3   OH268667   0.633   3.024   5.432  0.2896  0.0348 -1.0473
15751TIP3    H168668   0.572   2.951   5.445  0.8943 -0.8850 -2.9983
15751TIP3    H268669   0.621   3.049   5.340  2.6187  0.0384 -1.3934
15752TIP3   OH268670   1.211   0.236  13.536  0.1406 -0.4987 -0.5080
15752TIP3    H168671   1.294   0.280  13.555  0.4263 -2.0392  2.4455
15752TIP3    H268672   1.222   0.201  13.448  2.2230  0.2434 -0.6012
15753TIP3   OH268673   2.147   6.261  13.456  0.0076 -0.4532 -0.9381
15753TIP3    H168674   2.178   6.170  13.458 -0.9612 -0.8826  2.8474
15753TIP3    H268675   2.063   6.256  13.409  0.7352 -1.1562 -2.2270
15754TIP3   OH268676   0.164   1.887   0.371 -0.1704  0.1733 -0.4472
15754TIP3    H168677   0.214   1.840   0.304 -0.0556 -1.7952  0.9446
15754TIP3    H268678   0.085   1.834   0.384  0.1790  0.0493  1.5157
15755TIP3   OH268679   4.778   3.564   3.305 -0.2422 -0.1588 -0.1103
15755TIP3    H168680   4.746   3.525   3.224 -0.3843 -1.6731  0.6406
15755TIP3    H268681   4.838   3.499   3.341 -2.5663 -1.0024  2.5844
15756TIP3   OH268682   3.119   6.610   4.587  0.1322 -0.2074 -0.1930
15756TIP3    H168683   3.208   6.573   4.584 -1.0737 -3.4222  0.1321
15756TIP3    H268684   3.092   6.613   4.496  1.0552  2.3354 -0.4641
15757TIP3   OH268685   0.998   2.779   0.036  0.4145 -0.4454 -0.8478
15757TIP3    H168686   0.991   2.717  -0.037  0.4867  0.6164 -1.7804
15757TIP3    H268687   0.965   2.862   0.001  1.1852  0.2786  0.0848
15758TIP3   OH268688   2.374   4.434  16.436  0.3646  0.5703 -0.4373
15758TIP3    H168689   2.331   4.368  16.490  0.8261  0.2669 -0.4305
15758TIP3    H268690   2.466   4.429  16.461  0.5044  0.7783 -0.8916
15759TIP3   OH268691   6.399   1.286   5.702  0.2094 -0.8618  0.0365
15759TIP3    H168692   6.443   1.204   5.725  0.8674 -0.5903 -0.2405
15759TIP3    H268693   6.441   1.314   5.622  1.0229  0.5038  0.9046
15760TIP3   OH268694   2.712   6.357  11.786 -0.5569  0.5095  0.8327
15760TIP3    H168695   2.656   6.322  11.855 -2.2374  1.6693  0.1208
15760TIP3    H268696   2.763   6.282  11.756 -2.5409 -0.8693  0.7347
15761TIP3   OH268697   0.722   2.283   3.255  0.4416  0.5512 -0.7048
15761TIP3    H168698   0.641   2.263   3.208  0.5204  2.0385 -1.5390
15761TIP3    H268699   0.722   2.379   3.262  1.1714  0.4431  1.0377
15762TIP3   OH268700   6.729   3.555  15.670 -0.0616 -0.5407 -0.4460
15762TIP3    H168701   6.639   3.536  15.695  0.3958 -0.8620  1.0614
15762TIP3    H268702   6.724   3.640  15.625 -1.2677 -1.1910 -1.6040
15763TIP3   OH268703   1.209   6.378   5.700  0.0996  0.0906  0.1648
15763TIP3    H168704   1.209   6.440   5.627 -1.5418  0.0682  0.1093
15763TIP3    H268705   1.235   6.430   5.776 -0.9934  0.8114  0.0676
15764TIP3   OH268706   4.463   0.123  14.659 -0.3706  0.4181 -0.8886
15764TIP3    H168707   4.513   0.041  14.662  0.9144  1.1547 -1.3512
15764TIP3    H268708   4.387   0.107  14.715 -0.3355 -1.2094 -1.2487
15765TIP3   OH268709   4.973   3.782   0.634  0.0649  0.4863  0.3377
15765TIP3    H168710   5.040   3.781   0.703 -0.1539 -0.7904  0.5538
15765TIP3    H268711   5.019   3.815   0.557  1.7243 -2.6969 -0.2092
15766TIP3   OH268712   3.100   6.515  15.624 -0.1701 -0.2181 -0.1366
15766TIP3    H168713   3.170   6.565  15.581  0.4173 -0.1786  0.8175
15766TIP3    H268714   3.056   6.469  15.553  0.0612  0.7019 -0.8961
15767TIP3   OH268715   0.021   3.840   4.481 -0.4039  0.3908  0.8980
15767TIP3    H168716   0.022   3.927   4.520 -0.4306  1.0372 -0.4650
15767TIP3    H268717  -0.057   3.799   4.517 -0.1746  0.7713  1.8644
15768TIP3   OH268718   1.260   4.625  16.387 -0.2422 -0.3514  0.3766
15768TIP3    H168719   1.355   4.617  16.390 -0.2306 -0.1534  0.6591
15768TIP3    H268720   1.243   4.695  16.324 -0.0383  1.8474  2.5998
15769TIP3   OH268721   0.756   3.475   2.077  0.4136  0.2300  0.1444
15769TIP3    H168722   0.799   3.536   2.017  0.8234 -0.0853  0.1097
15769TIP3    H268723   0.678   3.445   2.031  0.3122  0.5873  0.0870
15770TIP3   OH268724   6.629   2.034   1.835 -0.2700 -0.1815 -0.1187
15770TIP3    H168725   6.591   2.081   1.909 -0.3428 -0.1956 -0.1474
15770TIP3    H268726   6.618   1.941   1.857 -1.1717 -0.1953 -0.5967
15771TIP3   OH268727   0.946   6.011  14.687  0.5156  0.2936 -0.5821
15771TIP3    H168728   0.866   6.050  14.722  0.8488  0.4831 -0.0200
15771TIP3    H268729   0.963   5.935  14.743  0.6035  0.1168 -0.8444
15772TIP3   OH268730   5.751   5.897   2.575  0.1596 -0.3184  0.1656
15772TIP3    H168731   5.689   5.970   2.571 -2.8541 -2.7072 -0.5988
15772TIP3    H268732   5.752   5.872   2.667 -0.8494 -0.8665  0.0450
15773TIP3   OH268733   0.772   5.762   6.843 -0.3739  0.0617 -0.7500
15773TIP3    H168734   0.805   5.684   6.798 -1.1880 -0.7217 -0.0303
15773TIP3    H268735   0.807   5.835   6.792  2.1507 -0.6858 -0.2336
15774TIP3   OH268736   4.986   2.940   4.702  0.4729  0.1770 -0.4027
15774TIP3    H168737   4.914   2.966   4.644 -1.0919 -1.0078  0.9364
15774TIP3    H268738   4.990   3.009   4.768 -0.2420 -0.3431  0.1959
15775TIP3   OH268739   1.376   5.280  15.349  0.3830 -0.3526 -0.0810
15775TIP3    H168740   1.293   5.263  15.394  0.3559 -2.3499 -0.7584
15775TIP3    H268741   1.351   5.289  15.257  0.7291  0.9262 -0.0579
15776TIP3   OH268742   5.635   4.836   5.330 -0.2104 -0.1167 -0.1281
15776TIP3    H168743   5.573   4.795   5.270 -0.6350  1.5495 -0.8979
15776TIP3    H268744   5.589   4.914   5.361  0.2327 -0.6423  1.9468
15777TIP3   OH268745   3.562   6.014  12.120 -0.4661  0.2528  0.5967
15777TIP3    H168746   3.542   5.951  12.050 -1.1414 -0.5783  1.5170
15777TIP3    H268747   3.599   6.089  12.074 -0.5976 -0.4048 -0.6291
15778TIP3   OH268748   6.527   0.866  12.133 -0.0288 -0.0263 -0.2987
15778TIP3    H168749   6.556   0.875  12.224 -0.0401 -0.4854 -0.2489
15778TIP3    H268750   6.608   0.872  12.082 -0.0464  0.4602 -0.2798
15779TIP3   OH268751   0.837   5.814   0.528 -0.2153  0.4271  0.1199
15779TIP3    H168752   0.920   5.818   0.481  0.4052 -1.4671  0.9823
15779TIP3    H268753   0.790   5.741   0.488 -1.4156  1.3433 -0.2217
15780TIP3   OH268754   3.963   0.881   0.296 -0.2555  0.1713 -0.3514
15780TIP3    H168755   3.933   0.904   0.208 -0.2842 -0.9634 -0.6525
15780TIP3    H268756   4.016   0.956   0.324 -2.2167  1.6310 -0.3544
15781TIP3   OH268757   4.994   0.730  16.694  0.0614  0.2351 -0.0662
15781TIP3    H168758   4.950   0.815  16.694 -0.3053  0.0474 -0.7793
15781TIP3    H268759   5.001   0.706  16.602 -1.5825 -1.3994  0.1744
15782TIP3   OH268760   0.033   1.473   0.956  0.0959  0.3218 -0.4405
15782TIP3    H168761  -0.014   1.493   0.875 -0.0457  1.7446 -0.0372
15782TIP3    H268762   0.120   1.511   0.944  0.5394 -0.6677 -0.4516
15783TIP3   OH268763   5.863   4.478   2.795  0.1050  0.2074 -0.1061
15783TIP3    H168764   5.818   4.558   2.825 -0.6855 -0.2364 -0.0776
15783TIP3    H268765   5.839   4.411   2.859 -1.1212 -0.6097 -1.3616
15784TIP3   OH268766   5.569   4.935   4.368 -0.0851 -0.3327 -0.0325
15784TIP3    H168767   5.647   4.978   4.331  0.0241 -2.4028 -2.5464
15784TIP3    H268768   5.501   4.950   4.303 -0.8359 -1.4149  0.4755
15785TIP3   OH268769   2.015   6.593  13.154 -0.8301  0.4633 -0.2640
15785TIP3    H168770   2.079   6.613  13.085  0.6127 -1.5910  0.3718
15785TIP3    H268771   2.031   6.659  13.221  0.1928  0.3985 -0.4154
15786TIP3   OH268772   5.817   2.930   3.912 -0.3471  0.7351 -0.3894
15786TIP3    H168773   5.734   2.961   3.876 -0.2372 -0.0928 -1.3927
15786TIP3    H268774   5.792   2.877   3.988 -0.7117  0.8670 -0.4156
15787TIP3   OH268775   0.734   3.389  13.794 -0.4972  0.4456 -0.4337
15787TIP3    H168776   0.723   3.351  13.706 -0.6231 -0.5026 -0.0185
15787TIP3    H268777   0.719   3.483  13.781 -0.1238  0.3813 -1.4974
15788TIP3   OH268778   4.226   4.385  16.390 -0.2737 -0.3493 -0.7620
15788TIP3    H168779   4.277   4.377  16.470 -0.2591 -1.8442 -0.9045
15788TIP3    H268780   4.141   4.347  16.412 -0.6388  0.2256 -1.1464
15789TIP3   OH268781   2.681   0.717   3.432  0.0195  0.0295  0.7010
15789TIP3    H168782   2.647   0.764   3.508  0.6228  1.8450 -0.0942
15789TIP3    H268783   2.604   0.703   3.377  0.1437  2.6596 -0.3265
15790TIP3   OH268784   2.378   2.097   4.435 -0.8624  0.1745  0.5773
15790TIP3    H168785   2.382   2.119   4.342  1.7631 -2.7164 -0.1616
15790TIP3    H268786   2.462   2.124   4.470  0.7861 -4.1006  0.5370
15791TIP3   OH268787   2.963   5.339   6.503 -0.0849 -0.4032 -0.0479
15791TIP3    H168788   2.899   5.402   6.471  1.0511  1.0554  0.3987
15791TIP3    H268789   2.936   5.255   6.466 -0.5212  0.6726 -2.3039
15792TIP3   OH268790   6.117   2.108  13.981 -0.8939 -0.0523 -0.0362
15792TIP3    H168791   6.050   2.147  13.926  0.5977  1.1169 -1.1129
15792TIP3    H268792   6.131   2.021  13.943 -1.2182  0.0135 -0.3151
15793TIP3   OH268793   3.853   6.433  14.679  0.3520  0.0163  0.0122
15793TIP3    H168794   3.901   6.508  14.713  1.8659  0.1080 -2.1381
15793TIP3    H268795   3.914   6.360  14.686 -0.5272 -0.6904  0.5721
15794TIP3   OH268796   2.911   6.631   1.743  0.8560 -0.0866 -0.0970
15794TIP3    H168797   2.955   6.687   1.807  0.2828  1.8657 -1.3031
15794TIP3    H268798   2.942   6.662   1.658 -1.2519  0.0142 -0.9046
15795TIP3   OH268799   5.218   2.681  13.063 -1.1808 -0.1403  0.6173
15795TIP3    H168800   5.132   2.658  13.100 -0.9993  0.6810  1.5948
15795TIP3    H268801   5.222   2.776  13.071 -0.3282 -0.1375  0.2136
15796TIP3   OH268802   0.616   3.676  15.598  0.1140  0.1264 -0.0568
15796TIP3    H168803   0.648   3.710  15.681  2.5505 -1.7625 -0.1255
15796TIP3    H268804   0.688   3.688  15.536 -1.0198 -0.0456 -1.4935
15797TIP3   OH268805   2.896   5.445   3.932 -0.3117  0.4715  0.0376
15797TIP3    H168806   2.914   5.371   3.990  0.6304  0.4238 -0.2927
15797TIP3    H268807   2.900   5.521   3.990  0.2346  0.3880  0.1179
15798TIP3   OH268808   4.721   6.103   0.706  0.2849  0.2371 -0.8954
15798TIP3    H168809   4.764   6.109   0.792  1.7373  1.4237 -1.6349
15798TIP3    H268810   4.649   6.042   0.718  1.6618 -1.1557  0.6746
15799TIP3   OH268811   3.322   2.542   5.409 -0.6064 -0.5157 -0.0316
15799TIP3    H168812   3.328   2.464   5.464  0.9049  0.1469  0.7883
15799TIP3    H268813   3.289   2.610   5.467  0.5009  0.0618 -0.0567
15800TIP3   OH268814   4.331   3.501   2.526 -0.0533  0.2040  0.2026
15800TIP3    H168815   4.282   3.537   2.599 -1.0191 -1.0512  0.1992
15800TIP3    H268816   4.301   3.410   2.519  1.0301 -0.0949 -0.8785
15801TIP3   OH268817   1.275   4.503   4.901  0.3086 -0.1156 -0.2538
15801TIP3    H168818   1.290   4.576   4.961  1.1355 -0.6236  0.1936
15801TIP3    H268819   1.189   4.519   4.863 -0.0267  0.4747  0.7219
15802TIP3   OH268820   3.718   4.990   4.196  0.7121  0.4215 -0.1802
15802TIP3    H168821   3.703   5.035   4.279 -0.6106  2.6926 -1.5299
15802TIP3    H268822   3.805   5.020   4.167  0.2669  1.3743 -0.5863
15803TIP3   OH268823   4.123   1.625   1.541 -0.1133  0.5265  0.6301
15803TIP3    H168824   4.103   1.713   1.571 -1.8474  0.4846 -0.3180
15803TIP3    H268825   4.158   1.636   1.453 -1.7302  0.1997 -0.0785
15804TIP3   OH268826   5.581   0.826  11.307 -0.5968  0.0654  0.4928
15804TIP3    H168827   5.664   0.852  11.266 -1.1036  1.5890  0.3437
15804TIP3    H268828   5.571   0.734  11.285  0.6665  0.0650 -0.1749
15805TIP3   OH268829   0.428   5.267  13.860 -0.2375 -0.0894  0.3345
15805TIP3    H168830   0.337   5.282  13.837 -0.3705 -1.6793 -0.3657
15805TIP3    H268831   0.464   5.354  13.877 -1.4469  0.7327 -1.0684
15806TIP3   OH268832   4.470   6.339  14.012 -0.4201  0.3358  0.4497
15806TIP3    H168833   4.440   6.250  14.029 -0.9921  0.2165 -1.0314
15806TIP3    H268834   4.478   6.344  13.916  1.8442  1.1610  0.6146
15807TIP3   OH268835   6.521   1.892  12.181  0.4069  0.1587  0.5640
15807TIP3    H168836   6.579   1.825  12.218  2.2768 -0.2032 -2.7043
15807TIP3    H268837   6.446   1.843  12.147  0.5600  0.0314  0.4099
15808TIP3   OH268838   6.222   0.253   1.753  0.3192  0.2684 -0.6879
15808TIP3    H168839   6.131   0.242   1.727  0.9922  0.6619 -3.4725
15808TIP3    H268840   6.238   0.347   1.744  1.5984 -0.0741 -2.6427
15809TIP3   OH268841   4.924   5.071  15.421 -0.8323  0.7751 -0.5169
15809TIP3    H168842   4.867   5.039  15.490 -1.1775  1.6561 -0.3844
15809TIP3    H268843   4.975   5.141  15.462 -0.3754  0.6756 -0.9055
15810TIP3   OH268844   3.476   4.386  10.555 -0.2394 -0.3464  0.2420
15810TIP3    H168845   3.554   4.364  10.605  0.0895  0.4908  0.1163
15810TIP3    H268846   3.500   4.465  10.506 -0.9164 -0.5096 -0.3799
15811TIP3   OH268847   5.787   0.359  11.545  0.1133  0.0792 -0.1065
15811TIP3    H168848   5.755   0.445  11.570  1.1189 -0.0733  1.8498
15811TIP3    H268849   5.812   0.317  11.627  0.7828 -1.6290 -1.1210
15812TIP3   OH268850   6.612   5.581   2.733 -0.3156  0.3130  0.8976
15812TIP3    H168851   6.629   5.661   2.783 -0.6177  1.2369 -0.4143
15812TIP3    H268852   6.519   5.587   2.711 -0.1484  0.0217  0.0882
15813TIP3   OH268853   6.193   1.517   3.346  0.1882  0.1100 -0.0422
15813TIP3    H168854   6.184   1.496   3.253 -0.9748  0.1225  0.0554
15813TIP3    H268855   6.121   1.471   3.388  1.0145 -0.3163  0.9330
15814TIP3   OH268856   0.491   2.705   2.536  0.8779  0.7091 -0.3917
15814TIP3    H168857   0.484   2.728   2.444 -0.0358  1.3511 -0.1782
15814TIP3    H268858   0.568   2.754   2.567  0.7457  1.0771 -0.6390
15815TIP3   OH268859   1.854   4.101   2.715 -0.4865 -0.4035  0.1967
15815TIP3    H168860   1.906   4.119   2.636 -1.0031  1.5485  0.2639
15815TIP3    H268861   1.903   4.143   2.786 -0.4603 -1.4418  0.8277
15816TIP3   OH268862   2.228   3.886  14.256 -0.1520 -0.4053 -0.7982
15816TIP3    H168863   2.247   3.870  14.164 -0.2653  0.3420 -0.9587
15816TIP3    H268864   2.273   3.968  14.277 -0.1573 -0.5488 -0.2019
15817TIP3   OH268865   3.378   1.702  12.173 -0.5511  0.0743 -0.0261
15817TIP3    H168866   3.316   1.630  12.173 -0.4264 -0.0511 -0.9878
15817TIP3    H268867   3.355   1.755  12.249 -0.6360 -0.9766  0.6862
15818TIP3   OH268868   1.855   3.849  11.867 -0.1745 -0.1900 -0.7509
15818TIP3    H168869   1.792   3.827  11.798 -0.4591 -0.5201 -0.3856
15818TIP3    H268870   1.894   3.931  11.837 -1.9435  0.9193 -0.2007
15819TIP3   OH268871   4.959   6.028   0.923 -0.0921 -0.1273  0.3423
15819TIP3    H168872   5.034   6.064   0.970  0.3084  0.1955 -0.5246
15819TIP3    H268873   4.899   6.001   0.992  0.5406  0.2016  1.0432
15820TIP3   OH268874   4.510   5.293   1.877 -0.5614 -0.2454  0.4277
15820TIP3    H168875   4.514   5.293   1.973 -0.2579  1.6534  0.4524
15820TIP3    H268876   4.602   5.284   1.850 -0.6392 -0.7016  0.3129
15821TIP3   OH268877   3.528   4.192   1.790  0.1403 -0.1071 -0.1407
15821TIP3    H168878   3.433   4.191   1.795  0.0776 -1.3051 -1.0808
15821TIP3    H268879   3.551   4.110   1.745  1.5573  0.5162 -0.6265
15822TIP3   OH268880   0.032   0.409   5.741 -0.0505  0.1789 -0.0436
15822TIP3    H168881  -0.054   0.431   5.777 -0.8112  0.0621 -1.7113
15822TIP3    H268882   0.065   0.340   5.798 -0.2687  1.4088  1.6494
15823TIP3   OH268883   2.095   0.393  15.161  0.5608  0.5122  0.7593
15823TIP3    H168884   2.012   0.434  15.136  0.8345  0.7994  0.3024
15823TIP3    H268885   2.152   0.406  15.085  1.4957  1.6119  1.6101
15824TIP3   OH268886   1.902   0.922   5.823 -0.5864 -0.3347  0.4435
15824TIP3    H168887   1.906   1.010   5.786 -0.0717 -0.7726 -0.5966
15824TIP3    H268888   1.861   0.869   5.754  2.1982 -1.5734 -0.3875
15825TIP3   OH268889   5.406   1.017  12.750  0.0832  0.6531 -0.4385
15825TIP3    H168890   5.417   0.938  12.697  1.1263  0.1689  0.4510
15825TIP3    H268891   5.460   1.083  12.706  0.3311  0.4672 -0.4211
15826TIP3   OH268892   3.218   3.050   1.248  0.1715 -0.2911  0.1671
15826TIP3    H168893   3.170   2.967   1.249  2.9042 -1.9966  0.1006
15826TIP3    H268894   3.220   3.077   1.340 -1.1992  0.0625  0.1245
15827TIP3   OH268895   3.908   5.369   6.147  0.1102 -0.1900 -0.5654
15827TIP3    H168896   3.858   5.336   6.072  0.6330 -0.1531 -0.9382
15827TIP3    H268897   3.920   5.293   6.204  1.2641 -0.6465 -1.3932
15828TIP3   OH268898   2.484   0.425  13.181 -0.3559  0.1583 -0.5483
15828TIP3    H168899   2.451   0.346  13.138  1.8597 -0.5785 -1.0174
15828TIP3    H268900   2.533   0.471  13.113 -0.0349  0.9599  0.2065
15829TIP3   OH268901   4.074   1.594  10.491  0.2670  0.3156  0.5701
15829TIP3    H168902   4.045   1.565  10.405 -0.7727 -1.2461  1.3832
15829TIP3    H268903   4.158   1.636  10.476 -0.0191  0.3080 -1.2252
15830TIP3   OH268904   0.671   1.216  12.812 -0.9968 -0.4100  0.5210
15830TIP3    H168905   0.712   1.170  12.739 -1.7566 -0.4610  0.1206
15830TIP3    H268906   0.740   1.223  12.878 -0.1777  0.0543 -0.3808
15831TIP3   OH268907   6.431   4.611   3.473 -0.3352 -0.4697 -0.0445
15831TIP3    H168908   6.402   4.652   3.554  0.8804 -1.3535  0.8897
15831TIP3    H268909   6.395   4.665   3.403  0.2673  1.4924  1.1075
15832TIP3   OH268910   0.185   4.685   5.759 -0.3000 -0.3886 -0.1334
15832TIP3    H168911   0.156   4.705   5.848 -2.5187 -1.8209 -0.4536
15832TIP3    H268912   0.153   4.596   5.743  0.2034 -0.2313 -2.3088
15833TIP3   OH268913   5.210   6.774   5.335  0.1438  0.1246 -0.5357
15833TIP3    H168914   5.208   6.848   5.274  0.0236 -1.1812 -2.1940
15833TIP3    H268915   5.296   6.780   5.377  0.8399  0.2838 -1.8967
15834TIP3   OH268916   6.440   0.163   5.445  0.4182  0.4616  0.2461
15834TIP3    H168917   6.350   0.190   5.429 -0.5914 -1.9063  1.3869
15834TIP3    H268918   6.463   0.110   5.368 -0.3017 -1.3536  1.1972
15835TIP3   OH268919   4.080   0.914  10.871  0.5951  0.0852 -0.1453
15835TIP3    H168920   4.068   0.967  10.950  0.3379 -1.2387  0.7296
15835TIP3    H268921   4.023   0.954  10.806  1.8769  2.0880 -0.1481
15836TIP3   OH268922   3.131   0.396   2.374 -0.6055 -0.0006 -0.2072
15836TIP3    H168923   3.052   0.373   2.326 -0.5392 -1.0849  0.1664
15836TIP3    H268924   3.151   0.486   2.347 -1.3171 -0.1184 -1.1637
15837TIP3   OH268925   3.883   5.329  15.704 -0.2988  0.0001 -0.0147
15837TIP3    H168926   3.901   5.420  15.726 -0.6794 -0.0467  0.5207
15837TIP3    H268927   3.915   5.279  15.779 -0.3386 -0.2849 -0.1847
15838TIP3   OH268928   4.295   5.927   5.856  0.3182 -0.5161 -0.0139
15838TIP3    H168929   4.304   5.935   5.761 -1.6039 -0.0638 -0.1997
15838TIP3    H268930   4.291   6.017   5.887 -1.7524 -0.6090  0.1427
15839TIP3   OH268931   5.322   1.493   2.090 -0.4353 -0.0634 -0.4901
15839TIP3    H168932   5.327   1.566   2.152 -0.0757  1.6962 -2.4638
15839TIP3    H268933   5.406   1.494   2.044 -0.3709 -1.8376 -0.4989
15840TIP3   OH268934   2.960   2.111   2.233 -0.2174  0.0655  0.1787
15840TIP3    H168935   3.024   2.040   2.223  3.1656  2.7938  0.5766
15840TIP3    H268936   2.975   2.168   2.159 -3.8579 -0.1484 -0.9130
15841TIP3   OH268937   1.989   3.421  11.367 -0.5729 -0.6236 -0.4059
15841TIP3    H168938   1.897   3.448  11.368 -0.6035 -0.7406  0.1455
15841TIP3    H268939   2.012   3.410  11.459  0.0950 -0.2658 -0.5238
15842TIP3   OH268940   1.051   6.650  13.960 -0.0961 -0.0910  0.2952
15842TIP3    H168941   1.001   6.613  14.033 -0.7574 -0.8841 -0.5405
15842TIP3    H268942   1.107   6.579  13.930  0.5523  0.3881  0.3548
15843TIP3   OH268943   0.712   2.974   4.214 -0.2091  0.0032 -0.2061
15843TIP3    H168944   0.669   3.002   4.294  1.5426 -1.8179  1.5075
15843TIP3    H268945   0.683   2.883   4.202  0.2746 -0.0462 -1.0998
15844TIP3   OH268946   0.529   4.061   5.952 -0.0253  0.1574 -0.2219
15844TIP3    H168947   0.579   3.983   5.926 -1.6491 -0.8858 -0.3082
15844TIP3    H268948   0.540   4.066   6.047  0.8237  0.3701 -0.3191
15845TIP3   OH268949   1.054   6.083   4.944 -0.6997  0.1452 -0.0728
15845TIP3    H168950   1.030   6.114   4.857  0.5711  1.0350 -0.1313
15845TIP3    H268951   1.149   6.091   4.947 -0.6155 -1.0804  0.9565
15846TIP3   OH268952   3.254   0.217   4.968 -0.5012 -0.0189 -0.1005
15846TIP3    H168953   3.268   0.151   4.901  2.6225  0.2115  0.1832
15846TIP3    H268954   3.318   0.196   5.036 -1.7650  1.3218  1.6053
15847TIP3   OH268955   5.205   3.490  13.119 -0.4705  0.2803 -0.1880
15847TIP3    H168956   5.224   3.564  13.176 -0.5805 -1.2743  1.9637
15847TIP3    H268957   5.289   3.445  13.108 -0.6480 -0.0143 -0.3887
15848TIP3   OH268958   5.731   6.684  11.705  0.3129  0.3928  1.5088
15848TIP3    H168959   5.664   6.618  11.688  0.6263  0.0419  1.6076
15848TIP3    H268960   5.805   6.659  11.650  0.1449  1.1345  0.9317
15849TIP3   OH268961   6.491   4.571   1.650  0.1755  0.5114  0.8883
15849TIP3    H168962   6.574   4.580   1.603  0.3356 -1.3585  0.7360
15849TIP3    H268963   6.424   4.575   1.581  0.1351  1.7452  0.9810
15850TIP3   OH268964   6.203   3.101  15.754 -0.0336  0.3390 -0.6552
15850TIP3    H168965   6.239   3.013  15.764 -0.2946  0.5001  3.1267
15850TIP3    H268966   6.127   3.090  15.697  0.7423 -1.5654 -1.4295
15851TIP3   OH268967   0.149   0.475  12.561  0.0827  0.0776  0.4425
15851TIP3    H168968   0.153   0.551  12.619 -0.8695 -0.0004  0.6184
15851TIP3    H268969   0.060   0.441  12.572 -0.7691  1.1084 -2.4017
15852TIP3   OH268970   2.865   3.649  12.298 -0.3419 -0.2077  0.2352
15852TIP3    H168971   2.927   3.575  12.303  0.0078 -0.0008 -0.7348
15852TIP3    H268972   2.802   3.632  12.367  0.0142 -1.1708  0.3415
15853TIP3   OH268973   4.996   4.926  12.959 -0.1509  0.1962  0.6476
15853TIP3    H168974   5.031   5.015  12.964 -0.7674  0.4979 -0.3107
15853TIP3    H268975   4.956   4.911  13.045 -1.0383  1.2674  0.4319
15854TIP3   OH268976   6.142   5.010  11.276  0.2921  0.1076 -0.1386
15854TIP3    H168977   6.058   5.018  11.320 -0.7425 -1.7773 -1.6143
15854TIP3    H268978   6.175   5.100  11.270 -1.2744  0.8085  1.0791
15855TIP3   OH268979   3.195   2.628   1.112 -0.0279  0.3069 -0.0819
15855TIP3    H168980   3.263   2.692   1.130 -0.7415  0.4934  2.4146
15855TIP3    H268981   3.205   2.562   1.182 -2.2586  0.2735  0.2930
15856TIP3   OH268982   2.799   4.348  12.681 -0.0161  0.1420  0.5445
15856TIP3    H168983   2.882   4.340  12.635  0.7633 -0.4158  1.9953
15856TIP3    H268984   2.822   4.381  12.767 -1.2028 -0.7879  1.2493
15857TIP3   OH268985   0.211   4.515  10.522 -0.6859 -0.6598 -0.3050
15857TIP3    H168986   0.273   4.571  10.569 -0.0776 -1.3985 -0.1934
15857TIP3    H268987   0.138   4.505  10.582 -1.6379  1.4457 -1.0323
15858TIP3   OH268988   2.222   2.809  13.934 -0.1684 -0.4480  0.2246
15858TIP3    H168989   2.243   2.837  14.023  2.0622 -1.5263  0.1276
15858TIP3    H268990   2.308   2.788  13.895 -0.8058  2.1091 -2.9600
15859TIP3   OH268991   4.596   2.232   6.363 -0.3152 -0.1472 -0.6623
15859TIP3    H168992   4.631   2.321   6.352 -0.1033  0.0218  1.0565
15859TIP3    H268993   4.673   2.179   6.385 -0.7042 -0.3454  0.2741
15860TIP3   OH268994   3.354   3.367   3.413  0.5884  0.4044 -0.5729
15860TIP3    H168995   3.436   3.401   3.450  0.8964 -0.6688 -0.2347
15860TIP3    H268996   3.285   3.410   3.463  0.8916  2.0223 -1.4625
15861TIP3   OH268997   1.607   4.282  11.331 -0.1868 -0.0356 -0.6024
15861TIP3    H168998   1.673   4.230  11.377 -0.0062  0.2113 -0.5802
15861TIP3    H268999   1.534   4.222  11.320 -1.0255  0.4236  1.7535
15862TIP3   OH269000   5.895   2.444  14.725  0.4093 -0.4799 -0.3841
15862TIP3    H169001   5.982   2.484  14.723  0.6608 -0.9952  0.0094
15862TIP3    H269002   5.911   2.351  14.739 -0.2079 -0.5760 -0.2578
15863TIP3   OH269003   6.219   6.155  12.029 -0.1602  0.0541  0.2912
15863TIP3    H169004   6.253   6.231  12.076  0.3218  0.9922 -1.5181
15863TIP3    H269005   6.126   6.155  12.050  0.0524  0.3601  1.3368
15864TIP3   OH269006   1.448   5.819   1.268  0.7690 -0.3477  0.1734
15864TIP3    H169007   1.460   5.867   1.186  2.6254 -0.2005  0.4774
15864TIP3    H269008   1.524   5.844   1.321 -0.8459  0.2747  2.3141
15865TIP3   OH269009   6.712   5.745   6.390 -0.3303 -0.1773  0.6785
15865TIP3    H169010   6.746   5.660   6.418  2.0702  0.8354  1.0141
15865TIP3    H269011   6.690   5.789   6.472 -1.7006 -0.4664  0.4994
15866TIP3   OH269012   6.543   0.136   3.154 -0.2002  0.0487  0.5571
15866TIP3    H169013   6.469   0.189   3.184 -0.6568  0.6625 -1.5532
15866TIP3    H269014   6.611   0.199   3.130 -0.6155 -0.2703 -1.6322
15867TIP3   OH269015   2.132   4.359   5.391 -0.2403 -0.5607 -0.1727
15867TIP3    H169016   2.094   4.423   5.452 -1.1100 -0.2770 -0.9959
15867TIP3    H269017   2.218   4.339   5.429 -0.1977  0.6385  0.4280
15868TIP3   OH269018   5.052   2.632   0.673  0.3710  0.6205 -0.2102
15868TIP3    H169019   4.959   2.613   0.688  0.6371 -1.3962 -0.8514
15868TIP3    H269020   5.052   2.711   0.619 -0.9108  1.4142  0.8824
15869TIP3   OH269021   4.470   4.972  13.701  0.0923 -0.2739 -0.1388
15869TIP3    H169022   4.533   5.034  13.665  0.1501 -0.2529  0.0009
15869TIP3    H269023   4.385   5.008  13.674 -0.0521  1.3351  2.1491
15870TIP3   OH269024   4.882   1.444   1.986  0.1568 -0.3222  0.4866
15870TIP3    H169025   4.921   1.486   2.063  0.0734 -0.3094  0.5232
15870TIP3    H269026   4.789   1.465   1.994  0.1625 -0.2413  0.3305
15871TIP3   OH269027   1.448   1.344  14.554 -0.3849 -0.2938 -0.8608
15871TIP3    H169028   1.449   1.259  14.597 -0.0408  0.7971  1.4412
15871TIP3    H269029   1.376   1.391  14.595  0.9353  1.3449 -0.2762
15872TIP3   OH269030   2.382   1.457  10.788 -0.0295  0.0363 -0.2565
15872TIP3    H169031   2.405   1.549  10.773 -1.1896  0.2948 -0.5628
15872TIP3    H269032   2.368   1.422  10.700 -0.4957 -0.1916 -0.0896
15873TIP3   OH269033   2.891   1.064  14.167 -0.1321 -0.1263 -0.2319
15873TIP3    H169034   2.814   1.063  14.224 -0.0118 -0.4458 -0.0742
15873TIP3    H269035   2.917   1.156  14.164 -0.4016 -0.0443 -0.1282
15874TIP3   OH269036   3.285   5.683   5.578  0.4036  0.0107  0.3641
15874TIP3    H169037   3.380   5.673   5.584  0.4896  0.5375 -0.0520
15874TIP3    H269038   3.256   5.607   5.528  0.6671  0.1379  0.0215
15875TIP3   OH269039   2.010   3.509  12.817 -0.0491 -0.2729  0.3840
15875TIP3    H169040   2.099   3.483  12.790 -0.5554 -0.9240 -0.7719
15875TIP3    H269041   1.982   3.571  12.749 -0.3977  0.0866  0.8555
15876TIP3   OH269042   1.147   3.627   0.357 -0.6879  0.5549  0.2424
15876TIP3    H169043   1.075   3.688   0.372  0.6246  2.0656  0.6295
15876TIP3    H269044   1.198   3.668   0.287  2.1496  1.7816  2.8011
15877TIP3   OH269045   5.682   2.304  14.542  0.1668 -0.4692  0.2390
15877TIP3    H169046   5.738   2.227  14.534  0.3232 -0.5611  1.9178
15877TIP3    H269047   5.742   2.378  14.531  0.5924 -0.5710  1.6769
15878TIP3   OH269048   2.049   4.512   1.238 -0.5635 -0.0275 -0.8193
15878TIP3    H169049   1.973   4.499   1.182 -0.0121 -0.0639 -1.5776
15878TIP3    H269050   2.122   4.472   1.190 -0.2639 -1.0631  0.4399
15879TIP3   OH269051   4.246   2.816  11.876  0.4908  0.3288 -0.2743
15879TIP3    H169052   4.217   2.808  11.967  0.1867  1.3518 -0.2664
15879TIP3    H269053   4.174   2.779  11.825  0.5101  0.0668 -0.1113
15880TIP3   OH269054   6.361   5.392  16.140  0.2782 -0.8203 -0.1537
15880TIP3    H169055   6.410   5.375  16.221 -0.2382  0.2814  0.4024
15880TIP3    H269056   6.307   5.314  16.128 -0.4016 -0.5738  1.1348
15881TIP3   OH269057   3.696   2.995  14.173 -0.0418 -0.8888 -0.2384
15881TIP3    H169058   3.689   2.941  14.094  2.8579 -2.5664  0.4815
15881TIP3    H269059   3.757   3.065  14.149  0.5401 -1.1790  0.3545
15882TIP3   OH269060   0.400   2.216  12.457 -0.6918 -0.5926 -0.5925
15882TIP3    H169061   0.368   2.177  12.376 -0.2269 -0.1939 -0.9777
15882TIP3    H269062   0.356   2.301  12.462 -1.6990 -1.1526  0.2410
15883TIP3   OH269063   4.340   2.154  11.074  0.1779  0.1980  0.3404
15883TIP3    H169064   4.404   2.143  11.004  0.1333  0.8540  0.1929
15883TIP3    H269065   4.373   2.228  11.126  0.0051 -0.0296  0.7789
15884TIP3   OH269066   1.076   5.002   5.599  0.5147 -0.3253  0.1533
15884TIP3    H169067   1.017   4.966   5.665 -0.1919  0.5777  0.0446
15884TIP3    H269068   1.050   4.958   5.518 -1.3960  1.4415 -0.2834
15885TIP3   OH269069   0.849   3.189   0.299 -0.0165  0.1874  0.0718
15885TIP3    H169070   0.756   3.211   0.294 -0.6967 -2.5122 -1.0110
15885TIP3    H269071   0.851   3.099   0.332  2.0936 -0.4140 -1.4610
15886TIP3   OH269072   4.937   2.240  12.513 -0.2494  0.4321  0.7214
15886TIP3    H169073   4.962   2.330  12.492 -0.1717  0.5147  1.1625
15886TIP3    H269074   4.850   2.230  12.474 -0.1949  0.6461  0.5385
15887TIP3   OH269075   4.682   5.609   4.570  0.2319  0.1380 -0.4047
15887TIP3    H169076   4.707   5.517   4.562  0.9004  0.2936 -0.1889
15887TIP3    H269077   4.685   5.628   4.664 -0.7466  0.1603 -0.3670
15888TIP3   OH269078   3.503   6.088  11.014  0.2840  1.1088  0.3921
15888TIP3    H169079   3.593   6.056  11.022  0.4728  1.7487  0.9652
15888TIP3    H269080   3.506   6.152  10.943  0.0512  0.3857 -0.2881
15889TIP3   OH269081   0.576   3.441  11.967  0.0253  0.6414 -0.0541
15889TIP3    H169082   0.516   3.492  12.022  0.0624  0.2423  0.3693
15889TIP3    H269083   0.639   3.404  12.029  0.1702  0.3283 -0.3872
15890TIP3   OH269084   2.183   2.761   1.273 -0.6199  0.2636  0.6136
15890TIP3    H169085   2.117   2.815   1.230 -1.1998  0.8309  2.1392
15890TIP3    H269086   2.258   2.820   1.286 -0.5126  0.1479  0.5151
15891TIP3   OH269087   1.283   6.795  11.463 -0.9458 -0.0225  0.6092
15891TIP3    H169088   1.260   6.827  11.550  1.2167  1.0877  0.8375
15891TIP3    H269089   1.269   6.700  11.468 -0.5437 -0.0149  2.2687
15892TIP3   OH269090   5.160   2.104  15.988  0.1376 -0.3363 -0.3552
15892TIP3    H169091   5.236   2.047  15.984  0.6277  0.0826  1.8969
15892TIP3    H269092   5.088   2.047  16.016 -0.0480 -0.4049 -0.9438
15893TIP3   OH269093   3.597   3.531  13.501  0.0690 -0.2242  0.0087
15893TIP3    H169094   3.521   3.588  13.488 -0.8749 -1.7781 -1.5451
15893TIP3    H269095   3.560   3.445  13.520  1.4753 -0.6047  1.2519
15894TIP3   OH269096   6.338   2.205   2.625 -0.6490 -0.6233 -0.1128
15894TIP3    H169097   6.424   2.164   2.622  0.0973  0.9516 -1.6366
15894TIP3    H269098   6.308   2.191   2.715  1.6753 -0.2677  0.7750
15895TIP3   OH269099   2.579   6.531  14.178  0.5138 -0.4736 -0.2002
15895TIP3    H169100   2.484   6.542  14.181  0.4932 -0.9025  2.3730
15895TIP3    H269101   2.614   6.601  14.233  1.7163 -0.3875 -1.0251
15896TIP3   OH269102   0.146   2.682  12.794  0.0183 -0.5048 -0.1713
15896TIP3    H169103   0.147   2.762  12.846  2.1205 -0.2455 -0.5273
15896TIP3    H269104   0.113   2.709  12.708 -1.4911 -0.5310  0.3657
15897TIP3   OH269105   6.390   0.474  15.730 -0.1436  0.8138  0.5875
15897TIP3    H169106   6.371   0.549  15.786 -1.4916  1.4683 -0.6732
15897TIP3    H269107   6.327   0.407  15.759  0.1637  0.6318  0.8358
15898TIP3   OH269108   4.482   3.192   1.430 -0.6436 -0.0881 -0.7992
15898TIP3    H169109   4.479   3.282   1.464 -1.8168 -0.0665 -0.8951
15898TIP3    H269110   4.474   3.137   1.508  0.1335 -0.1094 -0.7354
15899TIP3   OH269111   2.551   1.588  13.094  0.5449  0.2587  0.4989
15899TIP3    H169112   2.622   1.539  13.136  2.1740  0.5434 -1.6875
15899TIP3    H269113   2.597   1.656  13.043 -0.9649 -1.4001 -3.4629
15900TIP3   OH269114   5.943   5.257  15.859  0.0860 -0.3701 -0.0441
15900TIP3    H169115   5.887   5.219  15.791  1.6772  1.7814 -2.7411
15900TIP3    H269116   6.026   5.212  15.850  0.2445 -0.2349  0.6760
15901TIP3   OH269117   5.655   3.932   4.883 -0.1605  0.1456 -0.0733
15901TIP3    H169118   5.669   3.843   4.850  0.7546  0.2411  0.0191
15901TIP3    H269119   5.706   3.988   4.824  0.5310  0.4433  0.7833
15902TIP3   OH269120   4.736   4.514   3.675 -0.6393 -0.5616 -0.4293
15902TIP3    H169121   4.695   4.601   3.669 -0.2039 -0.4207 -1.6435
15902TIP3    H269122   4.814   4.521   3.620 -0.6274 -1.7480 -0.5761
15903TIP3   OH269123   6.005   3.833   0.977  0.2185  0.0426 -0.2914
15903TIP3    H169124   5.914   3.812   0.952 -0.3580  0.7675  1.0876
15903TIP3    H269125   6.021   3.918   0.936  0.0260  0.2343  0.0247
15904TIP3   OH269126   5.817   5.185   5.808  0.4132  0.3149 -0.0886
15904TIP3    H169127   5.754   5.176   5.737 -0.2608 -0.1404  0.5478
15904TIP3    H269128   5.809   5.103   5.858  1.5020  0.2574  0.0134
15905TIP3   OH269129   2.172   6.050  14.694 -0.6125 -0.2935 -0.0333
15905TIP3    H169130   2.170   6.025  14.601 -0.4030 -1.6730  0.3236
15905TIP3    H269131   2.204   5.973  14.740  0.8009  0.8870  1.0502
15906TIP3   OH269132   3.524   0.546   1.834 -0.2439 -0.2688 -0.1756
15906TIP3    H169133   3.532   0.588   1.749  0.7851 -1.3349 -0.6310
15906TIP3    H269134   3.458   0.597   1.880  1.0434  1.9225 -0.6480
15907TIP3   OH269135   5.722   0.968   3.639 -0.0461  0.9550 -0.4899
15907TIP3    H169136   5.627   0.978   3.651 -0.3356 -0.6820 -1.1578
15907TIP3    H269137   5.750   0.920   3.716  0.3073  1.7016 -0.1465
15908TIP3   OH269138   0.907   4.295  12.986  0.7173  0.2002 -0.1987
15908TIP3    H169139   0.953   4.220  13.025 -2.0006 -0.1350  2.8316
15908TIP3    H269140   0.932   4.369  13.041  1.2475  1.0310 -1.4992
15909TIP3   OH269141   1.372   0.835  12.416  0.2767 -0.1189 -0.3717
15909TIP3    H169142   1.389   0.875  12.501  0.3911 -0.9373  0.0001
15909TIP3    H269143   1.451   0.784  12.397  0.3934  0.3279 -1.1304
15910TIP3   OH269144   2.882   5.319  11.961 -0.3137  0.3131  0.0992
15910TIP3    H169145   2.916   5.298  12.047  0.9343 -2.5519 -0.9834
15910TIP3    H269146   2.811   5.257  11.947  1.5348 -1.4758 -2.0815
15911TIP3   OH269147   2.585   3.702   3.780 -0.2429  0.2086 -0.1477
15911TIP3    H169148   2.551   3.672   3.696  1.1190  1.8549 -1.3792
15911TIP3    H269149   2.638   3.779   3.758 -0.2161  0.9818  2.2895
15912TIP3   OH269150   5.010   3.951  13.942  0.0800 -0.4081  0.2834
15912TIP3    H169151   5.064   4.024  13.911  0.0425 -0.8326 -0.8481
15912TIP3    H269152   5.071   3.878  13.951 -0.2461 -0.8377 -0.8137
15913TIP3   OH269153   3.398   0.943  13.563 -0.0618 -0.6173  0.7507
15913TIP3    H169154   3.331   1.011  13.556  0.1550 -0.3551  1.2115
15913TIP3    H269155   3.364   0.871  13.511 -1.3023 -0.9696  1.9946
15914TIP3   OH269156   4.069   2.666   4.895 -0.1426  0.1437 -0.0540
15914TIP3    H169157   4.156   2.629   4.884 -0.5966 -0.3224 -2.5199
15914TIP3    H269158   4.014   2.591   4.918 -0.1389  0.2196  0.2105
15915TIP3   OH269159   5.844   6.032   4.240 -0.0708 -0.1883  0.6629
15915TIP3    H169160   5.899   6.034   4.161 -0.8048 -0.8469  0.1250
15915TIP3    H269161   5.905   6.011   4.310  0.4573 -0.4354  0.1442
15916TIP3   OH269162   3.066   2.726  14.988  0.0768 -0.1955 -0.1008
15916TIP3    H169163   3.100   2.812  15.015 -1.2139 -0.0426  1.1347
15916TIP3    H269164   3.045   2.737  14.895  0.2381  0.7265 -0.0449
15917TIP3   OH269165   6.301   4.759   3.274  0.0549 -0.2791 -0.3423
15917TIP3    H169166   6.278   4.714   3.193 -1.1770  0.3203 -0.3515
15917TIP3    H269167   6.217   4.791   3.308  0.6981  0.5238  0.5416
15918TIP3   OH269168   1.779   2.536   3.967  0.2249 -0.1570  0.4658
15918TIP3    H169169   1.779   2.626   3.935  1.5894 -0.2448  0.1733
15918TIP3    H269170   1.864   2.500   3.940  0.2032 -1.1566  1.6259
15919TIP3   OH269171   3.261   4.952  11.433  0.4295 -0.0179  0.6156
15919TIP3    H169172   3.185   4.964  11.491  0.6869  0.7845  0.8063
15919TIP3    H269173   3.261   4.859  11.411 -1.1204  0.1073 -0.0764
15920TIP3   OH269174   6.221   3.803   5.660 -0.2748  0.0018 -0.0026
15920TIP3    H169175   6.290   3.764   5.713  0.2242  1.3284  0.3633
15920TIP3    H269176   6.162   3.844   5.723 -1.2582 -0.8584 -0.3294
15921TIP3   OH269177   6.290   6.781  11.863 -0.2891  0.6961 -0.9531
15921TIP3    H169178   6.293   6.835  11.784  0.7422  2.6262  0.3321
15921TIP3    H269179   6.229   6.827  11.920 -0.5602 -0.3547 -0.3685
15922TIP3   OH269180   0.231   5.140  16.671  0.2135  0.0913  0.1625
15922TIP3    H169181   0.201   5.167  16.584 -0.1588 -2.0013 -0.4132
15922TIP3    H269182   0.153   5.146  16.726  0.5395  1.8063  0.4966
15923TIP3   OH269183   5.591   4.859  11.660  0.0697  0.4834  0.2800
15923TIP3    H169184   5.657   4.840  11.593 -0.7824  0.1219 -0.4896
15923TIP3    H269185   5.636   4.847  11.743  0.9025  0.0020 -0.2270
15924TIP3   OH269186   0.826   6.015  14.377  0.4292 -0.3787  0.0462
15924TIP3    H169187   0.870   5.933  14.402  0.0811 -1.0775 -1.5098
15924TIP3    H269188   0.733   5.996  14.387  0.3786  0.1751  0.6597
15925TIP3   OH269189   2.537   4.147   2.965  0.0591  0.7109  0.1455
15925TIP3    H169190   2.526   4.203   3.042  1.1387  1.1789 -0.0303
15925TIP3    H269191   2.630   4.129   2.960 -0.2577 -1.1870  0.2214
15926TIP3   OH269192   1.560   5.607  13.278 -0.5897 -0.1734 -0.1592
15926TIP3    H169193   1.542   5.693  13.318  0.7028 -1.0300  2.4767
15926TIP3    H269194   1.518   5.612  13.192 -2.3238  2.3540  0.7049
15927TIP3   OH269195   3.328   3.061  15.146 -0.0821  0.1804 -0.1661
15927TIP3    H169196   3.295   2.971  15.139 -0.9930  0.5580 -0.8891
15927TIP3    H269197   3.420   3.050  15.169 -0.7011 -0.9001  2.0554
15928TIP3   OH269198   5.831   3.233   4.961 -0.1122 -0.2415  0.3880
15928TIP3    H169199   5.885   3.304   4.924 -0.8961 -0.2669 -0.8501
15928TIP3    H269200   5.891   3.159   4.969 -0.0729 -0.5016 -1.6798
15929TIP3   OH269201   3.137   6.111  14.837  0.3312 -0.1868 -0.6971
15929TIP3    H169202   3.202   6.057  14.881 -0.3904 -0.0583  0.5679
15929TIP3    H269203   3.170   6.200  14.845  0.4429 -0.2139 -0.8524
15930TIP3   OH269204   6.665   0.524   1.322  0.0520 -0.1603  0.0472
15930TIP3    H169205   6.599   0.575   1.275 -0.4520 -0.3918  0.4926
15930TIP3    H269206   6.660   0.437   1.283  0.4673 -0.0417 -0.2777
15931TIP3   OH269207   3.948   5.703   6.253 -0.4302 -0.2671  0.1243
15931TIP3    H169208   4.032   5.673   6.287  0.3412  0.6219 -0.9459
15931TIP3    H269209   3.906   5.745   6.328  0.5075  0.1673  0.4155
15932TIP3   OH269210   0.931   1.911  12.135  0.1040 -0.0105 -0.0742
15932TIP3    H169211   0.878   1.989  12.154  1.3302  0.6525  0.8017
15932TIP3    H269212   0.875   1.837  12.158  0.0704  0.6948  2.3456
15933TIP3   OH269213   2.399   3.726  13.538 -0.2210  0.0892  0.4943
15933TIP3    H169214   2.341   3.761  13.605  1.2801  0.4999  1.6157
15933TIP3    H269215   2.401   3.632  13.555 -2.4996 -0.3640 -1.1511
15934TIP3   OH269216   5.397   3.608   4.821 -0.8256  0.2051  0.3589
15934TIP3    H169217   5.442   3.546   4.764 -0.2293 -0.8217  1.9027
15934TIP3    H269218   5.305   3.583   4.816 -0.5609 -0.9620  1.1362
15935TIP3   OH269219   1.603   2.756   4.449  0.3223 -0.0274 -0.2459
15935TIP3    H169220   1.585   2.752   4.543  0.2047  0.3321 -0.2535
15935TIP3    H269221   1.518   2.743   4.407  0.3293  0.1046 -0.3006
15936TIP3   OH269222   0.451   5.215  11.287 -0.0512  0.0802 -0.2835
15936TIP3    H169223   0.375   5.269  11.312 -0.6659 -0.5384 -0.7974
15936TIP3    H269224   0.502   5.272  11.229 -0.4200  0.3044 -0.3960
15937TIP3   OH269225   1.385   1.404   1.740  0.1400 -0.3598  0.1177
15937TIP3    H169226   1.345   1.338   1.798  1.8745 -2.5033 -1.0144
15937TIP3    H269227   1.458   1.439   1.791  0.8226 -1.2579 -0.2087
15938TIP3   OH269228   1.335   4.682  11.143 -0.2951  0.3578 -0.1834
15938TIP3    H169229   1.287   4.675  11.061 -2.0148 -1.1527  0.8553
15938TIP3    H269230   1.391   4.605  11.145 -0.0240  0.5554 -0.0649
15939TIP3   OH269231   4.419   1.237  15.313 -0.2643  0.0848 -0.7152
15939TIP3    H169232   4.513   1.223  15.325 -0.2683  0.0283 -0.7481
15939TIP3    H269233   4.393   1.170  15.249 -0.3067  0.1679 -0.7852
15940TIP3   OH269234   2.625   2.145   2.556 -0.1704 -0.2809 -0.1852
15940TIP3    H169235   2.716   2.169   2.540 -0.4750  1.6574  0.6840
15940TIP3    H269236   2.604   2.081   2.488  1.3786  0.3752 -1.3227
15941TIP3   OH269237   1.352   5.729   3.614  0.0899  0.2509  0.0455
15941TIP3    H169238   1.257   5.730   3.625  0.0529  0.7309 -0.2636
15941TIP3    H269239   1.380   5.819   3.634  0.3410  0.4083 -0.9531
15942TIP3   OH269240   2.519   5.427  13.075 -0.4005 -0.1342  0.0656
15942TIP3    H169241   2.534   5.507  13.024  0.5134 -0.0460  0.4475
15942TIP3    H269242   2.555   5.358  13.020  0.6104 -0.0360  0.5789
15943TIP3   OH269243   1.182   3.265  11.156  0.5782 -0.7407  0.2164
15943TIP3    H169244   1.216   3.354  11.170  1.4549 -1.0687  0.1624
15943TIP3    H269245   1.230   3.210  11.217 -0.1621 -1.1508  0.4516
15944TIP3   OH269246   3.027   0.663  15.233  0.7089 -0.2609  0.4186
15944TIP3    H169247   2.965   0.667  15.161  0.1299 -0.4971  0.8980
15944TIP3    H269248   2.978   0.624  15.305  1.7886 -1.7013  0.4073
15945TIP3   OH269249   4.458   3.129   1.163 -0.3238 -0.1463  0.1445
15945TIP3    H169250   4.530   3.108   1.104 -1.8612 -2.6800 -1.0279
15945TIP3    H269251   4.492   3.110   1.251  0.9231  0.3523 -0.2180
15946TIP3   OH269252   3.839   1.255  16.996 -0.0236  0.4630 -0.4164
15946TIP3    H169253   3.903   1.319  17.027  0.0995  0.9044 -1.5356
15946TIP3    H269254   3.841   1.264  16.901 -0.0144 -1.1885 -0.6027
15947TIP3   OH269255   2.023   4.775  14.421  0.0605 -0.1982  0.9477
15947TIP3    H169256   2.019   4.717  14.346  1.3583 -1.3531  1.7317
15947TIP3    H269257   1.945   4.830  14.413  0.0855 -0.4099 -1.1168
15948TIP3   OH269258   3.257   2.846  13.894 -0.0494  0.3312  0.4934
15948TIP3    H169259   3.314   2.820  13.966  0.7977 -0.0277 -0.2702
15948TIP3    H269260   3.313   2.839  13.816 -0.8349  1.0351 -0.1547
15949TIP3   OH269261   0.590   2.410  15.944  0.8958 -0.7104 -0.4020
15949TIP3    H169262   0.553   2.379  15.861  0.5853  0.1922 -0.6162
15949TIP3    H269263   0.557   2.349  16.009  1.0911 -1.3941 -0.9395
15950TIP3   OH269264   6.085   2.575  16.584 -0.0359  0.3590  0.3243
15950TIP3    H169265   6.110   2.483  16.588 -0.6812 -0.0225 -2.2731
15950TIP3    H269266   5.989   2.574  16.590 -0.0006  0.9597  1.1385
15951TIP3   OH269267   1.210   3.531   4.509 -0.2736  0.0565  0.4554
15951TIP3    H169268   1.277   3.477   4.551 -0.7517 -1.1655 -0.2982
15951TIP3    H269269   1.131   3.516   4.562 -0.4989 -0.2702  0.0279
15952TIP3   OH269270   0.927   0.499   0.659 -0.1088 -0.0012  0.2654
15952TIP3    H169271   0.906   0.592   0.666 -0.9965 -0.0624 -1.2149
15952TIP3    H269272   1.016   0.492   0.694  0.1727  1.4834 -0.0796
15953TIP3   OH269273   5.494   6.739  12.995  0.0242  0.1480 -0.6577
15953TIP3    H169274   5.412   6.721  12.950 -0.1942 -0.8531  0.1039
15953TIP3    H269275   5.552   6.667  12.969 -0.1763 -0.5790  0.7723
15954TIP3   OH269276   0.535   1.923   0.066  0.7275 -0.2720  0.6383
15954TIP3    H169277   0.606   1.859   0.070 -0.1647 -1.2385  2.0530
15954TIP3    H269278   0.456   1.872   0.080 -0.2414  0.8444 -0.5106
15955TIP3   OH269279   5.526   1.413   3.271  0.7772 -0.4687 -0.0700
15955TIP3    H169280   5.612   1.443   3.302  1.4682 -1.9835 -0.4444
15955TIP3    H269281   5.526   1.319   3.288 -1.5748 -0.2356  1.6521
15956TIP3   OH269282   3.422   3.321  13.526  0.1208  0.4723  0.6317
15956TIP3    H169283   3.376   3.270  13.593  0.0545  1.2920  1.2240
15956TIP3    H269284   3.353   3.349  13.467  0.3126 -1.2098 -0.4679
15957TIP3   OH269285   3.604   6.605  16.802  0.4754  0.1174 -0.3160
15957TIP3    H169286   3.675   6.586  16.862 -0.1823 -1.2348  0.0625
15957TIP3    H269287   3.524   6.592  16.853 -0.0748  1.7814 -0.6778
15958TIP3   OH269288   3.074   0.683   1.938  0.1005  1.1404 -0.6047
15958TIP3    H169289   2.997   0.652   1.986 -0.3562  0.3034 -1.8542
15958TIP3    H269290   3.039   0.745   1.874  0.1130 -0.9812 -2.7712
15959TIP3   OH269291   3.444   6.377   1.825 -0.6583 -0.1313  0.0055
15959TIP3    H169292   3.515   6.434   1.795 -1.5756  1.3036  0.4922
15959TIP3    H269293   3.378   6.381   1.756 -0.5359 -1.0251 -0.1855
15960TIP3   OH269294   0.899   3.878   6.365  0.4180  0.4010  0.4860
15960TIP3    H169295   0.934   3.957   6.406 -0.5209  1.3330 -0.4457
15960TIP3    H269296   0.965   3.854   6.300 -0.1353  1.5638 -0.5615
15961TIP3   OH269297   3.525   2.758   2.809 -0.0014 -0.0965  0.0475
15961TIP3    H169298   3.468   2.829   2.840 -1.0460 -0.6710 -0.4836
15961TIP3    H269299   3.464   2.687   2.787  0.7892 -0.1954 -2.0011
15962TIP3   OH269300   0.436   2.827   5.412 -0.1550 -0.2834  0.2676
15962TIP3    H169301   0.451   2.772   5.489  1.2560  0.4527  0.5614
15962TIP3    H269302   0.425   2.764   5.340  0.6869 -0.9786  0.7156
15963TIP3   OH269303   3.575   2.559  14.649  0.0399  0.6353 -0.1062
15963TIP3    H169304   3.534   2.582  14.732 -0.2143  1.3204 -0.4181
15963TIP3    H269305   3.514   2.497  14.609  0.3863 -0.0602  0.4166
15964TIP3   OH269306   3.477   3.904   3.608  0.0894  0.0997 -0.3571
15964TIP3    H169307   3.540   3.936   3.672  1.4241 -0.9694 -1.0833
15964TIP3    H269308   3.445   3.822   3.645  1.0477 -0.6483 -1.1176
15965TIP3   OH269309   0.845   2.334   2.612 -0.2571 -0.0599  0.3493
15965TIP3    H169310   0.749   2.341   2.611 -0.2243  0.3709  0.0342
15965TIP3    H269311   0.867   2.333   2.705 -0.6051 -0.7472  0.4321
15966TIP3   OH269312   4.917   0.347  14.560 -0.1418  0.0468  0.8854
15966TIP3    H169313   4.854   0.419  14.560 -0.3242 -0.0593 -1.2268
15966TIP3    H269314   4.872   0.276  14.513 -0.2895 -1.8130  3.6018
15967TIP3   OH269315   6.750   2.838  10.356 -0.5954  0.0388 -0.4548
15967TIP3    H169316   6.729   2.757  10.403 -0.9055  0.2595 -0.2018
15967TIP3    H269317   6.826   2.873  10.402 -0.6041  0.0051 -0.4145
15968TIP3   OH269318   1.658   4.329   1.321  0.3879  0.0450 -0.6328
15968TIP3    H169319   1.625   4.381   1.248  3.6985  1.3387 -1.3552
15968TIP3    H269320   1.667   4.241   1.284  1.0497  0.4535 -1.4739
15969TIP3   OH269321   5.991   4.324   1.877 -0.3834 -0.2410 -0.5708
15969TIP3    H169322   6.078   4.358   1.896 -0.3173  0.8794 -2.5548
15969TIP3    H269323   5.991   4.310   1.782 -1.7791 -1.9629 -0.3707
15970TIP3   OH269324   5.801   1.041   1.408 -0.0143  0.8489 -0.1275
15970TIP3    H169325   5.753   1.007   1.483  0.0492 -2.4986 -1.4319
15970TIP3    H269326   5.885   1.069   1.445 -0.4953  0.5630  1.2446
15971TIP3   OH269327   5.671   5.612  15.177 -0.5562 -0.3895  0.7082
15971TIP3    H169328   5.754   5.575  15.206 -0.6255  0.8194  2.6668
15971TIP3    H269329   5.693   5.666  15.102  0.6377  0.6486  1.7594
15972TIP3   OH269330   0.724   5.878  12.493 -0.7406  0.2658  0.2402
15972TIP3    H169331   0.702   5.806  12.433 -1.4270  1.4846 -1.0405
15972TIP3    H269332   0.804   5.849  12.537 -0.8591 -1.1699 -0.4303
15973TIP3   OH269333   4.219   6.780  11.464  0.6032 -0.4367 -0.1294
15973TIP3    H169334   4.268   6.807  11.386 -1.0657 -0.0965 -1.1136
15973TIP3    H269335   4.180   6.860  11.498  0.7551 -0.6882  0.6634
15974TIP3   OH269336   2.306   3.967  11.333 -0.2107  0.0109 -0.0283
15974TIP3    H169337   2.275   3.969  11.423  1.6293 -1.4171  0.6879
15974TIP3    H269338   2.227   3.951  11.281 -1.1658 -0.0572  1.3894
15975TIP3   OH269339   5.653   4.562  16.138  0.0153  0.2677 -0.3662
15975TIP3    H169340   5.587   4.519  16.082 -0.7230  1.3826 -0.3783
15975TIP3    H269341   5.734   4.554  16.088 -0.7966  2.1140 -2.1381
15976TIP3   OH269342   1.020   2.519  15.522  0.1277  0.0693 -0.0288
15976TIP3    H169343   0.998   2.605  15.486 -0.1532 -0.8082 -2.1204
15976TIP3    H269344   1.091   2.536  15.584 -0.9024  1.9560  0.6785
15977TIP3   OH269345   1.576   2.288   5.855  0.1195 -0.1190 -0.7012
15977TIP3    H169346   1.553   2.268   5.765 -1.0271  1.3883 -0.7824
15977TIP3    H269347   1.556   2.381   5.865 -2.1357 -0.7477  1.7953
15978TIP3   OH269348   6.622   0.496  13.435  0.3541 -0.0092 -0.2114
15978TIP3    H169349   6.690   0.444  13.391  1.0964 -0.3286  1.2539
15978TIP3    H269350   6.669   0.540  13.506 -0.3672  2.2222 -1.0163
15979TIP3   OH269351   6.307   6.401   1.664  0.1388  0.1472 -0.5508
15979TIP3    H169352   6.269   6.457   1.596  1.7348 -0.4239 -1.9805
15979TIP3    H269353   6.328   6.461   1.735  0.9561  1.2333 -1.6701
15980TIP3   OH269354   0.229   1.122   1.278  0.4487 -0.8418 -0.1732
15980TIP3    H169355   0.176   1.054   1.237  0.2494 -1.2474  0.7441
15980TIP3    H269356   0.319   1.091   1.270  0.4852 -0.5430 -0.9970
15981TIP3   OH269357   3.305   2.459  13.979 -0.2403 -0.1826  0.1556
15981TIP3    H169358   3.236   2.393  13.989  0.7764 -1.7378 -2.1529
15981TIP3    H269359   3.382   2.419  14.019 -0.3947  1.1290  1.8414
15982TIP3   OH269360   1.194   3.254  16.056  0.1004  0.1132  0.5706
15982TIP3    H169361   1.172   3.319  15.989  2.4156  0.4398  0.0184
15982TIP3    H269362   1.207   3.306  16.135 -1.1774 -0.0960  0.9337
15983TIP3   OH269363   6.410   5.159   4.240  0.1448 -0.2971  0.0999
15983TIP3    H169364   6.450   5.107   4.310  2.2140 -1.2564 -1.6626
15983TIP3    H269365   6.484   5.207   4.202 -1.3803  2.3539  0.3062
15984TIP3   OH269366   4.442   3.160  13.186  0.7587  0.5232  0.1994
15984TIP3    H169367   4.491   3.243  13.191  1.6601  0.0819 -0.9213
15984TIP3    H269368   4.380   3.173  13.115  0.0036  0.6689  0.8682
15985TIP3   OH269369   2.598   4.969   2.014  0.0898  0.7683 -0.0774
15985TIP3    H169370   2.653   5.014   1.951  0.7278  0.5701  0.3286
15985TIP3    H269371   2.563   4.894   1.966  0.4392  0.7115 -0.2480
15986TIP3   OH269372   4.132   3.705   4.946  0.6348  0.0509  0.3895
15986TIP3    H169373   4.102   3.624   4.987  0.7461 -0.1080  0.1565
15986TIP3    H269374   4.054   3.761   4.947  0.4414 -0.2086  0.1731
15987TIP3   OH269375   3.435   1.691   1.003  0.2309  0.1484 -0.2678
15987TIP3    H169376   3.424   1.624   0.935  1.1989 -0.9319  0.5924
15987TIP3    H269377   3.443   1.641   1.084 -1.5772  1.4436  0.7587
15988TIP3   OH269378   2.203   3.054  11.932 -0.2083  0.1386 -0.7230
15988TIP3    H169379   2.117   3.062  11.973  0.1902 -1.5532  0.5978
15988TIP3    H269380   2.185   3.038  11.840 -1.5592 -3.3064 -0.0289
15989TIP3   OH269381   2.364   5.596   0.186 -0.1802  0.5117 -0.0244
15989TIP3    H169382   2.439   5.567   0.238  0.0338  1.4738  0.2205
15989TIP3    H269383   2.397   5.669   0.135 -0.8332  0.6390 -0.2745
15990TIP3   OH269384   3.184   5.338  15.222 -0.1826 -0.0281 -0.0958
15990TIP3    H169385   3.191   5.285  15.143 -0.9108  0.3739 -0.4416
15990TIP3    H269386   3.268   5.383  15.229  0.0079 -0.3306 -0.4456
15991TIP3   OH269387   5.778   5.425   3.702  0.3303  0.3122  0.2358
15991TIP3    H169388   5.811   5.488   3.765  0.2351 -0.4353  1.0447
15991TIP3    H269389   5.815   5.341   3.730  1.0569  0.1057 -1.2469
15992TIP3   OH269390   2.153   0.846  15.563  0.4688 -0.8970 -0.5504
15992TIP3    H169391   2.216   0.857  15.491  1.5852 -0.6845  0.4252
15992TIP3    H269392   2.080   0.799  15.524  1.3742 -1.4481 -1.6484
15993TIP3   OH269393   5.648   2.357   5.563  0.1008  0.2812  0.0111
15993TIP3    H169394   5.623   2.432   5.510 -0.6880  0.6282  0.8548
15993TIP3    H269395   5.635   2.281   5.506 -1.1554  0.6112 -0.1571
15994TIP3   OH269396   5.812   0.954   2.280 -0.4309 -0.0047  0.2304
15994TIP3    H169397   5.855   0.875   2.246 -1.2738 -0.4998  0.2692
15994TIP3    H269398   5.724   0.950   2.243 -0.1139  1.5987 -0.7936
15995TIP3   OH269399   0.044   3.344   4.592  0.1758  0.0920  0.0407
15995TIP3    H169400   0.058   3.406   4.521 -0.1772 -0.0720 -0.1715
15995TIP3    H269401   0.132   3.320   4.621  0.3139  0.5218 -0.0214
15996TIP3   OH269402   2.223   1.740  10.634 -0.0585 -0.2886  1.3145
15996TIP3    H169403   2.129   1.725  10.642 -0.1203 -0.2151  0.7396
15996TIP3    H269404   2.232   1.836  10.632 -0.0601 -0.2999  0.4040
15997TIP3   OH269405   0.276   5.775  13.782 -0.6255  0.4834  0.3232
15997TIP3    H169406   0.304   5.863  13.804  0.4465  0.2732 -0.1261
15997TIP3    H269407   0.337   5.747  13.714 -1.3092 -0.3913  0.0506
15998TIP3   OH269408   2.029   4.502  16.379  0.4085 -0.2986 -0.2256
15998TIP3    H169409   2.052   4.548  16.460  1.4388 -1.8029  0.3759
15998TIP3    H269410   1.933   4.505  16.377  0.2788 -1.1698  1.6534
15999TIP3   OH269411   0.128   3.977  11.711  0.4617  0.0146  0.1861
15999TIP3    H169412   0.198   3.913  11.720 -0.7225 -1.0583  2.8630
15999TIP3    H269413   0.070   3.941  11.644  0.1443 -1.4746  1.2104
16000TIP3   OH269414   3.877   1.345  15.159  0.6569  1.0843  0.8326
16000TIP3    H169415   3.943   1.320  15.094 -0.0315 -0.1620  0.5716
16000TIP3    H269416   3.846   1.262  15.194 -1.9866  1.4937 -0.2777
16001TIP3   OH269417   0.036   0.677  14.192  0.6389  0.2116  0.5379
16001TIP3    H169418   0.042   0.694  14.097  0.1149 -0.2951  0.4098
16001TIP3    H269419  -0.004   0.756  14.227  0.8132  0.3944  0.3336
16002TIP3   OH269420   6.724   2.395  15.166  0.6383 -0.1266 -0.3161
16002TIP3    H169421   6.702   2.420  15.076  0.2328  1.8134  0.2798
16002TIP3    H269422   6.819   2.405  15.171  1.0069 -2.5306 -1.1408
16003TIP3   OH269423   2.034   0.424   5.007  0.0467  0.1822 -0.2803
16003TIP3    H169424   2.084   0.361   4.956 -0.6715  0.9497 -1.9833
16003TIP3    H269425   2.080   0.507   4.995 -1.1758  0.7486 -1.2673
16004TIP3   OH269426   0.631   0.218  16.358  0.6550 -0.2995  0.5787
16004TIP3    H169427   0.707   0.251  16.310  1.6964 -2.3135  0.7430
16004TIP3    H269428   0.648   0.243  16.449 -0.6281  2.2682  0.2031
16005TIP3   OH269429   6.288   2.945   3.691  0.0791  0.2659 -0.5790
16005TIP3    H169430   6.262   2.885   3.761 -2.1639  0.9100 -0.7675
16005TIP3    H269431   6.339   3.013   3.735 -0.1848 -0.0297  0.1953
16006TIP3   OH269432   0.739   1.601   2.280 -0.0452 -0.3122  0.1103
16006TIP3    H169433   0.763   1.648   2.360  1.9136  0.1133 -0.6560
16006TIP3    H269434   0.730   1.510   2.307 -0.7756  0.0148  1.0409
16007TIP3   OH269435   6.000   4.075   2.215  0.3936 -0.7225  0.6789
16007TIP3    H169436   6.087   4.035   2.225  1.3160  0.3094 -2.3093
16007TIP3    H269437   5.963   4.033   2.137 -0.0644  1.6918 -0.4780
16008TIP3   OH269438   4.404   3.938  15.531  0.3968  0.5807 -0.6643
16008TIP3    H169439   4.404   3.894  15.445  0.0231 -0.1594 -0.2946
16008TIP3    H269440   4.417   3.867  15.594 -0.7874  0.9226 -0.0112
16009TIP3   OH269441   2.695   0.039  12.483 -0.2907  0.7019 -0.0763
16009TIP3    H169442   2.663  -0.011  12.558  2.3700 -1.6550 -0.3617
16009TIP3    H269443   2.663  -0.009  12.407  4.2941 -2.4345 -0.4024
16010TIP3   OH269444   5.369   6.268  10.932  0.3286 -0.2003  0.3893
16010TIP3    H169445   5.399   6.232  11.016  0.2208  0.0401  0.5327
16010TIP3    H269446   5.306   6.204  10.900 -1.3454  0.7730  1.5759
16011TIP3   OH269447   4.136   5.605  13.662 -0.0109 -0.9088  0.0105
16011TIP3    H169448   4.199   5.656  13.611 -0.0582 -1.6657 -0.8340
16011TIP3    H269449   4.072   5.669  13.693  2.0020  0.1774  2.2758
16012TIP3   OH269450   4.501   2.925  16.677  0.4806  0.3052 -0.1749
16012TIP3    H169451   4.457   2.850  16.717  2.0065 -1.0362 -0.8737
16012TIP3    H269452   4.450   3.000  16.704 -0.3561 -0.8497  1.6665
16013TIP3   OH269453   1.277   4.875   4.638 -0.0308  0.1630  0.4812
16013TIP3    H169454   1.356   4.916   4.602 -1.3228  2.7360  0.3512
16013TIP3    H269455   1.270   4.791   4.592  0.6560  1.4711 -2.1918
16014TIP3   OH269456   0.635   6.275  12.338 -0.5780  0.2246  0.2485
16014TIP3    H169457   0.716   6.275  12.287 -0.1988  1.1955  0.8185
16014TIP3    H269458   0.605   6.184  12.334  0.3743 -0.0929 -0.2307
16015TIP3   OH269459   4.614   6.678  13.742 -0.1214  0.7854 -0.5587
16015TIP3    H169460   4.642   6.645  13.656 -0.3179 -0.6071 -0.1072
16015TIP3    H269461   4.527   6.715  13.726  0.7673  2.6803 -1.4097
16016TIP3   OH269462   5.106   0.286   2.321  0.0505 -0.3054  0.5772
16016TIP3    H169463   5.105   0.374   2.360 -0.7251 -0.2106  0.3500
16016TIP3    H269464   5.176   0.289   2.256 -0.1899  0.2409  0.3433
16017TIP3   OH269465   4.808   4.181   2.410  0.1214 -0.3479  0.5253
16017TIP3    H169466   4.781   4.192   2.502 -1.9069  0.4061 -0.1155
16017TIP3    H269467   4.843   4.092   2.407  2.7976  0.4925  2.5688
16018TIP3   OH269468   1.238   0.778   2.295 -0.8163 -0.1626  0.2088
16018TIP3    H169469   1.308   0.727   2.337  0.4521  1.2255 -0.1630
16018TIP3    H269470   1.199   0.828   2.367 -1.4963 -0.9571  0.4211
16019TIP3   OH269471   3.278   0.246  16.444  0.1079  0.0515  0.1336
16019TIP3    H169472   3.325   0.217  16.523 -0.1760 -0.8075 -0.0017
16019TIP3    H269473   3.189   0.266  16.476 -0.1499 -0.7798 -0.0478
16020TIP3   OH269474   3.834   6.135  11.772  0.5175 -0.0165 -0.3419
16020TIP3    H169475   3.868   6.179  11.694 -0.1187  1.0854 -0.0274
16020TIP3    H269476   3.888   6.057  11.781  1.7407  0.7326 -0.8965
16021TIP3   OH269477   5.456   0.830   3.625 -0.1323 -0.0434 -0.1716
16021TIP3    H169478   5.539   0.782   3.630  0.0881  0.4589  2.4340
16021TIP3    H269479   5.390   0.766   3.651 -0.3706 -0.0217 -0.7166
16022TIP3   OH269480   2.247   2.806  13.099 -0.0846  0.1525 -0.1600
16022TIP3    H169481   2.186   2.861  13.050  0.4958  0.1210 -0.9476
16022TIP3    H269482   2.215   2.717  13.086  0.6291  0.0427 -1.3623
16023TIP3   OH269483   1.639   3.699  16.644  0.8163 -0.0179  0.3481
16023TIP3    H169484   1.602   3.716  16.731  1.5280  2.2983  0.2731
16023TIP3    H269485   1.562   3.680  16.590  0.2550 -0.3912  1.2334
16024TIP3   OH269486   5.799   6.181   2.908 -0.5206 -0.3558  0.1148
16024TIP3    H169487   5.808   6.272   2.935  0.0316  0.0364 -1.2735
16024TIP3    H269488   5.712   6.155   2.936 -0.4601  0.4125  1.0469
16025TIP3   OH269489   6.813   4.704  12.315  0.1508 -0.7565  0.0853
16025TIP3    H169490   6.822   4.674  12.224  0.1492 -0.0079 -0.1702
16025TIP3    H269491   6.815   4.800  12.309 -1.0221 -0.6615  0.7389
16026TIP3   OH269492   4.033   2.892  15.546  0.2115 -0.3475 -0.0509
16026TIP3    H169493   4.018   2.977  15.588  0.0425 -0.5839  0.3812
16026TIP3    H269494   4.126   2.893  15.523  0.7403 -0.8746  1.8822
16027TIP3   OH269495   5.729   2.753   1.596  0.6766 -0.2665  0.2714
16027TIP3    H169496   5.712   2.847   1.594  0.9105 -0.1630  1.7739
16027TIP3    H269497   5.642   2.713   1.594  0.4378  0.0797  2.0275
16028TIP3   OH269498   3.978   0.887  11.599 -0.6780 -0.2407 -0.4994
16028TIP3    H169499   3.990   0.930  11.684  0.5136 -1.7536  0.1671
16028TIP3    H269500   4.063   0.898  11.555 -1.4488  0.9733 -1.7423
16029TIP3   OH269501   4.742   6.282   2.392 -0.1376 -0.1400 -0.1464
16029TIP3    H169502   4.806   6.325   2.448 -0.0705  0.1782 -0.4635
16029TIP3    H269503   4.690   6.228   2.452 -0.0503  0.1749  0.2151
16030TIP3   OH269504   2.982   3.681   3.003 -0.4719  0.3856 -0.5330
16030TIP3    H169505   2.964   3.761   2.952  1.2237  0.1858 -1.5268
16030TIP3    H269506   3.029   3.625   2.942 -1.2137 -1.2127  0.3127
16031TIP3   OH269507   5.229   6.395   0.359  0.1821 -0.1504  0.3400
16031TIP3    H169508   5.157   6.453   0.334  2.0266  1.3196 -1.9868
16031TIP3    H269509   5.196   6.307   0.345 -0.6553  0.5139 -2.4308
16032TIP3   OH269510   5.462   2.436  16.430  0.0180 -0.5463 -0.0354
16032TIP3    H169511   5.555   2.418  16.418  0.6554  0.2629  2.8245
16032TIP3    H269512   5.420   2.350  16.425  1.1084 -1.0944 -0.0284
16033TIP3   OH269513   1.987   3.052  15.380 -0.2154  0.2800  0.0592
16033TIP3    H169514   2.056   3.003  15.424 -0.4826 -0.1095  0.0502
16033TIP3    H269515   2.033   3.113  15.323  0.1226 -0.2085 -0.2003
16034TIP3   OH269516   5.875   1.006   1.991  0.0300 -0.3747  0.3579
16034TIP3    H169517   5.793   1.049   2.014 -0.9367 -1.5994 -0.6172
16034TIP3    H269518   5.869   0.919   2.029  0.9727 -0.4240  0.4343
16035TIP3   OH269519   2.922   4.954  11.774 -0.1014  0.2810 -0.4297
16035TIP3    H169520   2.906   4.976  11.682  0.1080  1.0092 -0.2934
16035TIP3    H269521   3.006   4.908  11.773  0.2250  0.8791 -0.5165
16036TIP3   OH269522   5.129   2.007  11.081  0.0059 -0.0477 -0.5904
16036TIP3    H169523   5.211   2.006  11.033  0.1525  0.6500 -0.3645
16036TIP3    H269524   5.068   2.053  11.023  0.2275  0.9476 -0.0616
16037TIP3   OH269525   6.526   3.242   3.066 -0.0598  0.2070  0.2219
16037TIP3    H169526   6.496   3.300   2.995 -0.3165  0.6395  0.6752
16037TIP3    H269527   6.447   3.227   3.119  0.4523  1.2251  1.3403
16038TIP3   OH269528   1.821   6.721  16.086 -0.2927  0.1128 -0.4043
16038TIP3    H169529   1.818   6.640  16.137 -0.4903  1.3141  1.5777
16038TIP3    H269530   1.854   6.694  16.000  2.4845 -1.6480  1.0563
16039TIP3   OH269531   5.189   2.964   5.043 -0.1994 -0.1218 -0.2657
16039TIP3    H169532   5.158   2.981   5.132  1.0428  1.2691 -0.0644
16039TIP3    H269533   5.128   3.013   4.987 -0.1716  0.1208 -0.0855
16040TIP3   OH269534   0.013   6.486  15.523 -0.3235 -0.0859  0.4594
16040TIP3    H169535   0.015   6.580  15.539 -1.8766  0.4096 -1.7736
16040TIP3    H269536  -0.008   6.478  15.430  0.1965 -2.6541  0.4932
16041TIP3   OH269537   5.809   2.105   3.302  0.0279 -0.5228  0.0633
16041TIP3    H169538   5.871   2.064   3.363 -1.6636 -1.7097  1.0860
16041TIP3    H269539   5.795   2.193   3.338  0.4003 -0.5781  0.3509
16042TIP3   OH269540   5.523   0.737   3.986 -0.5827  0.2645  0.0899
16042TIP3    H169541   5.454   0.799   4.009 -1.5131 -0.7377  0.0894
16042TIP3    H269542   5.477   0.664   3.946  0.6793  0.4546 -1.8387
16043TIP3   OH269543   2.861   4.658  11.380 -0.2246  0.2239 -0.8729
16043TIP3    H169544   2.873   4.581  11.435  0.4519  1.4802  0.8383
16043TIP3    H269545   2.774   4.690  11.403 -0.6681 -0.2382 -1.8745
16044TIP3   OH269546   5.518   2.014   1.011  0.0555  0.2415 -0.1524
16044TIP3    H169547   5.510   2.041   1.102  1.9512 -0.1316  0.1575
16044TIP3    H269548   5.601   2.050   0.982 -1.3121  1.9353 -2.3416
16045TIP3   OH269549   0.744   4.290  12.424  0.1170  0.3636 -0.3587
16045TIP3    H169550   0.824   4.256  12.383  1.1353  0.5632  1.3421
16045TIP3    H269551   0.752   4.385  12.416  1.2241  0.5061  1.7564
16046TIP3   OH269552   6.035   2.580  13.151  0.0717 -0.0490 -0.5209
16046TIP3    H169553   6.100   2.633  13.197  0.1717 -1.1753  0.6865
16046TIP3    H269554   5.964   2.569  13.214 -0.7689  0.1749 -1.4050
16047TIP3   OH269555   2.221   5.657   3.263 -0.2070  0.3884  0.7016
16047TIP3    H169556   2.153   5.642   3.198  2.4678  0.3072 -2.3832
16047TIP3    H269557   2.186   5.727   3.319 -3.5046 -1.0195  0.6183
16048TIP3   OH269558   2.627   6.110  13.967 -0.2403 -0.2499 -0.6016
16048TIP3    H169559   2.587   6.024  13.979 -0.7722 -0.1527 -1.6011
16048TIP3    H269560   2.614   6.154  14.052 -2.2893 -0.2281 -0.8599
16049TIP3   OH269561   6.637   0.436   3.192  0.1129 -0.5236 -0.3131
16049TIP3    H169562   6.725   0.454   3.159  0.2020  0.4790  0.4052
16049TIP3    H269563   6.592   0.521   3.185 -0.4526 -0.7645  0.3458
16050TIP3   OH269564   1.137   1.977   1.986  0.4373 -0.0862 -0.0538
16050TIP3    H169565   1.089   2.035   1.927  0.2009  0.9816  1.1304
16050TIP3    H269566   1.087   1.981   2.068  1.4917 -0.4675  0.6237
16051TIP3   OH269567   6.588   2.904  12.439  0.2202 -0.0881  1.0634
16051TIP3    H169568   6.556   2.898  12.349  1.1862  1.1763  0.6112
16051TIP3    H269569   6.560   2.821  12.479  0.9992 -1.3289 -0.8017
16052TIP3   OH269570   1.769   5.002   2.774  0.1331 -0.7059 -0.1050
16052TIP3    H169571   1.858   4.971   2.790  0.2925  0.4132  1.3301
16052TIP3    H269572   1.780   5.089   2.735 -0.3396 -0.8602 -0.6105
16053TIP3   OH269573   2.970   2.854  14.216  0.1100  0.3774 -0.2080
16053TIP3    H169574   3.005   2.767  14.199 -2.1205 -0.6496  0.1096
16053TIP3    H269575   3.000   2.876  14.304 -0.7194 -0.8274  0.3916
16054TIP3   OH269576   3.104   2.539   2.879  0.1513 -0.0350 -0.2689
16054TIP3    H169577   3.131   2.470   2.939  0.8059  0.0203 -0.4968
16054TIP3    H269578   3.014   2.516   2.855  0.4876 -1.0041 -0.6251
16055TIP3   OH269579   0.414   2.496  11.731 -0.0181  0.0061  0.9565
16055TIP3    H169580   0.395   2.584  11.763  0.5553  0.4486  0.0919
16055TIP3    H269581   0.351   2.440  11.778  0.4537  0.6834  2.4651
16056TIP3   OH269582   3.818   2.911  14.716 -0.2310 -0.5795  0.1468
16056TIP3    H169583   3.745   2.868  14.673 -1.6316 -0.0578  1.8912
16056TIP3    H269584   3.822   2.997  14.676 -1.1037 -0.3268  0.5809
16057TIP3   OH269585   1.861   3.660  13.026  0.4264 -0.4930 -0.1034
16057TIP3    H169586   1.945   3.693  13.059  0.1776  0.3413 -0.2907
16057TIP3    H269587   1.875   3.649  12.932  0.4119 -0.6263 -0.0896
16058TIP3   OH269588   2.098   6.091   3.846  0.5462 -0.2354 -0.7527
16058TIP3    H169589   2.159   6.078   3.919 -1.6314 -0.2956  1.1573
16058TIP3    H269590   2.082   6.185   3.845 -3.0824 -0.6060  2.1743
16059TIP3   OH269591   5.004   2.438   4.240 -0.7865 -0.0646  0.7178
16059TIP3    H169592   4.958   2.522   4.237  0.4555  0.6326 -0.8948
16059TIP3    H269593   4.959   2.384   4.175  0.5557  0.6329 -0.8931
16060TIP3   OH269594   5.097   1.715  15.159  0.4562  0.4640 -0.5313
16060TIP3    H169595   5.131   1.775  15.226 -1.4337  0.4637  0.4775
16060TIP3    H269596   5.011   1.750  15.137 -0.2510 -1.2830 -0.6907
16061TIP3   OH269597   1.952   3.427  15.880  0.1776  0.7795 -0.1516
16061TIP3    H169598   1.996   3.486  15.819 -0.9253  1.3156 -0.4416
16061TIP3    H269599   1.880   3.390  15.830  0.5042 -0.3897  0.2042
16062TIP3   OH269600   3.623   4.168   0.909  0.1146 -0.7162 -0.3011
16062TIP3    H169601   3.662   4.147   0.824 -0.7106  1.6012 -1.3443
16062TIP3    H269602   3.696   4.165   0.971  0.7660 -2.2332 -1.1038
16063TIP3   OH269603   5.028   4.535   0.318 -0.3526 -0.7359 -0.2177
16063TIP3    H169604   4.960   4.593   0.354  0.7303 -0.9252  2.3002
16063TIP3    H269605   5.036   4.562   0.227 -1.2667  1.7492  0.3586
16064TIP3   OH269606   3.484   0.902  16.336  0.1541  0.1967 -0.1071
16064TIP3    H169607   3.440   0.820  16.317 -2.9225  1.8067 -0.4822
16064TIP3    H269608   3.443   0.934  16.417  0.1896  2.0615 -0.7736
16065TIP3   OH269609   2.423   5.373   4.970  0.5828  0.0935 -0.9620
16065TIP3    H169610   2.437   5.304   4.905  1.1010  0.2724 -1.0430
16065TIP3    H269611   2.506   5.421   4.972  0.8200 -0.3383  0.3468
16066TIP3   OH269612   3.636   5.468  14.456  0.5762 -0.0361  0.1935
16066TIP3    H169613   3.690   5.546  14.450 -0.6835  0.9943  1.5019
16066TIP3    H269614   3.695   5.401  14.492  0.6472  1.5649  3.4700
16067TIP3   OH269615   2.234   1.147  13.331 -0.5661 -0.1107  0.1664
16067TIP3    H169616   2.171   1.076  13.342 -0.7325  0.0836  0.4931
16067TIP3    H269617   2.215   1.207  13.403 -1.3414  0.9524 -0.8818
16068TIP3   OH269618   1.679   4.794  12.515  0.1400 -0.3693 -0.1442
16068TIP3    H169619   1.651   4.861  12.452  0.9043  0.6286  0.5487
16068TIP3    H269620   1.735   4.735  12.464 -1.8400 -1.4824 -1.1666
16069TIP3   OH269621   1.472   1.063  13.357 -0.1451 -0.2342 -0.1194
16069TIP3    H169622   1.387   1.031  13.389 -0.8852  1.2216 -0.5684
16069TIP3    H269623   1.455   1.152  13.328  0.9785 -0.7769 -2.6515
16070TIP3   OH269624   5.299   4.627  12.562 -0.4436 -0.0823  0.0401
16070TIP3    H169625   5.241   4.582  12.622 -1.2119 -1.2670 -1.5239
16070TIP3    H269626   5.365   4.561  12.538  0.6723  0.7852  0.6083
16071TIP3   OH269627   0.087   3.516  12.266  0.4024 -0.0392  0.0115
16071TIP3    H169628   0.005   3.475  12.296  1.1350 -1.9286 -0.3933
16071TIP3    H269629   0.145   3.509  12.342  0.6863 -0.2365 -0.2196
16072TIP3   OH269630   4.869   2.557  13.902  0.2606 -0.9183 -0.0453
16072TIP3    H169631   4.961   2.579  13.918 -0.3062  2.2562 -0.4669
16072TIP3    H269632   4.853   2.585  13.812 -1.7943  1.5189  0.9787
16073TIP3   OH269633   4.348   2.302  16.441  0.4864  0.6897  0.1837
16073TIP3    H169634   4.261   2.311  16.401  0.7364 -0.0399 -0.5527
16073TIP3    H269635   4.372   2.391  16.465  0.8580  1.4095 -2.4735
16074TIP3   OH269636   0.789   5.020   4.021 -0.1008  0.7647  0.7616
16074TIP3    H169637   0.763   4.965   4.095  1.3690 -1.7747 -0.4708
16074TIP3    H269638   0.882   5.003   4.010  0.3741  3.4044  0.1191
16075TIP3   OH269639   5.818   2.891  10.490  0.2867 -0.5500 -0.0503
16075TIP3    H169640   5.730   2.859  10.469  0.7499 -2.1635  0.3739
16075TIP3    H269641   5.847   2.933  10.409 -0.6875 -0.3798 -0.3336
16076TIP3   OH269642   3.044   2.373   2.561  0.6579 -0.4887 -0.3186
16076TIP3    H169643   3.135   2.346   2.548  0.3874 -0.8478 -1.6319
16076TIP3    H269644   3.044   2.466   2.539  0.4319 -0.8379 -1.9861
16077TIP3   OH269645   4.089   3.632  14.713  0.8248  0.4094 -0.3242
16077TIP3    H169646   4.050   3.703  14.664  0.5525  0.5915  0.1481
16077TIP3    H269647   4.159   3.598  14.656  0.7238  0.8196 -0.6933
16078TIP3   OH269648   3.504   0.456   3.612 -0.1403 -0.1224 -0.2863
16078TIP3    H169649   3.547   0.473   3.696  1.8544 -1.2163 -1.0088
16078TIP3    H269650   3.457   0.374   3.626 -1.2971  0.5974  0.2322
16079TIP3   OH269651   5.296   1.277  16.015 -0.1989  0.3436  0.1735
16079TIP3    H169652   5.203   1.283  16.037 -0.2152  3.2076 -0.2713
16079TIP3    H269653   5.341   1.317  16.089  0.6845 -0.7088  0.2338
16080TIP3   OH269654   1.669   5.202   3.527 -0.3461 -0.6523  0.0324
16080TIP3    H169655   1.756   5.231   3.498  0.0499  0.5281  2.1991
16080TIP3    H269656   1.611   5.221   3.453  1.0223 -0.3004 -0.9901
16081TIP3   OH269657   3.438   6.670   3.011 -0.6331  0.0187 -0.6691
16081TIP3    H169658   3.445   6.761   3.037  2.6485  0.3710 -2.3548
16081TIP3    H269659   3.482   6.621   3.080  0.2063  0.0373 -1.1822
16082TIP3   OH269660   0.289   4.246   0.095  0.4098  0.6247 -0.3036
16082TIP3    H169661   0.355   4.303   0.057 -0.4370  1.2296 -0.8928
16082TIP3    H269662   0.289   4.168   0.039  0.9456  0.4083 -0.0155
16083TIP3   OH269663   2.830   2.031   1.943 -0.2389 -0.1193 -0.2425
16083TIP3    H169664   2.812   2.071   2.028 -1.0112  1.1275 -0.9634
16083TIP3    H269665   2.755   2.054   1.889  1.7936  2.2677 -2.3264
16084TIP3   OH269666   1.194   3.888  13.018 -0.6218  0.0285 -0.3671
16084TIP3    H169667   1.167   3.837  13.095 -1.7885  0.4232 -0.4861
16084TIP3    H269668   1.148   3.972  13.028  0.9934  0.9618 -0.3423
16085TIP3   OH269669   3.888   0.852  16.003 -0.2711  0.8771 -0.1547
16085TIP3    H169670   3.836   0.846  16.083 -1.0258 -0.4945 -0.7122
16085TIP3    H269671   3.889   0.763  15.969 -2.3222  1.8365 -3.1242
16086TIP3   OH269672   2.442   3.930  15.618  0.4558 -0.0318  0.0918
16086TIP3    H169673   2.408   3.946  15.706 -2.4407  0.9062 -1.1223
16086TIP3    H269674   2.391   3.986  15.560  1.4464 -1.4915 -2.3732
16087TIP3   OH269675   1.042   6.426  16.477  0.3344  0.0540  0.4065
16087TIP3    H169676   1.035   6.504  16.531  0.7453  1.0354 -0.9029
16087TIP3    H269677   0.979   6.440  16.406 -1.5788 -2.0449  1.5358
16088TIP3   OH269678   3.445   6.808   0.618  0.6791 -0.1245 -0.1884
16088TIP3    H169679   3.424   6.900   0.604 -1.8273 -0.4203  1.0796
16088TIP3    H269680   3.406   6.762   0.544  0.5222 -0.2858 -0.0096
16089TIP3   OH269681   6.257   0.908  12.060 -0.0956  0.6032  0.2440
16089TIP3    H169682   6.262   0.975  11.991  1.1311  1.3636  1.0143
16089TIP3    H269683   6.349   0.893  12.084 -0.4935  0.3883  1.7138
16090TIP3   OH269684   0.021   0.886  11.150 -0.4776  0.0675 -0.3234
16090TIP3    H169685   0.011   0.936  11.231 -0.9881 -0.8688  0.2091
16090TIP3    H269686  -0.052   0.916  11.095 -0.3478  0.4311 -0.3048
16091TIP3   OH269687   1.328   5.532   0.623  0.0133 -0.0370  0.1519
16091TIP3    H169688   1.304   5.523   0.531 -1.3092 -1.1387  0.5753
16091TIP3    H269689   1.420   5.558   0.621 -0.7209  2.8921 -1.5284
16092TIP3   OH269690   0.793   5.410  14.262 -0.2396 -0.1082 -0.1723
16092TIP3    H169691   0.751   5.327  14.288 -1.3198  0.0395 -1.3630
16092TIP3    H269692   0.752   5.476  14.318  0.6749 -0.3578  0.8292
16093TIP3   OH269693   6.166   5.360  10.657  0.4902  0.2309  0.6738
16093TIP3    H169694   6.081   5.343  10.618 -0.0993 -0.8083  2.3136
16093TIP3    H269695   6.172   5.456  10.660 -0.3061  0.3205 -0.0690
16094TIP3   OH269696   5.661   0.217   4.524  0.6419  0.0355 -0.3567
16094TIP3    H169697   5.720   0.239   4.596 -0.0218  0.8542 -0.0405
16094TIP3    H269698   5.673   0.286   4.460 -1.5399  1.5004  0.6947
16095TIP3   OH269699   1.302   1.190  13.589 -0.2401  0.4050  0.1339
16095TIP3    H169700   1.235   1.122  13.602 -0.1812  0.6768  2.0882
16095TIP3    H269701   1.369   1.170  13.653  0.4618  1.5024 -0.2415
16096TIP3   OH269702   1.709   4.835  15.036  0.8947 -0.8523 -0.1251
16096TIP3    H169703   1.796   4.868  15.056  0.9259 -2.1786  2.2743
16096TIP3    H269704   1.650   4.887  15.090  0.0953  0.1329 -1.8354
16097TIP3   OH269705   3.717   5.275  10.544 -0.6513  0.0511  0.2746
16097TIP3    H169706   3.744   5.280  10.452  0.2999  1.5953  0.6163
16097TIP3    H269707   3.786   5.222  10.585  0.5437  1.8116  0.6355
16098TIP3   OH269708   1.061   1.114  15.230 -0.0863 -0.3590  0.5942
16098TIP3    H169709   0.988   1.056  15.248  0.4996 -1.5728 -0.7525
16098TIP3    H269710   1.023   1.187  15.182 -0.3623 -1.2699 -0.6188
16099TIP3   OH269711   4.825   0.672  14.162 -0.0385  0.3189  0.0747
16099TIP3    H169712   4.774   0.718  14.096 -2.0418 -0.3287  1.1131
16099TIP3    H269713   4.834   0.583  14.128 -0.6386  0.1182  0.4332
16100TIP3   OH269714   0.561   1.606   2.079  0.1864  0.2033  0.1973
16100TIP3    H169715   0.625   1.623   2.148  1.1476 -0.0701 -0.6013
16100TIP3    H269716   0.572   1.514   2.057 -2.1627 -0.5320  1.6676
16101TIP3   OH269717   4.215   0.145   1.445  0.5657 -0.2509  0.2719
16101TIP3    H169718   4.223   0.137   1.540  3.8855  2.1832  0.3880
16101TIP3    H269719   4.253   0.231   1.425 -2.1432  0.3985 -3.0997
16102TIP3   OH269720   0.073   6.430   1.307  0.2070 -0.1888  0.3054
16102TIP3    H169721   0.168   6.439   1.308  0.1245  1.1372  2.2921
16102TIP3    H269722   0.048   6.435   1.400 -1.8354  0.0816 -0.2200
16103TIP3   OH269723   5.872   3.242  12.033  0.4990  0.8089  0.1602
16103TIP3    H169724   5.837   3.206  12.114  1.1809  0.3730  0.2670
16103TIP3    H269725   5.931   3.175  12.000 -1.7542 -0.2137 -2.1156
16104TIP3   OH269726   6.084   4.504   2.644  0.2520 -0.2336  0.1922
16104TIP3    H169727   6.020   4.512   2.714  2.1465  0.5190  1.9178
16104TIP3    H269728   6.153   4.566   2.666  0.3467  1.0565 -3.0777
16105TIP3   OH269729   4.538   5.849  16.638 -0.1733 -0.1314  0.0763
16105TIP3    H169730   4.480   5.839  16.562  1.4387  1.0240 -1.4103
16105TIP3    H269731   4.626   5.850  16.600  0.7244 -0.1509  2.0599
16106TIP3   OH269732   3.730   1.236  14.406 -0.2966 -0.2265  0.3103
16106TIP3    H169733   3.656   1.199  14.455  0.7058  0.4118  2.4142
16106TIP3    H269734   3.764   1.306  14.462  2.3932 -1.0173 -0.1701
16107TIP3   OH269735   5.026   5.609  14.843  0.1140  0.3431 -0.0438
16107TIP3    H169736   4.938   5.646  14.852  0.0663  0.0143  1.0029
16107TIP3    H269737   5.056   5.598  14.933  0.1314 -2.1524 -0.2776
16108TIP3   OH269738   6.151   6.807  12.403 -0.4451  0.6079  0.3712
16108TIP3    H169739   6.090   6.829  12.333 -1.6651 -1.2182  0.7703
16108TIP3    H269740   6.220   6.873  12.397 -1.2348  1.3377 -1.6277
16109TIP3   OH269741   2.380   3.500  16.538  0.5779  0.2526  0.0465
16109TIP3    H169742   2.301   3.554  16.539  0.8674  0.7129  1.8447
16109TIP3    H269743   2.352   3.416  16.576  0.6441 -0.0600 -0.5934
16110TIP3   OH269744   4.830   4.355   1.297  0.1298 -0.2906  0.3411
16110TIP3    H169745   4.832   4.446   1.328  1.4057 -0.0012 -0.4738
16110TIP3    H269746   4.822   4.363   1.202  1.6635 -0.9568  0.1239
16111TIP3   OH269747   0.694   1.118  14.654 -0.5761  0.1203 -0.3585
16111TIP3    H169748   0.665   1.209  14.658 -1.9835 -0.2726 -1.1512
16111TIP3    H269749   0.615   1.067  14.674  0.3275 -0.9254  0.6757
16112TIP3   OH269750   2.334   5.988  15.676 -0.0999 -0.2861 -0.2016
16112TIP3    H169751   2.244   5.969  15.700  0.3216 -0.3240  1.5342
16112TIP3    H269752   2.348   6.079  15.704  0.6453 -0.5801  0.4404
16113TIP3   OH269753   0.054   1.971   2.459 -0.0652  0.4955 -0.3976
16113TIP3    H169754  -0.026   1.917   2.457  0.2786 -0.2109  1.8081
16113TIP3    H269755   0.098   1.952   2.376  1.0177 -4.3336  0.9223
16114TIP3   OH269756   0.152   1.147  13.049  0.3754  1.0275 -0.3822
16114TIP3    H169757   0.130   1.239  13.061 -0.1798  0.8569 -0.0675
16114TIP3    H269758   0.204   1.124  13.125  0.5636  1.0984 -0.4909
16115TIP3   OH269759   0.644   2.543  11.266  0.1651 -0.1990  0.1232
16115TIP3    H169760   0.608   2.504  11.345  0.5579  1.3263  1.0910
16115TIP3    H269761   0.576   2.605  11.237 -1.3299 -2.8283 -2.5035
16116TIP3   OH269762   3.163   3.399   1.629 -0.1708  0.2748  0.2389
16116TIP3    H169763   3.119   3.473   1.587  1.3529  1.1575  0.1341
16116TIP3    H269764   3.255   3.422   1.628  0.4573 -2.0046 -0.5036
16117TIP3   OH269765   2.974   0.231  10.897  0.6490  0.5162 -0.3547
16117TIP3    H169766   2.982   0.273  10.811 -0.5749  0.8211 -0.3340
16117TIP3    H269767   2.880   0.222  10.911  0.7459  1.8941  1.6273
16118TIP3   OH269768   5.928   1.854   0.473  0.3134 -0.4706 -0.1494
16118TIP3    H169769   5.974   1.807   0.542 -0.0560 -1.8280 -0.8075
16118TIP3    H269770   5.890   1.786   0.417  0.8048  0.5773 -1.8430
16119TIP3   OH269771   5.471   2.281   1.866  0.4772  0.4115  0.5397
16119TIP3    H169772   5.433   2.215   1.808  2.2194  0.7717 -1.1208
16119TIP3    H269773   5.528   2.231   1.924  1.9035  0.3730 -0.8076
16120TIP3   OH269774   3.827   1.281   1.705 -0.2049 -0.0701 -0.4996
16120TIP3    H169775   3.868   1.367   1.714  1.7492 -0.9795 -0.0513
16120TIP3    H269776   3.807   1.274   1.612  0.1562  0.6429 -0.6402
16121TIP3   OH269777   1.398   6.040  10.890 -0.0957  0.2913  0.1833
16121TIP3    H169778   1.364   5.951  10.882  1.6808 -0.4116 -0.0899
16121TIP3    H269779   1.378   6.080  10.805 -0.7112  0.0920  0.2267
16122TIP3   OH269780   0.331   2.340  11.258 -0.3390 -0.1105  0.0842
16122TIP3    H169781   0.330   2.386  11.174  3.1115 -0.4130 -0.2525
16122TIP3    H269782   0.350   2.409  11.322  2.2883 -0.5857 -0.1075
16123TIP3   OH269783   4.897   4.670   0.851  0.1367 -0.2304  0.6111
16123TIP3    H169784   4.932   4.598   0.799  0.8746  0.1641  0.5407
16123TIP3    H269785   4.857   4.729   0.787  1.0642  0.2658  0.4744
16124TIP3   OH269786   0.155   2.246   2.087 -0.2483 -0.0129  0.2446
16124TIP3    H169787   0.160   2.179   2.019  0.7320  0.8765 -0.6041
16124TIP3    H269788   0.221   2.220   2.151  0.2351  0.2182 -0.1576
16125TIP3   OH269789   2.032   1.825  14.376  0.5463 -0.0844 -0.0440
16125TIP3    H169790   1.977   1.781  14.312  1.9075  0.2667 -1.5216
16125TIP3    H269791   1.991   1.807  14.461 -0.0152 -2.5220 -0.7768
16126TIP3   OH269792   6.059   6.124   0.200 -0.2675 -0.4294 -0.1773
16126TIP3    H169793   5.967   6.103   0.183 -0.9710  1.6090  0.7165
16126TIP3    H269794   6.055   6.208   0.246  2.0602 -0.3043 -0.1262
16127TIP3   OH269795   1.451   5.543   5.666 -0.1777  0.2135 -0.1146
16127TIP3    H169796   1.487   5.547   5.754 -0.7888 -1.5199  0.2548
16127TIP3    H269797   1.369   5.592   5.671 -0.5385 -0.4407  0.4628
16128TIP3   OH269798   5.491   5.777   2.473  0.7898  0.1063  0.0467
16128TIP3    H169799   5.566   5.834   2.489  1.9882 -1.3028 -0.4023
16128TIP3    H269800   5.521   5.713   2.410 -0.5123 -1.0462  0.5299
16129TIP3   OH269801   0.321   6.597   3.528  0.1135  0.1695 -0.3841
16129TIP3    H169802   0.400   6.554   3.495  0.7769  1.8205 -1.0645
16129TIP3    H269803   0.322   6.579   3.622  1.2665  0.0861 -0.3993
16130TIP3   OH269804   0.025   5.285  12.392 -0.3703  0.3322  0.2693
16130TIP3    H169805   0.062   5.343  12.326 -0.1190  0.0409  0.1494
16130TIP3    H269806  -0.065   5.314  12.403 -0.7452 -0.2914 -0.9732
16131TIP3   OH269807   5.838   6.697  13.793  0.8289  0.3003  0.2716
16131TIP3    H169808   5.757   6.719  13.747  0.6010 -0.3633  0.3450
16131TIP3    H269809   5.900   6.673  13.723  1.5097  2.4156  0.0815
16132TIP3   OH269810   5.325   0.321   6.583  0.8568  0.1974  0.2627
16132TIP3    H169811   5.242   0.330   6.536  1.1106  0.8648 -0.0726
16132TIP3    H269812   5.326   0.231   6.613  0.5013 -0.1268 -0.6726
16133TIP3   OH269813   0.770   0.896  16.900 -0.0565  0.3207 -0.5640
16133TIP3    H169814   0.812   0.917  16.983  2.3216 -0.4440 -1.5021
16133TIP3    H269815   0.702   0.963  16.890 -1.8071 -0.7049  2.8551
16134TIP3   OH269816   1.526   0.601   4.574 -0.2557  0.2960 -0.1798
16134TIP3    H169817   1.500   0.676   4.521  0.1793  0.2953 -0.3967
16134TIP3    H269818   1.462   0.598   4.645 -0.8280  0.3124 -0.6893
16135TIP3   OH269819   5.362   6.078  13.011 -0.1398  0.6269 -0.3028
16135TIP3    H169820   5.353   6.040  12.923  1.4865 -1.1779  0.2448
16135TIP3    H269821   5.451   6.111  13.014  0.6071 -1.3411  1.3445
16136TIP3   OH269822   3.590   6.716   5.216  0.1247 -0.2731  0.4559
16136TIP3    H169823   3.549   6.736   5.132  0.5798 -2.0832 -0.2312
16136TIP3    H269824   3.572   6.793   5.270 -0.7017  0.6644 -1.0921
16137TIP3   OH269825   1.052   0.885  13.723 -0.4667  0.0854  0.7685
16137TIP3    H169826   1.090   0.889  13.636 -0.6363  1.7800  0.7349
16137TIP3    H269827   0.986   0.816  13.717 -0.0944 -0.1963 -0.2858
16138TIP3   OH269828   0.322   1.560  13.937 -0.2036  0.4097  0.1856
16138TIP3    H169829   0.413   1.558  13.910 -0.8658  0.1850 -2.2634
16138TIP3    H269830   0.296   1.468  13.943 -0.9059  0.4287 -1.7354
16139TIP3   OH269831   2.884   2.204   5.287 -0.1824  0.8232 -0.1676
16139TIP3    H169832   2.948   2.229   5.353 -0.6554  2.2812 -0.2273
16139TIP3    H269833   2.802   2.195   5.335 -0.6874  2.6203 -0.6213
16140TIP3   OH269834   6.758   6.666  13.520 -0.0540 -0.3538 -0.3438
16140TIP3    H169835   6.717   6.705  13.596 -0.0617  0.4553 -0.7547
16140TIP3    H269836   6.818   6.600  13.555  0.0514  0.1169  0.3572
16141TIP3   OH269837   0.452   3.523   2.106 -0.6910  0.6808 -0.1942
16141TIP3    H169838   0.483   3.596   2.158 -0.1341  0.8309 -0.7267
16141TIP3    H269839   0.467   3.549   2.015  2.4210 -1.2897 -0.3896
16142TIP3   OH269840   3.517   6.403  13.936 -0.4944 -0.1509 -0.3598
16142TIP3    H169841   3.600   6.449  13.928  2.6840 -5.1010  0.0493
16142TIP3    H269842   3.483   6.400  13.846  0.7700  0.3032 -0.8730
16143TIP3   OH269843   4.861   6.191  16.905 -0.0578 -0.8183 -0.5342
16143TIP3    H169844   4.800   6.242  16.958  1.0191 -0.4925  0.4268
16143TIP3    H269845   4.940   6.245  16.899  0.4494 -1.5896 -1.0409
16144TIP3   OH269846   3.112   3.877  14.216 -0.3258  0.1876  0.4490
16144TIP3    H169847   3.028   3.921  14.201  0.8028  2.0608 -0.8536
16144TIP3    H269848   3.171   3.916  14.152  1.5039 -1.2400  1.1790
16145TIP3   OH269849   4.896   2.725   1.468  0.1836 -0.0898 -0.4576
16145TIP3    H169850   4.930   2.670   1.398  0.4962  1.8536 -1.9265
16145TIP3    H269851   4.974   2.770   1.503 -0.2374  0.6699 -0.4637
16146TIP3   OH269852   1.852   2.087   3.402 -0.4157 -0.6016  0.2019
16146TIP3    H169853   1.850   2.116   3.493 -1.5541  1.8743 -0.5241
16146TIP3    H269854   1.778   2.027   3.394 -0.2759 -0.8746  0.9077
16147TIP3   OH269855   5.520   0.909  16.402  0.5286  0.0986  0.3163
16147TIP3    H169856   5.466   0.953  16.337  0.9099  1.1912  0.7225
16147TIP3    H269857   5.577   0.977  16.436  2.6516 -1.1559 -0.5693
16148TIP3   OH269858   1.509   4.179   4.220 -0.1031 -0.9044  0.2192
16148TIP3    H169859   1.586   4.126   4.239 -0.0171 -0.9483 -0.2361
16148TIP3    H269860   1.538   4.269   4.234  0.0934 -0.9080 -0.1531
16149TIP3   OH269861   6.063   5.775  15.768  0.6566  0.1340 -0.4393
16149TIP3    H169862   6.074   5.757  15.862  0.4520  3.1732  0.2976
16149TIP3    H269863   6.075   5.870  15.761  0.1156  0.0767 -3.4445
16150TIP3   OH269864   2.102   3.624  11.944 -0.0616  0.3486 -0.7653
16150TIP3    H169865   2.174   3.614  12.006 -0.9090 -0.3372  0.1359
16150TIP3    H269866   2.023   3.623  11.998 -0.7285  1.8023 -1.6700
16151TIP3   OH269867   5.183   2.869  14.786  0.0627 -0.3815 -0.7194
16151TIP3    H169868   5.262   2.921  14.772  0.0902 -0.3047 -0.2830
16151TIP3    H269869   5.119   2.905  14.724  0.4663 -0.6643 -1.3133
16152TIP3   OH269870   1.560   2.519  12.061  0.0859 -0.0969  0.4631
16152TIP3    H169871   1.573   2.458  11.988  0.5429 -0.3356  0.7380
16152TIP3    H269872   1.508   2.590  12.024 -0.4353 -0.6374  0.1255
16153TIP3   OH269873   5.694   1.492  16.057 -0.1005  0.6718 -0.1319
16153TIP3    H169874   5.762   1.426  16.073 -0.8399  0.1341  0.8639
16153TIP3    H269875   5.680   1.488  15.962 -2.3304 -2.9109  0.1707
16154TIP3   OH269876   2.933   6.082   0.958 -0.0851 -0.6248  0.1930
16154TIP3    H169877   2.887   6.006   0.996  0.2755 -0.6287  0.6287
16154TIP3    H269878   2.872   6.155   0.970 -1.2027 -1.1577 -1.8403
16155TIP3   OH269879   2.206   0.074   1.177 -0.4353  0.3679  0.0541
16155TIP3    H169880   2.114   0.090   1.196 -0.2716 -0.8652  2.2942
16155TIP3    H269881   2.207  -0.004   1.122 -0.7317  0.8149 -0.5996
16156TIP3   OH269882   3.030   0.139   4.261 -0.0700 -0.9857  0.1364
16156TIP3    H169883   3.034   0.109   4.352 -1.2861  0.8218  0.8297
16156TIP3    H269884   2.944   0.178   4.252  0.2618 -0.5759 -1.6387
16157TIP3   OH269885   2.412   5.959  11.845 -0.0204  0.1257 -0.0601
16157TIP3    H169886   2.507   5.958  11.840 -0.0773 -0.5186 -3.0583
16157TIP3    H269887   2.384   5.994  11.761 -2.4332 -0.9750  0.1982
16158TIP3   OH269888   1.599   6.408  14.813 -0.4294 -0.0268 -0.2260
16158TIP3    H169889   1.546   6.394  14.734  0.3504 -2.5455 -0.4059
16158TIP3    H269890   1.689   6.398  14.784 -0.0847 -0.0941  0.8076
16159TIP3   OH269891   0.737   0.546  15.794 -0.2635  0.4229  0.0633
16159TIP3    H169892   0.702   0.467  15.835 -0.6853  0.7406  0.3290
16159TIP3    H269893   0.730   0.529  15.700  0.7714 -0.3338  0.1148
16160TIP3   OH269894   1.531   5.696  16.651 -0.3625  0.1312 -0.4575
16160TIP3    H169895   1.501   5.662  16.735 -1.7300  0.3709 -0.8209
16160TIP3    H269896   1.452   5.699  16.597  0.4415  0.2609 -1.6548
16161TIP3   OH269897   4.048   3.577  11.040 -0.3396 -0.3499 -0.7650
16161TIP3    H169898   4.020   3.667  11.033  0.3392 -0.0203  0.3423
16161TIP3    H269899   4.030   3.538  10.955 -0.9615  0.7300 -1.1356
16162TIP3   OH269900   4.934   1.147  13.080 -0.5226  0.0729  0.1877
16162TIP3    H169901   5.009   1.193  13.119 -0.8973  0.6007  0.2919
16162TIP3    H269902   4.951   1.054  13.099 -1.1552  0.3645  2.4752
16163TIP3   OH269903   4.880   0.411   1.643  0.0467 -0.6692  0.4001
16163TIP3    H169904   4.951   0.471   1.620 -0.1624  0.3729  2.2602
16163TIP3    H269905   4.828   0.403   1.563  0.6459  0.8393 -0.1688
16164TIP3   OH269906   4.728   5.584  14.821  0.5225 -0.9649  0.4363
16164TIP3    H169907   4.699   5.602  14.732 -1.2675 -1.0564  0.9578
16164TIP3    H269908   4.648   5.592  14.874  1.2486 -2.3577  1.8173
16165TIP3   OH269909   1.190   2.200  11.486 -0.3943  0.4286 -0.2476
16165TIP3    H169910   1.239   2.187  11.405 -1.6576  1.3812 -1.2101
16165TIP3    H269911   1.101   2.221  11.457 -1.0178  0.2100  1.4058
16166TIP3   OH269912   5.795   6.301   4.256  0.7683 -0.0487 -0.0623
16166TIP3    H169913   5.736   6.240   4.211  0.4965 -0.2128  0.5091
16166TIP3    H269914   5.846   6.246   4.315 -1.3083  0.5169  2.4672
16167TIP3   OH269915   6.134   5.234  16.674 -0.7334  0.3406 -0.4411
16167TIP3    H169916   6.087   5.220  16.756  0.3277  0.6649  0.2466
16167TIP3    H269917   6.101   5.167  16.615 -2.4697  0.9162 -0.1779
16168TIP3   OH269918   6.656   6.125   5.656  0.1034  0.1621 -0.3852
16168TIP3    H169919   6.742   6.137   5.695  0.6609 -0.3530 -1.4220
16168TIP3    H269920   6.615   6.212   5.660  1.1656  0.7088 -1.0348
16169TIP3   OH269921   2.955   5.013   3.496  0.4944  0.3964  0.1826
16169TIP3    H169922   2.961   5.074   3.423  1.9015 -0.0048 -0.0544
16169TIP3    H269923   2.985   4.929   3.460 -1.1200 -0.3977  0.5694
16170TIP3   OH269924   0.239   5.259   5.065  0.5016 -0.0197  0.0422
16170TIP3    H169925   0.269   5.281   5.153 -0.3604  0.1686  0.3012
16170TIP3    H269926   0.187   5.334   5.038  0.9134  0.0043 -0.7109
16171TIP3   OH269927   6.261   0.931   2.381 -0.1232 -0.0050  0.5245
16171TIP3    H169928   6.195   0.921   2.449 -0.7346  0.6309  0.0522
16171TIP3    H269929   6.210   0.949   2.301  0.5963 -0.1225  0.0285
16172TIP3   OH269930   3.776   2.309  15.951  0.0735  0.1975 -0.0922
16172TIP3    H169931   3.705   2.246  15.967 -0.3462  0.3948 -1.1378
16172TIP3    H269932   3.841   2.259  15.902  1.7733 -0.6685  2.8282
16173TIP3   OH269933   4.896   4.764   4.285 -0.2013  0.7881 -0.4434
16173TIP3    H169934   4.844   4.844   4.293 -1.4779 -0.0839  0.3457
16173TIP3    H269935   4.983   4.789   4.313 -1.3891  1.1241  3.4398
16174TIP3   OH269936   4.758   4.250  11.561  0.4133  0.7122 -0.0519
16174TIP3    H169937   4.767   4.294  11.477 -0.7008 -0.2607 -0.7086
16174TIP3    H269938   4.706   4.310  11.614  2.6048  2.1496  0.6173
16175TIP3   OH269939   0.378   1.127   4.276  0.4450  0.1736 -0.3846
16175TIP3    H169940   0.410   1.216   4.258 -0.5356  1.0142  1.6472
16175TIP3    H269941   0.321   1.107   4.201  0.1134  1.5716 -0.5525
16176TIP3   OH269942   0.631   2.536   3.849 -0.6709 -0.1916 -0.1239
16176TIP3    H169943   0.596   2.460   3.896 -0.3911  0.5761  1.4074
16176TIP3    H269944   0.611   2.610   3.906  0.6986  0.6459 -0.6941
16177TIP3   OH269945   0.673   2.826  12.340  0.3243 -0.2395  0.0652
16177TIP3    H169946   0.654   2.745  12.387  0.0412 -0.1840  0.0448
16177TIP3    H269947   0.588   2.866  12.325  0.5257  0.6300  1.0762
16178TIP3   OH269948   3.606   0.819  12.053  0.1415 -0.1688 -0.4643
16178TIP3    H169949   3.548   0.844  11.981  0.1688  0.9977 -0.1037
16178TIP3    H269950   3.553   0.831  12.132  0.3724 -0.6372 -0.2338
16179TIP3   OH269951   3.999   5.009  15.122 -0.0078  0.2329 -0.2267
16179TIP3    H169952   4.087   4.976  15.104 -1.0728 -2.9294 -0.2783
16179TIP3    H269953   3.993   5.012  15.218  0.4524  1.4395 -0.2238
16180TIP3   OH269954   2.436   5.089   4.570  0.1372  0.1875  0.2549
16180TIP3    H169955   2.352   5.047   4.591 -0.1178  0.5569 -0.0104
16180TIP3    H269956   2.479   5.027   4.511 -0.4889  0.5593 -0.5985
16181TIP3   OH269957   1.351   5.420  11.964 -0.0570  0.3070  0.2576
16181TIP3    H169958   1.425   5.435  12.022  1.4109  0.8613 -1.6341
16181TIP3    H269959   1.309   5.341  11.997  1.5866 -0.2090  1.2028
16182TIP3   OH269960   2.635   1.368   4.899  0.2613  0.7085 -0.3903
16182TIP3    H169961   2.701   1.376   4.830 -1.2915  0.0112 -2.0277
16182TIP3    H269962   2.580   1.445   4.889 -0.5658  0.1049 -0.6060
16183TIP3   OH269963   5.545   5.020   0.980  0.0137 -0.2092 -0.2343
16183TIP3    H169964   5.480   4.951   0.965  0.1363 -0.2324 -0.6511
16183TIP3    H269965   5.507   5.072   1.051 -0.5804 -0.0799 -0.6338
16184TIP3   OH269966   1.268   6.262   4.444 -0.0572  0.8002 -0.5767
16184TIP3    H169967   1.178   6.268   4.412 -0.1780  0.0330 -0.3895
16184TIP3    H269968   1.278   6.338   4.502 -0.1544  1.6384 -1.6154
16185TIP3   OH269969   2.629   0.750   2.500 -0.9950  0.0444 -0.2378
16185TIP3    H169970   2.581   0.829   2.526 -1.8627 -1.0765  1.7969
16185TIP3    H269971   2.571   0.705   2.440 -1.2620  0.0862 -0.0125
16186TIP3   OH269972   2.870   1.099  15.799 -0.0041  0.0918 -0.2955
16186TIP3    H169973   2.880   1.006  15.778 -0.4023 -0.2393  0.9378
16186TIP3    H269974   2.904   1.144  15.721  6.1892 -0.9034  1.3042
16187TIP3   OH269975   1.274   6.518  11.488 -0.4160 -0.6694  0.5382
16187TIP3    H169976   1.319   6.495  11.569 -0.5337 -2.7087  0.1013
16187TIP3    H269977   1.317   6.463  11.421 -3.5179 -2.8722  0.1140
16188TIP3   OH269978   6.439   0.814   0.395 -0.2636 -0.1554  0.1703
16188TIP3    H169979   6.527   0.852   0.389 -0.5693  0.6047  0.3925
16188TIP3    H269980   6.453   0.728   0.434  0.2522  0.5275  1.5652
16189TIP3   OH269981   2.600   1.849  12.314  0.0591  0.4936  0.5225
16189TIP3    H169982   2.675   1.857  12.373 -1.0493 -1.3001  2.2956
16189TIP3    H269983   2.568   1.760  12.329 -2.6070  1.3052  0.0626
16190TIP3   OH269984   3.786   5.707  14.044  0.1216 -0.0253 -0.0075
16190TIP3    H169985   3.733   5.696  13.965 -1.8826  0.3963  1.2157
16190TIP3    H269986   3.782   5.801  14.063 -0.1972 -0.2478  1.1032
16191TIP3   OH269987   3.263   4.381   5.313 -0.4286  0.8617  0.8189
16191TIP3    H169988   3.250   4.471   5.344 -1.9023  0.9685  0.0261
16191TIP3    H269989   3.308   4.337   5.385  0.9109  2.3806  0.9660
16192TIP3   OH269990   1.158   3.441  14.786 -0.0586 -0.1119 -0.4234
16192TIP3    H169991   1.124   3.367  14.736 -2.6295  1.4704 -1.2194
16192TIP3    H269992   1.176   3.406  14.873 -4.3537 -1.1103  0.2761
16193TIP3   OH269993   0.005   1.913   5.287 -0.1481  0.0621  0.0606
16193TIP3    H169994  -0.057   1.861   5.236  0.8949 -0.1444 -1.0453
16193TIP3    H269995  -0.049   1.982   5.326 -1.3020 -0.9536  0.3421
16194TIP3   OH269996   6.673   3.788  12.181  0.3538  0.3880  0.1000
16194TIP3    H169997   6.680   3.883  12.173  0.5670  0.7624  3.5256
16194TIP3    H269998   6.763   3.757  12.190  0.3291 -0.2670 -1.4804
16195TIP3   OH269999   4.485   2.297   5.293 -0.5607 -0.0593  0.0016
16195TIP3    H170000   4.422   2.358   5.332  0.0853  0.8553 -0.3547
16195TIP3    H270001   4.512   2.338   5.212 -1.3823 -1.6373 -1.1369
16196TIP3   OH270002   5.879   2.893   2.032  0.1455 -0.5474 -0.2540
16196TIP3    H170003   5.956   2.843   2.061  0.9329  0.2542 -0.8710
16196TIP3    H270004   5.882   2.974   2.084  1.6046  0.9291 -2.4158
16197TIP3   OH270005   5.338   2.086  15.237 -0.1920  0.3127  0.2326
16197TIP3    H170006   5.289   2.151  15.186  0.8054  1.4867  0.7251
16197TIP3    H270007   5.383   2.137  15.304  1.0605 -0.8291  0.2971
16198TIP3   OH270008   6.319   4.682  16.900  0.3304 -0.1651 -0.1995
16198TIP3    H170009   6.345   4.769  16.869  0.3972 -0.5059 -1.1394
16198TIP3    H270010   6.300   4.695  16.993 -1.5896  1.2943 -0.7179
16199TIP3   OH270011   0.158   0.162   0.288  0.3968  0.2620  0.4223
16199TIP3    H170012   0.080   0.121   0.250  0.7539  0.5338 -0.6205
16199TIP3    H270013   0.124   0.234   0.341 -0.0804  0.1603  0.2583
16200TIP3   OH270014   5.735   3.484   3.669  0.0592  0.4250 -0.5922
16200TIP3    H170015   5.820   3.485   3.625  0.2760  3.5822 -0.3674
16200TIP3    H270016   5.674   3.454   3.602  1.1016 -0.1212 -1.3272
16201TIP3   OH270017   5.174   3.213   2.701  0.0006  0.1055  0.2221
16201TIP3    H170018   5.149   3.126   2.669  1.2256 -0.0401 -0.3886
16201TIP3    H270019   5.106   3.235   2.765 -0.4348 -1.2116  0.2466
16202TIP3   OH270020   2.773   4.644   3.803 -0.1245 -0.5090 -0.0712
16202TIP3    H170021   2.739   4.686   3.882 -1.1451  0.9361 -1.2316
16202TIP3    H270022   2.859   4.610   3.829  0.6042  1.9918  1.0508
16203TIP3   OH270023   5.435   1.492   1.631  0.7884  0.4317  0.4160
16203TIP3    H170024   5.442   1.521   1.722  0.9191 -1.4356  1.0359
16203TIP3    H270025   5.479   1.407   1.629 -0.9032 -0.4856 -0.9420
16204TIP3   OH270026   4.818   4.001   2.982  0.0159  0.1247 -0.0108
16204TIP3    H170027   4.887   4.026   3.044 -0.9673  1.0920  0.7292
16204TIP3    H270028   4.743   4.056   3.006 -1.0777 -1.0185 -0.6856
16205TIP3   OH270029   6.093   1.780  15.654 -0.4163  0.1480  0.4692
16205TIP3    H170030   6.123   1.689  15.644 -0.3661  0.2778 -0.7337
16205TIP3    H270031   6.043   1.797  15.574  0.2000  1.4106  0.3364
16206TIP3   OH270032   5.732   6.217   5.769  0.3252  0.1604  0.2268
16206TIP3    H170033   5.709   6.271   5.844  1.2887  1.6881 -0.5120
16206TIP3    H270034   5.679   6.252   5.697  4.1510  3.4526 -1.3972
16207TIP3   OH270035   3.495   3.361  14.168  0.1297  0.6897  0.2926
16207TIP3    H170036   3.433   3.412  14.116  1.7482  0.9768 -1.4760
16207TIP3    H270037   3.526   3.293  14.108  1.2092  0.3110  1.2483
16208TIP3   OH270038   6.185   6.164  13.422 -0.2427  0.3124  0.2465
16208TIP3    H170039   6.143   6.121  13.496 -1.1526  1.0182  0.1547
16208TIP3    H270040   6.179   6.100  13.350  0.6283 -0.3648  0.7496
16209TIP3   OH270041   2.711   0.840  15.544 -0.3196  0.5054  0.2667
16209TIP3    H170042   2.760   0.918  15.518 -0.0118  0.2590  0.0915
16209TIP3    H270043   2.774   0.787  15.592 -0.7275  0.6911  1.0159
16210TIP3   OH270044   2.346   0.911   3.750  0.1507 -0.1033  0.6855
16210TIP3    H170045   2.346   0.854   3.827 -1.0315  0.6376  1.2632
16210TIP3    H270046   2.360   0.999   3.786  1.4400  0.0497 -0.1423
16211TIP3   OH270047   2.023   5.960  11.927 -0.3506 -0.0542  0.0679
16211TIP3    H170048   1.999   5.987  11.839 -0.4839 -0.2590  0.0387
16211TIP3    H270049   1.939   5.937  11.968 -0.4737  1.5790  0.7793
16212TIP3   OH270050   1.946   6.330  12.570 -0.1100  0.4579 -0.1415
16212TIP3    H170051   1.861   6.287  12.563  0.2051  0.0721 -2.2843
16212TIP3    H270052   1.980   6.302  12.654 -1.3772 -0.7495  0.0050
16213TIP3   OH270053   3.963   5.407  14.852  0.2742 -0.1824  0.2672
16213TIP3    H170054   4.034   5.375  14.908 -0.7892 -1.2287  1.0496
16213TIP3    H270055   3.969   5.502  14.857  2.2776 -0.1990 -0.5360
16214TIP3   OH270056   3.263   6.265  15.503 -1.0244 -0.0775 -0.3124
16214TIP3    H170057   3.218   6.299  15.426  0.4410  0.0119 -1.1679
16214TIP3    H270058   3.327   6.332  15.525  1.2159 -1.7001 -1.4177
16215TIP3   OH270059   6.528   0.205   2.708 -0.2201 -0.3077  0.1734
16215TIP3    H170060   6.500   0.267   2.776 -1.6779 -1.4247  0.6387
16215TIP3    H270061   6.571   0.134   2.756 -0.2086 -0.5455 -0.1852
16216TIP3   OH270062   4.739   5.494   3.101 -0.3928 -0.2529 -0.4322
16216TIP3    H170063   4.705   5.418   3.052  0.1719 -0.8894  0.1416
16216TIP3    H270064   4.771   5.457   3.183 -2.8429  0.9995  1.2353
16217TIP3   OH270065   1.164   1.932  11.923 -0.5527 -0.0883  0.8932
16217TIP3    H170066   1.132   1.979  12.000  0.8941 -0.0745  1.5235
16217TIP3    H270067   1.253   1.965  11.909  0.1897 -1.9437  0.8064
16218TIP3   OH270068   3.460   6.148  13.705 -0.3323 -0.2878 -0.0240
16218TIP3    H170069   3.489   6.125  13.793 -0.3559  0.6272  0.2357
16218TIP3    H270070   3.400   6.222  13.719  1.6428  1.5993 -0.9802
16219TIP3   OH270071   2.528   2.730   2.229  0.5152 -0.4131  0.2142
16219TIP3    H170072   2.478   2.649   2.240  0.3793 -0.3635 -0.0144
16219TIP3    H270073   2.465   2.800   2.247  0.5480 -0.3535  0.1013
16220TIP3   OH270074   0.342   3.434  13.490 -0.4450  0.2512  1.0159
16220TIP3    H170075   0.416   3.491  13.469 -0.8883  0.3667 -0.3253
16220TIP3    H270076   0.293   3.482  13.556  0.0315  0.7092  1.0423
16221TIP3   OH270077   0.053   0.426  12.904  0.1059 -0.2691  0.1991
16221TIP3    H170078   0.063   0.503  12.961  0.9443 -0.1159 -0.1535
16221TIP3    H270079  -0.009   0.455  12.837  2.6881  1.1831 -1.7367
16222TIP3   OH270080   3.747   0.713   5.877 -0.3851 -0.2522  0.5683
16222TIP3    H170081   3.826   0.764   5.858 -0.7371  0.6627  1.5053
16222TIP3    H270082   3.777   0.645   5.937 -0.5196  0.8364  1.9062
16223TIP3   OH270083   2.327   1.396  15.425  0.6904  0.2722  0.1820
16223TIP3    H170084   2.248   1.449  15.433  0.0006 -0.3829 -1.7244
16223TIP3    H270085   2.386   1.430  15.492 -0.0151  2.9236 -0.4466
16224TIP3   OH270086   4.935   4.112   3.726 -0.3242 -0.2923 -0.5695
16224TIP3    H170087   4.964   4.183   3.783  1.6081 -0.4150 -1.3270
16224TIP3    H270088   4.861   4.148   3.678  0.2344  1.0057 -0.4872
16225TIP3   OH270089   0.741   4.565  12.334  0.0119  0.0277 -0.7204
16225TIP3    H170090   0.836   4.580  12.338 -0.3350  2.3228  0.2581
16225TIP3    H270091   0.708   4.635  12.278 -1.4928  1.7274  2.0724
16226TIP3   OH270092   5.469   4.524   3.357 -0.5321  0.4934  0.0190
16226TIP3    H170093   5.519   4.516   3.276  1.2870  1.0744  1.0222
16226TIP3    H270094   5.503   4.455   3.414  0.8983  2.3606  1.5617
16227TIP3   OH270095   2.474   3.007  13.156 -0.0971 -0.5213 -0.0740
16227TIP3    H170096   2.508   2.969  13.238  0.0733  1.1492  0.6729
16227TIP3    H270097   2.413   2.941  13.123  0.5676 -1.6629  0.8782
16228TIP3   OH270098   6.735   4.165   5.807  0.1135 -0.4150 -0.2639
16228TIP3    H170099   6.737   4.154   5.902  0.4291 -1.1694 -0.3533
16228TIP3    H270100   6.781   4.089   5.773  0.3165  0.0349 -1.0125
16229TIP3   OH270101   2.558   0.955  14.081  0.1969  0.7397  0.2271
16229TIP3    H170102   2.468   0.924  14.087  0.5931 -0.7795 -1.0458
16229TIP3    H270103   2.555   1.028  14.020  0.2805 -1.6041 -2.7766
16230TIP3   OH270104   2.452   1.138  15.003  0.3145  0.3014  0.0143
16230TIP3    H170105   2.381   1.152  15.065  0.1511  0.0127 -0.1087
16230TIP3    H270106   2.493   1.224  14.995 -1.9121  1.2768 -2.2516
16231TIP3   OH270107   0.744   5.829   3.548  0.2114 -0.1078 -0.2975
16231TIP3    H170108   0.720   5.737   3.553  2.3354 -0.6419  1.1332
16231TIP3    H270109   0.823   5.831   3.494  0.3962  0.8403 -0.0106
16232TIP3   OH270110   3.154   4.928  15.117  0.3290 -0.1041 -0.0374
16232TIP3    H170111   3.065   4.954  15.092  0.2500 -0.7251 -0.4259
16232TIP3    H270112   3.174   4.854  15.060 -0.0517 -1.9131  2.0279
16233TIP3   OH270113   2.439   5.088   3.124 -0.1184 -0.9414  0.6019
16233TIP3    H170114   2.470   5.168   3.167  0.9071 -1.0699  0.1189
16233TIP3    H270115   2.430   5.025   3.195  1.4489 -1.1145  0.6881
16234TIP3   OH270116   0.503   4.523   3.805 -0.5790  0.2005  0.2250
16234TIP3    H170117   0.499   4.610   3.766 -0.0754  0.5284  0.8864
16234TIP3    H270118   0.555   4.535   3.884  2.5867 -1.3576 -1.4288
16235TIP3   OH270119   6.811   6.624   4.999 -0.1587 -0.6153 -0.0225
16235TIP3    H170120   6.745   6.677   5.043  0.5969 -0.1961  0.6399
16235TIP3    H270121   6.849   6.570   5.069  0.3227 -0.7134 -0.3516
16236TIP3   OH270122   5.172   4.220   4.163 -0.4497 -0.1392  0.9259
16236TIP3    H170123   5.140   4.299   4.120  1.1091 -0.3389 -0.7398
16236TIP3    H270124   5.264   4.238   4.182 -0.0447 -1.5536  0.4403
16237TIP3   OH270125   4.679   2.707   3.758 -0.0791 -0.3860  0.2016
16237TIP3    H170126   4.628   2.760   3.697 -0.8817  0.1679  1.3272
16237TIP3    H270127   4.714   2.635   3.704 -0.2457  0.4261 -1.0227
16238TIP3   OH270128   0.888   0.247  16.691 -0.7697  0.6119 -0.1414
16238TIP3    H170129   0.814   0.307  16.678 -0.6667  1.0178  1.0366
16238TIP3    H270130   0.866   0.198  16.771  0.0484  0.4612 -0.0017
16239TIP3   OH270131   0.578   1.931   1.065  0.0357  0.2136  0.0831
16239TIP3    H170132   0.513   1.996   1.091  1.0282  1.6955 -0.9533
16239TIP3    H270133   0.566   1.921   0.971  0.4756 -0.4355  0.0896
16240TIP3   OH270134   2.602   4.584  16.365 -0.0700 -0.1183  0.2503
16240TIP3    H170135   2.631   4.523  16.297 -1.1643  1.4743 -1.7794
16240TIP3    H270136   2.523   4.624  16.329 -0.0814  1.5958  2.0170
16241TIP3   OH270137   0.583   0.784   4.827 -0.4146 -0.4884 -0.0768
16241TIP3    H170138   0.516   0.851   4.808 -1.3776 -1.0492  1.1843
16241TIP3    H270139   0.615   0.806   4.914 -0.3577 -1.3514  0.1310
16242TIP3   OH270140   3.568   0.441  10.929 -0.2327 -0.6534 -0.7348
16242TIP3    H170141   3.660   0.425  10.906  0.0908 -1.0506  0.6947
16242TIP3    H270142   3.540   0.510  10.870  0.7151 -1.1356 -1.7953
16243TIP3   OH270143   1.849   1.599   5.901 -0.2242 -0.2661 -0.0459
16243TIP3    H170144   1.934   1.558   5.890  0.2679  1.1520 -1.8851
16243TIP3    H270145   1.856   1.684   5.858 -2.3837  0.1453  0.2639
16244TIP3   OH270146   4.321   2.168  13.162  0.3148  0.2311 -0.2132
16244TIP3    H170147   4.240   2.211  13.134  1.6307  3.5627  0.5689
16244TIP3    H270148   4.358   2.132  13.081 -2.0227 -1.7296 -0.5200
16245TIP3   OH270149   2.670   0.136  12.077 -0.2989 -0.2969  0.3185
16245TIP3    H170150   2.606   0.125  12.007  0.2155  0.7449 -0.3485
16245TIP3    H270151   2.723   0.056  12.075 -0.9352 -0.7208  0.2169
16246TIP3   OH270152   1.825   4.079   3.093  0.5827  0.1254 -0.4112
16246TIP3    H170153   1.843   4.147   3.158  0.7335 -0.5596  0.2787
16246TIP3    H270154   1.911   4.054   3.059  0.6757 -0.8495  0.5133
16247TIP3   OH270155   2.894   5.020   1.604  0.1195  0.2076  0.4678
16247TIP3    H170156   2.870   5.017   1.696  1.5024 -0.2977  0.8373
16247TIP3    H270157   2.990   5.018   1.604  0.1307 -1.0234 -1.0062
16248TIP3   OH270158   1.853   4.595  12.713  0.4615  0.3953 -0.5759
16248TIP3    H170159   1.930   4.646  12.688  2.2012 -1.8475 -0.1180
16248TIP3    H270160   1.815   4.567  12.630  1.3017 -0.0997 -0.8031
16249TIP3   OH270161   0.613   3.397  10.104 -0.0510  0.1833  0.5476
16249TIP3    H170162   0.674   3.324  10.109  0.2607  0.4221  0.2949
16249TIP3    H270163   0.653   3.465  10.159 -2.0319 -0.9932  3.7189
16250TIP3   OH270164   3.188   0.164   0.884 -0.2186  0.3686  0.6091
16250TIP3    H170165   3.136   0.174   0.964 -0.8552 -0.1512  0.2670
16250TIP3    H270166   3.206   0.071   0.879  0.4725  0.5018  0.5421
16251TIP3   OH270167   2.903   2.134  10.676  0.4374  0.2694 -0.2123
16251TIP3    H170168   2.900   2.222  10.637 -1.2379  0.1976 -0.3216
16251TIP3    H270169   2.901   2.075  10.601 -1.0877  0.1462 -0.1114
16252TIP3   OH270170   5.568   5.684  14.756 -0.1865  0.3045  0.2422
16252TIP3    H170171   5.591   5.777  14.758 -2.6389  1.0166 -0.8440
16252TIP3    H270172   5.472   5.683  14.748 -0.0627 -2.2163 -3.0946
16253TIP3   OH270173   1.762   1.847  13.015 -0.5045  0.0156 -0.4118
16253TIP3    H170174   1.841   1.817  13.059  0.2378  0.5383 -1.3504
16253TIP3    H270175   1.713   1.767  12.997 -0.7434 -0.2230  1.1689
16254TIP3   OH270176   1.054   3.024  16.680  0.1625 -0.0784  0.4598
16254TIP3    H170177   1.025   2.934  16.662 -0.8319  0.3755 -0.3188
16254TIP3    H270178   0.998   3.053  16.751 -0.1358  0.2236  0.1067
16255TIP3   OH270179   6.436   2.159  12.004 -0.0719 -0.6706  0.0210
16255TIP3    H170180   6.514   2.184  12.053 -0.0399 -0.2492 -0.2382
16255TIP3    H270181   6.410   2.239  11.957 -0.4553 -0.8998 -0.1667
16256TIP3   OH270182   5.670   2.737  16.679 -0.3955  0.4616  0.6932
16256TIP3    H170183   5.688   2.768  16.768 -1.0572  0.3542  0.8714
16256TIP3    H270184   5.586   2.692  16.686 -0.8984  1.2366 -0.1786
16257TIP3   OH270185   1.976   1.480  13.675 -0.0916 -0.1500 -0.1879
16257TIP3    H170186   2.071   1.474  13.665  0.0721 -1.9510  1.8340
16257TIP3    H270187   1.945   1.390  13.665 -1.6841  0.4870 -1.3615
16258TIP3   OH270188   2.832   1.103  12.045  0.0181 -0.2162  0.0306
16258TIP3    H170189   2.858   1.092  11.953  1.9209 -1.4160  0.6580
16258TIP3    H270190   2.776   1.181  12.045  0.2687  0.0173 -2.0866
16259TIP3   OH270191   0.026   5.285  13.922 -0.0471  0.1846  0.4576
16259TIP3    H170192   0.075   5.276  13.840 -3.0714 -1.1917 -1.3701
16259TIP3    H270193   0.046   5.374  13.952  0.1167  1.2439 -2.5154
16260TIP3   OH270194   5.492   5.997  10.780  0.3332 -0.8962 -0.0724
16260TIP3    H170195   5.485   6.022  10.872  2.9249 -0.3277  0.0552
16260TIP3    H270196   5.544   6.067  10.740  0.5456 -1.8871 -1.6318
16261TIP3   OH270197   5.449   0.968   1.249 -0.1603 -0.0301  0.0893
16261TIP3    H170198   5.460   1.020   1.328 -1.2093 -0.4887  0.5557
16261TIP3    H270199   5.443   1.032   1.178  0.2722  0.4015  0.4381
16262TIP3   OH270200   2.852   5.162  13.417 -0.3073 -0.1969  0.1500
16262TIP3    H170201   2.911   5.238  13.415  0.4651 -0.7950 -0.1296
16262TIP3    H270202   2.908   5.089  13.441 -1.2914 -0.4816  1.7163
16263TIP3   OH270203   3.644   3.158  13.482 -0.1428  0.2470 -0.4445
16263TIP3    H170204   3.686   3.143  13.397 -0.9293 -1.8511 -0.5269
16263TIP3    H270205   3.578   3.225  13.465  0.4418  0.6439 -1.2187
16264TIP3   OH270206   5.754   5.845  11.374  0.4413  0.4739 -0.0076
16264TIP3    H170207   5.752   5.789  11.451  0.0311  0.2485 -0.1748
16264TIP3    H270208   5.771   5.784  11.301 -2.3519  0.1402 -0.5106
16265TIP3   OH270209   5.338   1.258   5.434  0.1406 -0.1722  0.3152
16265TIP3    H170210   5.351   1.270   5.340 -2.6084 -2.3976 -0.4925
16265TIP3    H270211   5.312   1.344   5.466  2.5824  0.9873 -0.5687
16266TIP3   OH270212   5.676   6.558  15.472  0.3336  0.4879  0.1573
16266TIP3    H170213   5.585   6.586  15.459 -0.2734 -0.8231  1.2355
16266TIP3    H270214   5.705   6.530  15.385 -1.0961 -1.1898  0.1485
16267TIP3   OH270215   5.549   2.955  14.352 -0.3958  0.4893 -0.0352
16267TIP3    H170216   5.555   3.013  14.427  0.7013 -0.3726  0.5720
16267TIP3    H270217   5.627   2.975  14.300 -0.0735 -0.3307  0.1171
16268TIP3   OH270218   6.222   4.760  11.924 -0.4036 -0.6172 -0.0427
16268TIP3    H170219   6.259   4.677  11.893 -2.0116 -0.8509 -1.4942
16268TIP3    H270220   6.133   4.738  11.950 -0.5547  0.4952  0.4050
16269TIP3   OH270221   5.505   4.459  12.580 -0.1040  0.3245  0.0062
16269TIP3    H170222   5.568   4.530  12.590  2.2408 -1.2834 -2.2192
16269TIP3    H270223   5.537   4.391  12.639 -0.1604 -0.2511 -0.6215
16270TIP3   OH270224   3.822   1.166   0.986 -0.3775  0.2237 -0.6929
16270TIP3    H170225   3.916   1.182   0.978 -0.2780  0.3845  0.6800
16270TIP3    H270226   3.806   1.090   0.929  0.6247  0.0277 -0.7218
16271TIP3   OH270227   6.487   3.517   5.059  1.0764  0.0007  0.3511
16271TIP3    H170228   6.479   3.422   5.046 -0.8414 -0.1094  1.8827
16271TIP3    H270229   6.433   3.555   4.990 -0.0831 -0.1486  1.1476
16272TIP3   OH270230   0.001   0.905  12.482 -0.3512 -0.1906 -0.2139
16272TIP3    H170231   0.062   0.831  12.473  0.9319  0.8798 -0.7717
16272TIP3    H270232   0.044   0.964  12.544 -1.1823  0.2520 -0.0497
16273TIP3   OH270233   5.645   1.119  15.223 -0.0352 -0.4797 -0.2292
16273TIP3    H170234   5.656   1.178  15.149  3.6479  0.5779  0.9849
16273TIP3    H270235   5.588   1.167  15.283  1.2593  0.9973 -0.1365
16274TIP3   OH270236   2.834   6.020  12.035 -0.4094  0.0576 -0.3361
16274TIP3    H170237   2.791   6.055  12.112 -0.7687 -0.4380 -0.3067
16274TIP3    H270238   2.906   6.081  12.018 -1.9394  1.7233 -1.2248
16275TIP3   OH270239   0.067   2.314  12.864 -0.2918 -1.0319  0.0874
16275TIP3    H170240   0.054   2.219  12.859 -0.8621 -0.9555  0.0655
16275TIP3    H270241   0.124   2.334  12.789 -0.2077 -1.3453  0.0629
16276TIP3   OH270242   5.419   3.295   2.638  0.6261 -0.1458  0.3708
16276TIP3    H170243   5.437   3.363   2.704 -2.0122  2.0066 -0.9176
16276TIP3    H270244   5.325   3.276   2.649  0.4001 -0.6081 -1.9113
16277TIP3   OH270245   3.609   2.213  12.289  0.3692 -0.0793 -0.7846
16277TIP3    H170246   3.556   2.145  12.246 -0.4935 -0.0930  0.2528
16277TIP3    H270247   3.561   2.233  12.369  1.6668  0.3155 -0.0767
16278TIP3   OH270248   0.442   2.801  13.659 -0.5032  0.1609  0.0785
16278TIP3    H170249   0.411   2.866  13.596  2.3402  0.5854 -1.0083
16278TIP3    H270250   0.379   2.805  13.731 -2.9570  0.8331 -1.9600
16279TIP3   OH270251   5.143   1.790   5.389  0.1105  0.2295  0.1323
16279TIP3    H170252   5.160   1.798   5.483 -0.3665  1.2811  0.1412
16279TIP3    H270253   5.148   1.880   5.356 -2.0711  0.1993 -0.4415
16280TIP3   OH270254   4.884   1.374   1.729 -0.3279  0.5989  0.3148
16280TIP3    H170255   4.911   1.391   1.819  0.4767  0.0271  0.1899
16280TIP3    H270256   4.842   1.455   1.701 -0.2717  0.9008  1.0875
16281TIP3   OH270257   1.396   5.736  16.244 -0.0565 -0.2876 -0.4521
16281TIP3    H170258   1.306   5.763  16.260  0.0450  1.2416 -2.1797
16281TIP3    H270259   1.446   5.775  16.315 -0.3707  1.4264 -1.1401
16282TIP3   OH270260   5.587   2.118   5.414  0.0445  0.2603 -0.0628
16282TIP3    H170261   5.582   2.099   5.321 -0.1215  0.1726 -0.0364
16282TIP3    H270262   5.559   2.037   5.457 -1.4327  0.7960  0.0435
16283TIP3   OH270263   5.270   4.059  15.197  0.2822 -0.0079  0.1510
16283TIP3    H170264   5.181   4.076  15.229  0.5290  1.2289  0.2199
16283TIP3    H270265   5.270   3.966  15.176 -1.1491  0.0469 -0.2085
16284TIP3   OH270266   2.621   3.023   0.109 -0.5154 -0.6555 -0.3116
16284TIP3    H170267   2.646   3.068   0.190 -0.1788 -0.9559 -0.2484
16284TIP3    H270268   2.544   3.071   0.078  0.6651  0.8873 -0.9934
16285TIP3   OH270269   4.177   4.976   3.178  0.5836 -0.1262 -0.2244
16285TIP3    H170270   4.086   4.963   3.153  0.0197  2.3715  0.1723
16285TIP3    H270271   4.176   5.057   3.230  3.2078  0.8937 -1.5463
16286TIP3   OH270272   6.381   4.175  14.041 -0.1624 -0.0401  0.6047
16286TIP3    H170273   6.303   4.179  14.096 -1.1228 -2.3093 -0.4910
16286TIP3    H270274   6.351   4.139  13.958  1.4326  2.3295 -1.1497
16287TIP3   OH270275   5.045   2.886  13.895  0.5042  0.4111 -0.0224
16287TIP3    H170276   5.080   2.941  13.825  1.7471  0.3136  0.5005
16287TIP3    H270277   5.079   2.798  13.876  0.1352  0.2123  0.2253
16288TIP3   OH270278   3.795   2.183  12.020  0.3061 -0.3756 -0.3448
16288TIP3    H170279   3.821   2.115  11.958  1.2955 -0.0252 -0.3325
16288TIP3    H270280   3.878   2.215  12.056 -0.2496 -0.4610  1.0388
16289TIP3   OH270281   5.416   2.248   2.182  0.3672 -0.1530  0.7429
16289TIP3    H170282   5.423   2.184   2.253  0.6325  1.3152  2.0833
16289TIP3    H270283   5.322   2.252   2.164  0.4470 -1.8339 -0.2678
16290TIP3   OH270284   1.724   5.377  14.943 -0.2130  0.2732 -0.2522
16290TIP3    H170285   1.791   5.354  15.008 -1.6492  0.7307  1.4654
16290TIP3    H270286   1.713   5.471  14.953 -0.0644  0.4435 -1.5803
16291TIP3   OH270287   0.180   0.441   3.194  0.3012 -0.0647  0.6762
16291TIP3    H170288   0.255   0.497   3.176 -0.0397  0.0472 -0.4282
16291TIP3    H270289   0.160   0.457   3.286 -0.3423  2.3107  0.1801
16292TIP3   OH270290   2.697   2.958  12.966 -0.1524 -0.3056 -0.4957
16292TIP3    H170291   2.676   3.011  12.889  0.8208  1.5886  0.4447
16292TIP3    H270292   2.641   2.993  13.035  1.0815  0.0883  0.3416
16293TIP3   OH270293   5.692   4.237   5.760 -0.3581 -0.0450  0.5182
16293TIP3    H170294   5.632   4.166   5.742  0.9888 -1.3946  1.1153
16293TIP3    H270295   5.695   4.243   5.856 -0.2552  0.6325  0.4796
16294TIP3   OH270296   5.034   5.071  12.558  0.1614  0.5162  0.1151
16294TIP3    H170297   4.978   5.131  12.607  1.0031 -0.0479  1.8393
16294TIP3    H270298   4.986   4.988  12.560  0.5389  0.3016  0.6830
16295TIP3   OH270299   3.987   0.657  10.400  0.7411 -0.2331 -0.7693
16295TIP3    H170300   3.982   0.752  10.400 -1.7886 -0.3052 -1.9797
16295TIP3    H270301   3.941   0.630  10.480  0.6003 -0.4613 -0.9248
16296TIP3   OH270302   0.954   4.462  11.657  0.1944 -0.0907  0.5642
16296TIP3    H170303   0.956   4.542  11.709 -2.0698  0.8550 -0.7225
16296TIP3    H270304   1.011   4.480  11.582 -0.0956  0.2016  0.4168
16297TIP3   OH270305   5.799   5.677   2.376  0.0284 -0.1418 -0.1245
16297TIP3    H170306   5.768   5.743   2.438 -0.4501 -1.0433  0.6191
16297TIP3    H270307   5.825   5.602   2.431  2.3622  0.0874 -0.7973
16298TIP3   OH270308   1.503   5.643   1.964  0.0593  0.2510  0.8490
16298TIP3    H170309   1.575   5.651   1.901  0.1840 -1.3734  0.7279
16298TIP3    H270310   1.525   5.703   2.034  2.4157 -1.3535  1.6063
16299TIP3   OH270311   4.172   1.633  10.883 -0.7444  0.8254  0.1489
16299TIP3    H170312   4.100   1.623  10.822  0.4984 -0.8953 -1.1486
16299TIP3    H270313   4.194   1.543  10.910  0.1262  1.3874  1.4471
16300TIP3   OH270314   1.707   0.705  15.469 -0.0223  0.1136  0.8921
16300TIP3    H170315   1.668   0.788  15.496  0.4570 -0.1542  2.5432
16300TIP3    H270316   1.634   0.643  15.469 -0.3305  0.4559 -0.0830
16301TIP3   OH270317   4.871   3.444  11.789 -0.1237  0.3930  0.6061
16301TIP3    H170318   4.862   3.531  11.829  0.2162  0.0113  1.5377
16301TIP3    H270319   4.919   3.460  11.707  0.9631  0.9537  1.3329
16302TIP3   OH270320   2.202   6.630   5.078 -0.1520  0.7054  0.2095
16302TIP3    H170321   2.263   6.559   5.097  0.7663  1.4016 -0.0128
16302TIP3    H270322   2.126   6.587   5.039  0.5971 -0.1087 -0.4011
16303TIP3   OH270323   3.028   4.063   0.322 -0.7532  0.1272  0.3650
16303TIP3    H170324   2.943   4.092   0.289  0.0351  2.5009  0.1778
16303TIP3    H270325   3.087   4.069   0.247 -0.1750 -0.2994  0.7721
16304TIP3   OH270326   3.247   0.635  13.891  0.3705 -0.3671  0.2083
16304TIP3    H170327   3.157   0.666  13.883  0.5932  1.3177  2.8946
16304TIP3    H270328   3.299   0.704  13.849  0.5754  0.6567  2.0411
16305TIP3   OH270329   0.269   1.461   0.328  0.5402 -0.0411 -0.1398
16305TIP3    H170330   0.217   1.497   0.400 -1.9598 -1.9442 -0.8431
16305TIP3    H270331   0.230   1.375   0.312  2.9893 -0.9273 -1.7871
16306TIP3   OH270332   1.129   2.050  12.377  0.0749 -0.3504  0.0538
16306TIP3    H170333   1.122   1.956  12.398  0.7293 -0.4165  0.0120
16306TIP3    H270334   1.169   2.052  12.290  0.5296 -0.0348  0.2643
16307TIP3   OH270335   1.166   5.174   1.206  0.1876  0.3434 -0.3171
16307TIP3    H170336   1.254   5.182   1.242  0.5649  1.2664 -1.3940
16307TIP3    H270337   1.178   5.178   1.111 -1.0771  1.2516 -0.4625
16308TIP3   OH270338   2.908   6.053  15.465 -0.1219  0.0321 -0.3631
16308TIP3    H170339   2.992   6.061  15.511 -0.7604 -0.2999  0.9122
16308TIP3    H270340   2.870   5.972  15.500 -1.0529  0.2773 -0.7864
16309TIP3   OH270341   1.011   0.742   4.677  0.0275  0.2540  0.4574
16309TIP3    H170342   0.928   0.787   4.693 -0.3597 -0.9155  2.0785
16309TIP3    H270343   1.078   0.800   4.713 -0.1699  0.8001 -0.0478
16310TIP3   OH270344   5.207   1.329  14.791 -0.2371 -0.9309  0.2708
16310TIP3    H170345   5.231   1.359  14.879  1.5890  0.1873 -0.5307
16310TIP3    H270346   5.113   1.344  14.785  0.1516  2.6722  0.7869
16311TIP3   OH270347   2.796   0.894  16.394  0.1586 -0.8238 -0.0840
16311TIP3    H170348   2.834   0.921  16.477 -0.4246  2.5004 -0.7688
16311TIP3    H270349   2.713   0.853  16.418  0.6959 -1.3162  1.0214
16312TIP3   OH270350   0.783   5.078   1.832 -0.3589 -0.2209 -0.1882
16312TIP3    H170351   0.789   4.989   1.867  0.2473 -0.1757 -0.1768
16312TIP3    H270352   0.753   5.130   1.906  0.2056 -0.2549  0.0707
16313TIP3   OH270353   5.445   6.624   4.623 -0.8496  0.6343 -0.5093
16313TIP3    H170354   5.505   6.680   4.673 -0.1362  0.2296 -0.8830
16313TIP3    H270355   5.373   6.682   4.599 -0.5910  1.1492 -0.0800
16314TIP3   OH270356   1.621   6.026  14.205  0.6140 -0.3871 -0.4221
16314TIP3    H170357   1.644   5.992  14.292 -1.6271  2.6007  1.5385
16314TIP3    H270358   1.541   6.076  14.220 -0.8868 -1.1752 -4.6319
16315TIP3   OH270359   6.424   2.923   1.921  0.0097  0.0978 -0.2725
16315TIP3    H170360   6.462   3.007   1.947 -0.2219  0.0088  0.3812
16315TIP3    H270361   6.452   2.911   1.830 -1.8457  1.9758 -1.1673
16316TIP3   OH270362   6.139   2.956   1.227  0.0889 -0.2462 -0.8936
16316TIP3    H170363   6.070   2.945   1.292  2.8598 -3.4119  1.8575
16316TIP3    H270364   6.121   2.889   1.161  0.6493 -1.3234  0.0170
16317TIP3   OH270365   0.559   2.750   4.216 -0.0698 -0.7293 -0.4576
16317TIP3    H170366   0.542   2.663   4.252 -0.1382  0.0825  1.6175
16317TIP3    H270367   0.493   2.761   4.148 -1.4195 -1.5356  0.6515
16318TIP3   OH270368   3.853   0.398   1.751 -0.0874 -0.5342  0.1950
16318TIP3    H170369   3.853   0.344   1.829  0.8850 -0.2136  0.4281
16318TIP3    H270370   3.898   0.479   1.777 -0.9580  0.1347 -0.3164
16319TIP3   OH270371   3.811   4.882  15.772 -0.4592 -0.2534  0.0399
16319TIP3    H170372   3.788   4.924  15.689 -0.2010  0.1980  0.2000
16319TIP3    H270373   3.884   4.933  15.806 -0.6851 -0.3207  0.6395
16320TIP3   OH270374   5.440   1.338   0.880  0.1466 -0.4685 -0.2822
16320TIP3    H170375   5.350   1.351   0.849  0.1838 -1.1584 -0.7089
16320TIP3    H270376   5.462   1.419   0.924 -1.0298 -0.6358  0.6721
16321TIP3   OH270377   4.312   0.482   1.110 -0.0135  0.3975  0.4306
16321TIP3    H170378   4.332   0.530   1.030  0.0325 -0.8461 -0.3252
16321TIP3    H270379   4.219   0.498   1.124 -0.7019 -1.5008 -1.4060
16322TIP3   OH270380   2.666   2.036  16.049  0.1152  1.1048  0.2085
16322TIP3    H170381   2.654   2.130  16.042 -0.9309  0.8692 -2.7264
16322TIP3    H270382   2.577   2.001  16.057  0.3357  0.3074 -0.5736
16323TIP3   OH270383   2.342   1.791   0.766  0.1392 -0.3102  0.1740
16323TIP3    H170384   2.287   1.740   0.826 -0.2114 -1.0799 -0.7802
16323TIP3    H270385   2.415   1.734   0.745  0.5811  0.1886  0.3408
16324TIP3   OH270386   4.897   1.078  16.611 -0.3806  0.1834 -0.1941
16324TIP3    H170387   4.888   1.004  16.551 -0.9283  0.9857 -1.1388
16324TIP3    H270388   4.838   1.144  16.576  0.2395  1.1426  0.5165
16325TIP3   OH270389   5.971   5.132   1.219 -0.4740 -0.3654  0.3027
16325TIP3    H170390   6.052   5.177   1.242  0.0341 -1.1728  0.1694
16325TIP3    H270391   5.996   5.074   1.147 -0.7171 -1.9782  1.4521
16326TIP3   OH270392   1.235   5.132   3.353 -0.2744  0.1850 -0.4700
16326TIP3    H170393   1.190   5.194   3.410 -0.7955 -0.9261  0.3491
16326TIP3    H270394   1.307   5.183   3.315 -1.0087  1.4348 -0.2526
16327TIP3   OH270395   2.897   1.584  16.510 -0.0069  0.8442 -0.6824
16327TIP3    H170396   2.847   1.643  16.567 -1.0455 -0.7190  0.0871
16327TIP3    H270397   2.937   1.521  16.570 -0.8961 -0.6664 -1.6420
16328TIP3   OH270398   1.382   1.468  16.157 -0.5224 -0.2396 -0.3067
16328TIP3    H170399   1.476   1.453  16.145  0.1624  1.4487  2.0352
16328TIP3    H270400   1.344   1.454  16.071  1.9683 -0.3713 -1.4862
16329TIP3   OH270401   3.388   4.895   0.317  0.4350 -0.4797 -1.0596
16329TIP3    H170402   3.296   4.867   0.328  0.8067 -1.6298 -0.6956
16329TIP3    H270403   3.391   4.982   0.356 -0.5015 -0.4453 -1.0323
16330TIP3   OH270404   6.422   1.819  13.319  0.2342  0.0175 -0.1105
16330TIP3    H170405   6.360   1.874  13.272  1.1334  1.0519 -0.1346
16330TIP3    H270406   6.444   1.868  13.398 -0.7480 -1.4005  1.1029
16331TIP3   OH270407   4.029   5.255  16.231  0.3652  0.0779 -0.1762
16331TIP3    H170408   3.948   5.217  16.265 -1.0732  0.5623 -2.7779
16331TIP3    H270409   4.012   5.350  16.231  1.6544  0.3294  0.8883
16332TIP3   OH270410   3.137   2.072  12.983 -0.0357 -0.1022 -0.1496
16332TIP3    H170411   3.103   2.132  13.050 -0.1503 -0.7266  0.3571
16332TIP3    H270412   3.229   2.098  12.973 -0.3676  0.8862 -0.7454
16333TIP3   OH270413   2.541   2.904   2.515 -0.8649 -0.0017 -0.5211
16333TIP3    H170414   2.530   2.961   2.439  0.2729  2.4842  1.0558
16333TIP3    H270415   2.494   2.949   2.586  1.2502 -0.2098  1.1197
16334TIP3   OH270416   6.760   5.462  11.441 -0.5487 -0.0420  0.3608
16334TIP3    H170417   6.744   5.373  11.408 -2.7095  0.8882 -1.3466
16334TIP3    H270418   6.679   5.485  11.486 -0.8493  1.7645 -1.0023
16335TIP3   OH270419   5.860   2.892   0.616 -0.1815  0.2222 -0.2349
16335TIP3    H170420   5.928   2.906   0.681 -0.6951  0.5758  0.2344
16335TIP3    H270421   5.797   2.834   0.658  0.3156 -0.9110 -1.0245
16336TIP3   OH270422   1.932   5.494   5.283  0.2155 -0.6294  0.0982
16336TIP3    H170423   1.936   5.404   5.253  1.8047 -0.7915  0.7315
16336TIP3    H270424   1.913   5.545   5.204 -2.0166 -1.5716 -0.0758
16337TIP3   OH270425   2.831   3.369  10.899 -0.2053  0.1206  0.2887
16337TIP3    H170426   2.922   3.394  10.885 -0.1640  1.0894  1.9884
16337TIP3    H270427   2.836   3.291  10.955 -0.3401  1.8591  2.9365
16338TIP3   OH270428   0.522   4.331  14.805  0.4497 -0.4478 -0.4372
16338TIP3    H170429   0.503   4.420  14.775 -0.5443 -0.1889  0.8414
16338TIP3    H270430   0.560   4.287  14.729  0.7946  1.0136 -1.1436
16339TIP3   OH270431   3.095   3.099  12.157 -0.2001 -0.0594 -0.2193
16339TIP3    H170432   3.108   3.183  12.201 -0.1215  0.3543 -1.0177
16339TIP3    H270433   3.003   3.100  12.131 -0.2279 -0.2721 -0.1336
16340TIP3   OH270434   1.835   0.484   0.764 -0.6042 -0.1690 -0.2085
16340TIP3    H170435   1.910   0.540   0.744 -1.0138  0.5459  0.2157
16340TIP3    H270436   1.813   0.443   0.681 -0.2841  0.2939 -0.5261
16341TIP3   OH270437   5.756   5.494  16.710  0.3765  0.2600 -0.3096
16341TIP3    H170438   5.817   5.483  16.782  0.1132 -0.1724 -0.1503
16341TIP3    H270439   5.811   5.497  16.632  0.7085  1.3301 -0.0500
16342TIP3   OH270440   6.286   0.984   4.261  0.8102 -0.2798 -0.0193
16342TIP3    H170441   6.354   1.027   4.207 -0.3145 -0.3177 -1.5471
16342TIP3    H270442   6.252   1.055   4.316  1.5282 -0.0799  0.1859
16343TIP3   OH270443   4.189   0.340  10.824 -0.7016 -0.4282 -0.0186
16343TIP3    H170444   4.164   0.433  10.826  4.0878  1.0834  1.8596
16343TIP3    H270445   4.158   0.305  10.907 -1.2330 -0.1249 -0.0832
16344TIP3   OH270446   1.709   2.102   6.322  0.6642  0.0078 -0.2585
16344TIP3    H170447   1.701   2.197   6.318 -0.2789 -0.0387  0.1897
16344TIP3    H270448   1.652   2.071   6.251 -0.8698 -0.2705  1.0457
16345TIP3   OH270449   3.686   5.863   1.639  0.0837 -0.0523 -0.1117
16345TIP3    H170450   3.624   5.928   1.675  1.6151  1.0127  0.7178
16345TIP3    H270451   3.633   5.785   1.625 -1.4272  0.7788  0.7122
16346TIP3   OH270452   1.993   3.956   1.056  0.6387  0.1092  0.9557
16346TIP3    H170453   2.075   3.946   1.103  0.9018  1.1153  0.7252
16346TIP3    H270454   2.007   3.908   0.974  0.7091 -0.3695  1.2387
16347TIP3   OH270455   1.609   1.682   1.081 -0.3149  1.1066  0.0790
16347TIP3    H170456   1.588   1.624   1.008 -1.8375 -0.2196  1.4924
16347TIP3    H270457   1.698   1.658   1.106 -0.8161 -0.5075  0.4649
16348TIP3   OH270458   2.139   2.368   2.346  0.1514  0.9453  0.1024
16348TIP3    H170459   2.175   2.330   2.266  0.9358  2.2323 -0.1946
16348TIP3    H270460   2.210   2.421   2.381 -0.1962  0.4181  1.6557
16349TIP3   OH270461   1.308   4.156  14.322  0.4782 -0.5536 -0.5742
16349TIP3    H170462   1.297   4.129  14.231 -2.0651 -1.5590 -0.0412
16349TIP3    H270463   1.296   4.076  14.372  0.1271  0.2839  0.7163
16350TIP3   OH270464   3.194   4.439   1.825 -0.4346 -0.2962  0.0380
16350TIP3    H170465   3.241   4.483   1.755 -0.4520 -1.0638 -0.4702
16350TIP3    H270466   3.152   4.363   1.782  0.3545 -1.3400  1.0518
16351TIP3   OH270467   6.394   0.967   1.292 -0.3379 -0.0363 -0.4861
16351TIP3    H170468   6.341   1.013   1.227  0.0791  2.1957  0.6302
16351TIP3    H270469   6.438   1.037   1.341 -0.6039 -1.5628  2.1671
16352TIP3   OH270470   1.917   6.126   5.737 -0.1223 -0.1408 -0.2713
16352TIP3    H170471   1.884   6.100   5.823  0.6198  1.5662  0.5918
16352TIP3    H270472   2.013   6.121   5.746  0.1816  3.4935  0.3267
16353TIP3   OH270473   1.908   6.566   3.204 -0.5999  0.4644  0.3042
16353TIP3    H170474   1.933   6.655   3.229 -1.6573  1.0308 -0.5443
16353TIP3    H270475   1.869   6.576   3.117  0.5702 -1.0404 -0.4275
16354TIP3   OH270476   3.619   4.808  14.654  0.7813 -0.2264 -0.4850
16354TIP3    H170477   3.541   4.850  14.617  0.3501 -0.1260  0.5041
16354TIP3    H270478   3.608   4.715  14.636  0.7898 -0.1290 -0.9924
16355TIP3   OH270479   5.431   0.748  13.109  0.0133 -0.7280  0.1332
16355TIP3    H170480   5.505   0.769  13.053 -0.8134 -1.7005 -1.3923
16355TIP3    H270481   5.430   0.818  13.175 -0.0941  1.6150 -2.1755
16356TIP3   OH270482   3.664   1.747  16.084 -0.1996  0.4718  0.2273
16356TIP3    H170483   3.725   1.727  16.012 -1.4478 -1.1455 -0.4447
16356TIP3    H270484   3.631   1.662  16.112 -0.4877  1.1510  2.0974
16357TIP3   OH270485   5.092   6.458   1.390  0.1386 -0.3332  0.3068
16357TIP3    H170486   4.998   6.472   1.379  0.3025 -0.9631 -2.9618
16357TIP3    H270487   5.099   6.371   1.430 -0.6760 -0.5928 -0.1010
16358TIP3   OH270488   0.363   1.573  10.435 -0.2700  0.0536 -0.2053
16358TIP3    H170489   0.406   1.507  10.490 -0.5481  0.2588  0.2605
16358TIP3    H270490   0.272   1.544  10.429 -0.7835  1.1867  1.2949
16359TIP3   OH270491   6.452   0.895   3.673 -0.6486 -0.2802  0.0622
16359TIP3    H170492   6.448   0.964   3.607 -1.1629  1.1816  1.5600
16359TIP3    H270493   6.534   0.912   3.721 -1.2771 -0.0415  1.0922
16360TIP3   OH270494   4.568   2.562   5.193  0.2206  0.2269  0.1269
16360TIP3    H170495   4.548   2.637   5.250 -1.0888  0.5768 -0.7579
16360TIP3    H270496   4.629   2.597   5.128  0.0280  0.3874  0.0320
16361TIP3   OH270497   2.854   5.096  16.578  1.1251 -0.1018  0.0942
16361TIP3    H170498   2.812   5.181  16.590  3.0183  0.8067  0.6321
16361TIP3    H270499   2.849   5.079  16.484 -2.1486 -1.0071  0.3019
16362TIP3   OH270500   5.020   4.081  15.270 -0.2180  0.5101 -0.3728
16362TIP3    H170501   4.968   4.068  15.349  2.2976 -0.0303  1.3371
16362TIP3    H270502   5.002   4.171  15.243 -2.0084  0.3240  0.1010
16363TIP3   OH270503   2.115   4.745   4.780 -0.1814 -0.0158  0.1296
16363TIP3    H170504   2.162   4.773   4.859  0.0690  2.8529 -0.9276
16363TIP3    H270505   2.170   4.677   4.742  0.6839 -0.0615  1.4047
16364TIP3   OH270506   5.517   0.396  13.880 -0.5193 -0.3636  0.0441
16364TIP3    H170507   5.497   0.348  13.800  0.0550  0.8693 -0.8754
16364TIP3    H270508   5.596   0.354  13.914 -0.4227 -0.5120 -0.3582
16365TIP3   OH270509   1.907   4.899  12.699  0.0968  0.0919 -0.3762
16365TIP3    H170510   1.923   4.992  12.685 -0.7563  0.6200  1.7908
16365TIP3    H270511   1.823   4.882  12.655 -0.0737  0.5083 -0.2115
16366TIP3   OH270512   5.091   1.975   3.976  0.7049  0.0272  0.1322
16366TIP3    H170513   5.087   1.903   4.038 -0.9515 -0.8192 -0.8871
16366TIP3    H270514   5.183   1.979   3.949  1.7552  1.2119  3.4362
16367TIP3   OH270515   5.838   4.349   3.379 -0.0369  0.0835  0.2126
16367TIP3    H170516   5.920   4.347   3.329  0.4479 -1.7550  1.0098
16367TIP3    H270517   5.771   4.324   3.316  0.5939 -2.4055  0.4468
16368TIP3   OH270518   0.543   4.030  15.678  0.8090 -0.3101  0.4663
16368TIP3    H170519   0.466   4.026  15.735  1.1859  0.9778  1.0987
16368TIP3    H270520   0.596   3.955  15.704 -0.6653 -1.8322 -0.6860
16369TIP3   OH270521   4.382   1.933   1.607  0.4762 -0.0304  0.1332
16369TIP3    H170522   4.342   1.991   1.672  0.9674  0.1321  0.2973
16369TIP3    H270523   4.477   1.945   1.620  0.5994 -1.3354  0.6138
16370TIP3   OH270524   0.711   1.042   0.580 -0.1581  0.5663  0.3314
16370TIP3    H170525   0.796   1.079   0.556  0.8023 -2.0777 -0.7081
16370TIP3    H270526   0.720   1.020   0.673  0.5716 -0.2750  0.0765
16371TIP3   OH270527   2.707   5.477   6.403  0.0874  0.5766  0.1851
16371TIP3    H170528   2.644   5.521   6.346  0.3287  0.3778 -0.2400
16371TIP3    H270529   2.653   5.423   6.461 -0.1757  1.0047  0.3393
16372TIP3   OH270530   5.292   4.367  13.700  0.0730 -0.2305 -0.3644
16372TIP3    H170531   5.200   4.383  13.677 -0.4601 -0.4991  1.4095
16372TIP3    H270532   5.325   4.453  13.725  0.2767 -0.1458 -0.9337
16373TIP3   OH270533   5.796   2.118   1.011 -0.0221 -0.3866  0.4018
16373TIP3    H170534   5.815   2.037   0.964  0.8026 -0.2402  0.4784
16373TIP3    H270535   5.819   2.188   0.950 -1.8583 -0.1854 -0.1215
16374TIP3   OH270536   4.556   4.740  11.310 -0.1773 -0.3094  0.0984
16374TIP3    H170537   4.501   4.731  11.232 -2.4647  2.5920  1.1787
16374TIP3    H270538   4.637   4.779  11.278 -0.6018 -0.2708 -0.9665
16375TIP3   OH270539   1.818   3.334   4.290 -0.3722  0.3055  0.1007
16375TIP3    H170540   1.875   3.370   4.222 -0.3157  0.6007  0.3021
16375TIP3    H270541   1.831   3.240   4.285  0.7832  0.4213  0.7074
16376TIP3   OH270542   3.714   6.640  11.966 -0.1615 -0.1653  0.8121
16376TIP3    H170543   3.780   6.573  11.983 -0.3481 -0.8858 -1.0677
16376TIP3    H270544   3.763   6.722  11.963  0.1033 -0.2063  2.8916
16377TIP3   OH270545   1.044   2.222  15.488  0.0990 -0.0789 -0.2054
16377TIP3    H170546   0.954   2.224  15.519 -0.0699  2.2564 -0.6451
16377TIP3    H270547   1.070   2.315  15.483  2.1100 -0.6323 -1.2459
16378TIP3   OH270548   2.319   2.836   0.112  0.5534 -0.2705  0.6707
16378TIP3    H170549   2.227   2.815   0.093 -0.1916  0.5930  3.0371
16378TIP3    H270550   2.368   2.791   0.043 -1.6306 -0.7325 -0.6770
16379TIP3   OH270551   6.057   3.953   3.407 -0.1817  0.3095  0.5621
16379TIP3    H170552   6.053   3.882   3.471 -1.3031  0.5846  0.8262
16379TIP3    H270553   5.966   3.980   3.395 -0.0674 -0.0019 -1.4584
16380TIP3   OH270554   1.393   4.625   0.239  0.2182 -0.2004 -0.0836
16380TIP3    H170555   1.385   4.534   0.210 -0.0120 -0.0731 -0.4296
16380TIP3    H270556   1.378   4.677   0.160  2.0534  0.1242 -0.2420
16381TIP3   OH270557   4.332   3.400  15.925  0.0900 -0.1184 -0.7090
16381TIP3    H170558   4.299   3.320  15.966 -1.2867  0.5328 -0.4866
16381TIP3    H270559   4.292   3.471  15.975  2.7746  0.7931  0.3320
16382TIP3   OH270560   1.911   2.986  14.547 -0.2795 -0.3396 -0.0998
16382TIP3    H170561   1.837   2.942  14.505 -0.0184 -0.8043 -0.0818
16382TIP3    H270562   1.965   3.017  14.473  0.5641 -1.8057 -0.1432
16383TIP3   OH270563   1.398   5.957   4.053  0.2877 -0.2091  0.2115
16383TIP3    H170564   1.369   5.866   4.055 -1.1215  0.2180  1.8781
16383TIP3    H270565   1.482   5.957   4.098  1.0455 -0.8867 -1.1590
16384TIP3   OH270566   4.845   0.372   2.036  0.0321  0.2395 -0.3070
16384TIP3    H170567   4.804   0.364   2.122 -0.6247  0.0940 -0.6307
16384TIP3    H270568   4.839   0.285   1.998  0.5662  0.2382 -0.3970
16385TIP3   OH270569   3.660   0.897  15.326  0.2931 -0.3288 -0.4734
16385TIP3    H170570   3.739   0.934  15.366 -1.9511  1.8157  2.4374
16385TIP3    H270571   3.629   0.833  15.390 -0.2894 -1.1981 -1.6017
16386TIP3   OH270572   6.374   4.391  15.615 -0.2496  0.1317 -0.1666
16386TIP3    H170573   6.379   4.376  15.709 -0.3487  0.8056 -0.0487
16386TIP3    H270574   6.408   4.480  15.603  1.8772 -0.7011 -1.0056
16387TIP3   OH270575   3.484   3.402   0.406 -0.0647  0.6373 -0.2663
16387TIP3    H170576   3.476   3.345   0.330 -0.4144  0.1463  0.1385
16387TIP3    H270577   3.468   3.490   0.372  0.4593  0.4997 -0.8841
16388TIP3   OH270578   0.022   0.873   2.626 -0.3534 -0.0904  0.1316
16388TIP3    H170579   0.016   0.860   2.721 -0.2814  2.8772  0.6339
16388TIP3    H270580   0.086   0.807   2.598  0.3944 -0.4071  2.3139
16389TIP3   OH270581   1.585   4.676  15.960  0.9208 -0.3740  0.2857
16389TIP3    H170582   1.591   4.596  16.012  1.1679 -0.6979 -0.2294
16389TIP3    H270583   1.640   4.659  15.883 -0.4622 -0.4200 -0.7336
16390TIP3   OH270584   6.425   6.398  16.700  0.2045  0.0811  0.6684
16390TIP3    H170585   6.519   6.383  16.688  0.1382 -1.5254  1.7992
16390TIP3    H270586   6.419   6.486  16.737  1.2263  0.3537  0.2133
16391TIP3   OH270587   0.652   2.723  12.815 -0.7988 -0.4612  0.2923
16391TIP3    H170588   0.625   2.710  12.905  0.0016 -0.9149  0.4787
16391TIP3    H270589   0.637   2.638  12.773 -1.1931 -0.2442 -0.0115
16392TIP3   OH270590   2.381   2.820  11.907  0.2904 -0.3628 -0.1049
16392TIP3    H170591   2.361   2.897  11.960  3.8698 -0.2980  1.3770
16392TIP3    H270592   2.305   2.763  11.919 -0.4414  0.9902  2.5149
16393TIP3   OH270593   4.513   0.130   1.719 -0.1158 -0.3249 -0.1014
16393TIP3    H170594   4.485   0.164   1.634 -0.3824  1.6826  0.7178
16393TIP3    H270595   4.608   0.138   1.718 -0.1117 -0.3916 -0.2467
16394TIP3   OH270596   4.020   5.694   0.918 -0.1857 -0.2463  0.6189
16394TIP3    H170597   3.926   5.678   0.922 -0.6238  1.4387 -1.4069
16394TIP3    H270598   4.032   5.779   0.961  0.0942  0.4504 -0.7757
16395TIP3   OH270599   2.120   2.510   1.099  0.2619  0.2130 -0.0316
16395TIP3    H170600   2.133   2.565   1.176 -0.1708  0.5127 -0.1632
16395TIP3    H270601   2.163   2.427   1.120  0.5647  0.4618  0.3346
16396TIP3   OH270602   6.602   3.412   2.136 -0.1537  0.3309  0.1018
16396TIP3    H170603   6.558   3.442   2.215  1.2546  0.3198  0.9406
16396TIP3    H270604   6.647   3.489   2.102 -0.4212  0.2450 -0.4595
16397TIP3   OH270605   3.343   2.650  15.271  0.4787  0.1374 -0.1207
16397TIP3    H170606   3.250   2.629  15.281  0.6410 -0.9732 -0.8796
16397TIP3    H270607   3.387   2.565  15.266  1.4657  0.6549 -0.4524
16398TIP3   OH270608   6.552   3.149  15.701 -0.3120 -0.0670  0.7610
16398TIP3    H170609   6.647   3.155  15.688 -0.3861  0.3434  0.3782
16398TIP3    H270610   6.538   3.059  15.731 -0.2263 -1.6654 -3.2797
16399TIP3   OH270611   5.421   3.938  16.643 -0.0041  0.2810 -0.5579
16399TIP3    H170612   5.399   3.916  16.734  0.6038 -0.3704 -0.5571
16399TIP3    H270613   5.361   3.885  16.590 -0.0932  0.3642 -0.5400
16400TIP3   OH270614   1.339   1.729  16.693  0.1275  0.7436  0.1570
16400TIP3    H170615   1.353   1.787  16.618 -0.0532 -0.5500 -0.9236
16400TIP3    H270616   1.265   1.674  16.667  0.5068 -0.1939  0.9971
16401TIP3   OH270617   2.347   1.447  11.915 -0.1119  0.1449 -0.1643
16401TIP3    H170618   2.404   1.500  11.859 -0.0404  0.1889 -0.0493
16401TIP3    H270619   2.274   1.422  11.858  1.2778 -2.1139 -1.1075
16402TIP3   OH270620   5.660   2.644   2.966  0.3537  0.2684  0.0330
16402TIP3    H170621   5.750   2.612   2.959  1.2996  1.9061  2.9860
16402TIP3    H270622   5.646   2.656   3.060 -3.2840 -0.6709 -0.2600
16403TIP3   OH270623   3.463   5.606   0.616  0.3715 -0.0445 -0.1177
16403TIP3    H170624   3.466   5.694   0.578  3.5065 -0.0327 -0.1272
16403TIP3    H270625   3.451   5.622   0.710 -1.4620  0.2201 -0.3661
16404TIP3   OH270626   2.206   2.821  16.578 -0.0525  0.4230  0.2400
16404TIP3    H170627   2.114   2.803  16.598  0.5894 -1.1215  2.1143
16404TIP3    H270628   2.204   2.868  16.495 -2.6289  2.0209  1.1123
16405TIP3   OH270629   5.045   1.284   5.687  0.0159  0.1914 -0.1881
16405TIP3    H170630   5.099   1.300   5.764 -0.8820  0.4843  0.4034
16405TIP3    H270631   4.979   1.353   5.689 -0.5991 -0.3602 -0.6836
16406TIP3   OH270632   0.622   5.164   5.686  0.0104  0.0294 -0.2754
16406TIP3    H170633   0.568   5.194   5.759 -0.2592 -2.5056  0.6568
16406TIP3    H270634   0.565   5.106   5.636  0.2801  1.4764 -2.4107
16407TIP3   OH270635   5.277   6.285   0.833  0.2597  0.5292  0.5567
16407TIP3    H170636   5.252   6.199   0.867  1.0055  0.0472 -0.0679
16407TIP3    H270637   5.202   6.312   0.780 -0.2149  0.5257  1.2187
16408TIP3   OH270638   1.695   3.423  16.670 -0.3131 -0.0972 -0.4233
16408TIP3    H170639   1.690   3.518  16.658  0.6237 -0.2243 -2.2944
16408TIP3    H270640   1.612   3.390  16.634  0.4375 -0.1295 -2.2060
16409TIP3   OH270641   0.801   1.645  16.174  0.3848 -0.0370  0.2561
16409TIP3    H170642   0.716   1.601  16.167  0.4944 -0.3331  0.6938
16409TIP3    H270643   0.842   1.604  16.250  0.0181  1.6394  1.3985
16410TIP3   OH270644   6.513   1.871   4.469  0.1896  0.3645 -0.3621
16410TIP3    H170645   6.595   1.879   4.517  0.6443 -2.8164 -0.3711
16410TIP3    H270646   6.445   1.872   4.537  0.5671 -0.7811  0.0517
16411TIP3   OH270647   4.670   1.199  14.297 -0.8307  0.1408 -0.1266
16411TIP3    H170648   4.689   1.130  14.234 -1.8260  0.1629 -0.4667
16411TIP3    H270649   4.710   1.278  14.261  1.9559 -0.5630  1.1656
16412TIP3   OH270650   2.406   1.295   5.438  0.1539 -0.0457 -0.0376
16412TIP3    H170651   2.325   1.318   5.392 -0.8283 -1.2737  1.0187
16412TIP3    H270652   2.438   1.379   5.472  1.0583  0.9526 -3.0807
16413TIP3   OH270653   5.328   5.126   3.804 -0.7911 -0.6728  0.0583
16413TIP3    H170654   5.267   5.067   3.849 -3.4661  1.0910 -1.0525
16413TIP3    H270655   5.333   5.203   3.861 -0.9900 -0.0997 -0.6901
16414TIP3   OH270656   4.682   2.000  16.246  0.0590 -0.0406 -0.2818
16414TIP3    H170657   4.640   1.951  16.175  2.3724 -2.0984 -0.3732
16414TIP3    H270658   4.614   2.005  16.314 -1.4143 -0.1852 -1.6740
16415TIP3   OH270659   3.200   5.595   1.496  0.2035  0.6157  0.2654
16415TIP3    H170660   3.174   5.645   1.573 -1.4005 -0.8595  0.7397
16415TIP3    H270661   3.246   5.518   1.531 -1.2646 -0.4943 -0.1477
16416TIP3   OH270662   1.569   3.712   1.250 -0.1144  0.8927  0.0690
16416TIP3    H170663   1.554   3.779   1.317 -0.3190  2.0470 -1.1115
16416TIP3    H270664   1.601   3.636   1.300 -2.7558  0.7948  1.7965
16417TIP3   OH270665   4.257   3.573  14.931 -0.4247 -0.2180 -0.1004
16417TIP3    H170666   4.312   3.513  14.881 -0.6759  0.0892 -0.7466
16417TIP3    H270667   4.190   3.603  14.869 -1.0062 -0.1757  0.5315
16418TIP3   OH270668   0.921   1.311  14.996 -0.4990 -0.3790  0.4486
16418TIP3    H170669   0.827   1.306  14.976 -0.4865 -1.4068  0.6028
16418TIP3    H270670   0.946   1.400  14.969 -1.6169  0.0911  0.8844
16419TIP3   OH270671   4.341   1.143  12.989 -0.2219  0.3246 -0.4779
16419TIP3    H170672   4.389   1.061  12.979 -1.4043 -0.2678 -1.6829
16419TIP3    H270673   4.327   1.151  13.083  0.5233 -0.4838 -0.2807
16420TIP3   OH270674   1.668   0.146   5.527  0.7040 -0.1560 -0.0171
16420TIP3    H170675   1.701   0.215   5.469  0.5556  0.5342  0.6982
16420TIP3    H270676   1.617   0.089   5.470 -0.3267  1.0997 -0.3880
16421TIP3   OH270677   2.760   6.434  15.478  0.6375  0.0633 -0.3688
16421TIP3    H170678   2.818   6.510  15.484  2.1515 -0.9981 -0.9428
16421TIP3    H270679   2.751   6.419  15.384  0.6902 -0.6990 -0.2584
16422TIP3   OH270680   0.250   1.743  16.297 -0.3755  0.3675 -0.1853
16422TIP3    H170681   0.231   1.667  16.242 -1.0507 -0.7281  1.4587
16422TIP3    H270682   0.273   1.705  16.382  0.5028  1.9871  0.3368
16423TIP3   OH270683   6.657   1.237  15.742  0.3716 -0.5420  0.3419
16423TIP3    H170684   6.655   1.174  15.669 -1.3240 -0.6637  0.4544
16423TIP3    H270685   6.661   1.183  15.820 -0.3734 -0.5007  0.4145
16424TIP3   OH270686   1.130   6.301   1.407 -0.0555  0.1111 -0.3008
16424TIP3    H170687   1.171   6.215   1.395  0.2815 -0.0617  1.7473
16424TIP3    H270688   1.186   6.361   1.357  2.5712 -0.1976  2.0320
16425TIP3   OH270689   1.013   0.901  11.610 -0.1474  0.3148 -0.3105
16425TIP3    H170690   1.101   0.935  11.628 -0.0373  0.0355 -0.3122
16425TIP3    H270691   0.997   0.840  11.681 -0.5654  0.7725 -0.0055
16426TIP3   OH270692   1.619   5.211  16.012  0.0978  0.0687 -0.3294
16426TIP3    H170693   1.679   5.279  15.981 -0.2202  0.5101  0.0162
16426TIP3    H270694   1.651   5.130  15.971  0.2020  0.4975 -1.1110
16427TIP3   OH270695   0.586   2.474  16.845  0.0777  0.7701 -0.1276
16427TIP3    H170696   0.663   2.426  16.813 -0.6754 -0.1245 -0.6254
16427TIP3    H270697   0.588   2.556  16.795  0.0172  0.2197 -1.0562
16428TIP3   OH270698   6.316   3.333  12.940 -0.2976 -1.1376 -0.6545
16428TIP3    H170699   6.294   3.240  12.936  1.6453 -1.6114 -3.3790
16428TIP3    H270700   6.412   3.336  12.932 -0.3065  1.0907 -0.6648
16429TIP3   OH270701   4.003   3.871  16.564  0.4921 -0.3798  0.2917
16429TIP3    H170702   4.004   3.778  16.585 -0.9613 -0.0034  2.2565
16429TIP3    H270703   3.913   3.890  16.540  0.6120  0.6551  0.6022
16430TIP3   OH270704   0.812   1.513   5.329  0.7012 -0.1588 -0.7176
16430TIP3    H170705   0.728   1.552   5.303  1.2931  0.9145 -1.0774
16430TIP3    H270706   0.804   1.500   5.423  1.2947  3.0308 -0.1176
16431TIP3   OH270707   6.551   0.926  16.753 -0.5684  0.0909 -0.2675
16431TIP3    H170708   6.468   0.886  16.779 -0.0096 -0.2310  1.1250
16431TIP3    H270709   6.613   0.897  16.820  0.4771  1.0353 -0.7966
16432TIP3   OH270710   0.484   2.040  15.164  0.2143  0.3880 -0.0595
16432TIP3    H170711   0.413   2.026  15.102  0.4621 -0.7878 -0.1113
16432TIP3    H270712   0.441   2.070  15.244 -0.2334  0.6683 -0.4036
16433TIP3   OH270713   4.681   0.505  11.074 -0.1641  0.0915 -0.2606
16433TIP3    H170714   4.665   0.523  11.167 -0.5890 -0.2023 -0.2735
16433TIP3    H270715   4.773   0.479  11.071 -0.9556 -3.3250  0.6599
16434TIP3   OH270716   6.112   1.815   2.921 -0.7316 -0.3004  0.3447
16434TIP3    H170717   6.023   1.809   2.953 -0.9174  0.2815 -0.0404
16434TIP3    H270718   6.127   1.908   2.908 -0.0508 -0.3881  0.4480
16435TIP3   OH270719   0.495   5.788   5.903  0.5552  0.2622  0.1088
16435TIP3    H170720   0.506   5.715   5.962 -0.0959  0.0753  0.0094
16435TIP3    H270721   0.530   5.758   5.819  0.0812 -0.0253  0.0087
16436TIP3   OH270722   2.246   2.571  14.687 -0.3479  0.5795 -0.4427
16436TIP3    H170723   2.212   2.488  14.656  1.1555 -0.1169 -0.3226
16436TIP3    H270724   2.273   2.553  14.777  1.3519  0.7579 -0.8829
16437TIP3   OH270725   1.615   3.500  12.786  0.4138  0.2569  0.0502
16437TIP3    H170726   1.690   3.461  12.832  1.4800  0.5087 -1.4252
16437TIP3    H270727   1.572   3.425  12.744  0.6550  0.2744 -0.2336
16438TIP3   OH270728   6.711   0.925   0.475 -0.0379  0.3904 -0.0998
16438TIP3    H170729   6.728   0.896   0.385  3.8666 -1.1521  0.9240
16438TIP3    H270730   6.694   1.019   0.467 -3.5545 -0.2310 -2.6436
16439TIP3   OH270731   3.302   1.625  14.186  0.3364 -0.0349  0.3558
16439TIP3    H170732   3.287   1.532  14.171  1.4557 -0.0923 -0.5887
16439TIP3    H270733   3.247   1.647  14.261 -0.3804 -1.3203  0.2372
16440TIP3   OH270734   3.252   1.125  14.183  0.4885 -0.0787  0.0695
16440TIP3    H170735   3.308   1.062  14.228  0.1041 -0.9865 -0.6949
16440TIP3    H270736   3.268   1.110  14.090 -1.7043 -1.0215 -0.2003
16441TIP3   OH270737   1.970   0.829   4.707  0.1680 -0.3991  0.1687
16441TIP3    H170738   1.882   0.844   4.740  0.6312  1.0915  0.7912
16441TIP3    H270739   2.021   0.904   4.738  1.0727  0.0985 -2.2934
16442TIP3   OH270740   2.145   5.741   5.123  0.2836  0.2970  0.7602
16442TIP3    H170741   2.225   5.689   5.126  1.0473  1.2414 -1.1667
16442TIP3    H270742   2.092   5.698   5.056 -0.7001 -0.1124  1.7759
16443TIP3   OH270743   4.222   1.870  14.340  0.0703 -0.6540 -0.4364
16443TIP3    H170744   4.192   1.854  14.429  0.3770  0.2560 -0.1619
16443TIP3    H270745   4.167   1.814  14.286  0.9545 -2.4593  0.4575
16444TIP3   OH270746   5.375   4.240   4.443  0.6093  0.2613 -0.0173
16444TIP3    H170747   5.351   4.207   4.529  0.0539  1.2086  0.2120
16444TIP3    H270748   5.318   4.317   4.430  2.4285  1.6712 -0.1157
16445TIP3   OH270749   1.174   5.441   1.092 -0.3860  0.0168  0.2060
16445TIP3    H170750   1.208   5.369   1.145 -1.6645 -1.4340 -0.8363
16445TIP3    H270751   1.079   5.439   1.107 -0.6363  0.3465 -1.1916
16446TIP3   OH270752   0.558   5.673  12.345  0.1345  0.2969  0.2164
16446TIP3    H170753   0.482   5.723  12.315  0.3689  1.0948  0.9164
16446TIP3    H270754   0.521   5.601  12.396 -0.1943 -0.1207 -0.5895
16447TIP3   OH270755   1.600   5.736  12.108 -0.4681  0.0528 -0.0331
16447TIP3    H170756   1.531   5.709  12.169 -0.3859  2.1712  1.0871
16447TIP3    H270757   1.554   5.748  12.025 -1.0214 -0.6322  0.1579
16448TIP3   OH270758   4.643   0.888  16.789 -0.0272  0.1052 -0.2967
16448TIP3    H170759   4.711   0.923  16.847  0.0714 -0.7767  0.1307
16448TIP3    H270760   4.563   0.933  16.816 -0.0938 -0.7264  0.9329
16449TIP3   OH270761   1.079   0.136   2.178  0.3557  0.0229 -0.0930
16449TIP3    H170762   1.157   0.180   2.211  0.6194 -0.2872 -0.2926
16449TIP3    H270763   1.076   0.159   2.085  0.2286  0.0085 -0.0921
16450TIP3   OH270764   6.603   5.630   3.768  0.0197  0.1525  0.6784
16450TIP3    H170765   6.617   5.581   3.849  2.4196 -0.8682 -0.2509
16450TIP3    H270766   6.677   5.606   3.712 -1.2606  1.2079 -1.6487
16451TIP3   OH270767   0.024   4.880   5.668 -0.1061 -0.0808  0.6945
16451TIP3    H170768   0.074   4.807   5.704 -1.9577 -1.1011  1.3294
16451TIP3    H270769  -0.009   4.848   5.584 -2.0854 -0.5721  1.5963
16452TIP3   OH270770   6.605   4.296  16.150  0.2687  0.0127  0.2797
16452TIP3    H170771   6.540   4.365  16.142 -0.6197 -0.7259  0.8565
16452TIP3    H270772   6.560   4.227  16.199  1.6138 -0.3724  1.0089
16453TIP3   OH270773   1.666   3.489  10.909 -0.6988  0.4584 -0.0040
16453TIP3    H170774   1.741   3.548  10.894 -0.3163  0.4913  1.8636
16453TIP3    H270775   1.698   3.403  10.880 -0.2964  0.6558 -0.1648
16454TIP3   OH270776   4.000   3.723  13.206  0.4331 -0.2982  0.0890
16454TIP3    H170777   3.912   3.691  13.224 -0.0097  0.9765  0.2740
16454TIP3    H270778   4.057   3.660  13.251 -0.4782  0.2043  2.0740
16455TIP3   OH270779   1.772   3.364   5.282  0.4025 -0.1463 -0.0403
16455TIP3    H170780   1.727   3.431   5.333 -0.1546  0.4439 -1.2671
16455TIP3    H270781   1.864   3.391   5.282  0.1311  0.8297 -0.8014
16456TIP3   OH270782   2.773   1.826   1.439  0.6470 -0.2029 -0.2483
16456TIP3    H170783   2.853   1.803   1.392  0.3675 -1.3220 -0.1847
16456TIP3    H270784   2.765   1.921   1.426  1.8258 -0.1153 -0.4915
16457TIP3   OH270785   0.800   4.670  14.372 -0.4047 -0.2878 -0.7441
16457TIP3    H170786   0.822   4.675  14.465 -2.2040  0.6819 -0.3321
16457TIP3    H270787   0.874   4.712  14.328 -1.6006  3.7218  0.6347
16458TIP3   OH270788   0.017   3.763   0.570 -0.6534  0.1545 -0.0304
16458TIP3    H170789  -0.011   3.687   0.519 -0.0153 -0.7948  0.9822
16458TIP3    H270790  -0.048   3.831   0.549 -1.5469 -0.8210 -0.5562
16459TIP3   OH270791   6.531   4.893  10.804  0.0258  0.3969  0.0714
16459TIP3    H170792   6.587   4.818  10.826 -0.3220  0.4765  1.2707
16459TIP3    H270793   6.543   4.904  10.709  0.1422 -1.1259 -0.1223
16460TIP3   OH270794   6.412   0.676   4.137 -0.1642 -0.2728  0.2370
16460TIP3    H170795   6.405   0.657   4.231 -2.3170  1.0729  0.4245
16460TIP3    H270796   6.438   0.768   4.133 -0.6288 -0.1645 -0.4735
16461TIP3   OH270797   3.206   3.726   3.816  0.5866  0.1812 -0.6602
16461TIP3    H170798   3.144   3.661   3.782  2.1680 -1.7382 -0.0696
16461TIP3    H270799   3.181   3.738   3.907  0.8507 -0.3501 -0.5107
16462TIP3   OH270800   6.483   0.093  13.390  0.1313 -0.3549  0.3736
16462TIP3    H170801   6.449   0.147  13.318 -1.1942 -1.3118  0.2416
16462TIP3    H270802   6.573   0.074  13.365  0.8611  2.2842  0.7411
16463TIP3   OH270803   4.111   6.217  13.184 -0.1520  0.5415 -0.2440
16463TIP3    H170804   4.161   6.140  13.156 -0.3773  0.2329  0.1988
16463TIP3    H270805   4.177   6.284  13.198 -0.0793  0.9789 -2.3485
16464TIP3   OH270806   5.500   6.038   3.162  0.2951  0.0866  0.1140
16464TIP3    H170807   5.563   5.974   3.197 -0.2199  0.2670  1.4687
16464TIP3    H270808   5.442   5.986   3.107  1.0943 -0.2386 -0.4384
16465TIP3   OH270809   5.796   1.576  14.605 -0.3178  0.7189 -0.2817
16465TIP3    H170810   5.832   1.656  14.644 -0.4851  0.4488  0.4305
16465TIP3    H270811   5.825   1.579  14.514  1.2856  0.6356  0.2029
16466TIP3   OH270812   2.995   0.682   5.525 -0.0573  0.0172 -0.4531
16466TIP3    H170813   3.062   0.636   5.474  1.2634  1.7132 -0.3131
16466TIP3    H270814   2.999   0.773   5.494 -1.7838  0.3254  0.1004
16467TIP3   OH270815   5.825   1.081  13.343  0.3304  0.4732  0.0721
16467TIP3    H170816   5.865   1.011  13.292 -0.9929 -0.3336  0.1212
16467TIP3    H270817   5.873   1.081  13.426 -0.2086 -0.9453  0.4037
16468TIP3   OH270818   5.764   2.603  14.430  0.1686 -0.2993 -0.2154
16468TIP3    H170819   5.849   2.625  14.392 -0.3886 -0.6839 -1.7506
16468TIP3    H270820   5.747   2.673  14.494  1.3699  0.0817 -0.2937
16469TIP3   OH270821   4.490   6.142   0.286 -0.2574  0.2205  0.3666
16469TIP3    H170822   4.548   6.096   0.226 -0.1171  0.4219  0.3465
16469TIP3    H270823   4.402   6.116   0.260 -0.2494  1.0608 -0.5590
16470TIP3   OH270824   1.534   3.547  12.055  0.0490  0.1031 -0.3852
16470TIP3    H170825   1.595   3.493  12.005 -0.8852 -0.6434 -0.7395
16470TIP3    H270826   1.452   3.544  12.005 -0.6249  0.1171  0.6932
16471TIP3   OH270827   3.585   5.206   0.972  0.6188  0.2358 -0.6745
16471TIP3    H170828   3.624   5.119   0.972  0.8805  0.3413  0.2619
16471TIP3    H270829   3.542   5.214   0.887  0.5175 -0.8366 -0.7263
16472TIP3   OH270830   5.275   4.097  10.805  0.3370  0.1573 -0.2618
16472TIP3    H170831   5.257   4.054  10.722 -0.0659 -0.0672 -0.0602
16472TIP3    H270832   5.371   4.096  10.812  0.3242 -1.1529 -0.0321
16473TIP3   OH270833   5.786   5.973   5.384 -0.2057 -0.3785  0.6844
16473TIP3    H170834   5.846   6.010   5.320 -0.3645 -0.3974  0.5217
16473TIP3    H270835   5.706   6.025   5.376 -0.3224 -0.5550  0.6733
16474TIP3   OH270836   2.447   2.120   0.567 -0.3563  0.3247  0.0455
16474TIP3    H170837   2.472   2.205   0.601 -0.1328  1.4361 -2.6533
16474TIP3    H270838   2.529   2.071   0.559  0.1243  1.3492 -2.0328
16475TIP3   OH270839   5.463   2.059  13.504 -0.3850  0.2215 -0.0039
16475TIP3    H170840   5.420   2.098  13.427 -0.7076 -1.8214 -0.9349
16475TIP3    H270841   5.400   1.994  13.535  1.2292 -1.5273 -0.2501
16476TIP3   OH270842   5.459   1.739  12.096 -0.4617  0.5100  0.0808
16476TIP3    H170843   5.448   1.822  12.049 -0.2900  0.5007  0.0239
16476TIP3    H270844   5.492   1.678  12.030  2.1023  1.0886  0.6883
16477TIP3   OH270845   2.140   5.849   3.429  0.3443 -0.2356 -0.4609
16477TIP3    H170846   2.202   5.919   3.450 -0.0113 -0.1309  0.2823
16477TIP3    H270847   2.077   5.850   3.501  0.4353 -1.4384 -0.3451
16478TIP3   OH270848   6.597   1.315   3.214 -0.6827 -0.3716  0.3189
16478TIP3    H170849   6.624   1.230   3.179 -1.7838 -0.8143  0.4793
16478TIP3    H270850   6.644   1.379   3.161  0.4796 -1.0783  0.4670
16479TIP3   OH270851   4.694   2.941   5.113 -0.7021  0.2898  0.7662
16479TIP3    H170852   4.776   2.936   5.162  0.9336 -0.2707 -1.8648
16479TIP3    H270853   4.651   3.021   5.146  0.9446  0.6655  2.0997
16480TIP3   OH270854   2.973   1.512  16.144 -0.7717 -0.0756  0.0655
16480TIP3    H170855   3.044   1.475  16.196  1.1983  2.2403 -0.7562
16480TIP3    H270856   2.970   1.457  16.066 -1.0063 -1.1550  0.8135
16481TIP3   OH270857   5.067   6.382  14.322 -0.2887  0.1984  0.2490
16481TIP3    H170858   5.123   6.430  14.383  0.1188  0.2981 -0.1911
16481TIP3    H270859   4.995   6.442  14.302 -0.1750  0.3430  0.2733
16482TIP3   OH270860   5.927   3.394   1.425  0.5709  0.1333  0.2513
16482TIP3    H170861   5.933   3.456   1.351  0.1804 -1.1196 -0.8639
16482TIP3    H270862   5.858   3.430   1.480 -1.1753 -0.3806 -1.4840
16483TIP3   OH270863   2.293   3.392   1.400  0.0362 -0.7212  0.6530
16483TIP3    H170864   2.229   3.379   1.470 -0.2331  0.9700  0.7573
16483TIP3    H270865   2.318   3.485   1.407  0.6171 -0.7282 -0.9744
16484TIP3   OH270866   0.064   4.105   4.817 -0.1460 -0.1346  0.0903
16484TIP3    H170867  -0.007   4.144   4.766  0.6111  1.0420 -0.1057
16484TIP3    H270868   0.073   4.162   4.893 -0.0132 -0.8059  0.5922
16485TIP3   OH270869   5.483   3.491  13.555  0.0465 -0.3280  0.0611
16485TIP3    H170870   5.548   3.479  13.486  0.2171  0.0357  0.1608
16485TIP3    H270871   5.529   3.535  13.626 -0.7216  1.6104 -0.5712
16486TIP3   OH270872   5.875   1.870  11.384  0.1103 -0.1057  0.0078
16486TIP3    H170873   5.861   1.806  11.453  1.9786  1.5518  2.1000
16486TIP3    H270874   5.970   1.882  11.381 -0.1500  3.3684  0.6424
16487TIP3   OH270875   3.809   3.745   6.782 -0.2275 -0.9316 -0.6465
16487TIP3    H170876   3.789   3.802   6.708  1.6484  0.9089  0.1559
16487TIP3    H270877   3.740   3.762   6.845  1.3613  2.2103  0.4419
16488TIP3   OH270878   0.418   3.478   0.588 -0.4002  0.4554  0.4982
16488TIP3    H170879   0.422   3.573   0.599 -1.2010  0.4192  1.1430
16488TIP3    H270880   0.357   3.465   0.515  0.6996  0.4727 -0.4553
16489TIP3   OH270881   2.353   1.030  14.680  0.0495  0.1286 -0.6167
16489TIP3    H170882   2.265   1.019  14.717 -0.1208 -1.1296 -1.3400
16489TIP3    H270883   2.375   1.122  14.696 -1.9013  0.8065 -1.5299
16490TIP3   OH270884   5.588   0.537   2.231 -0.2046  0.3634 -0.5537
16490TIP3    H170885   5.619   0.491   2.153 -0.3031  0.9446 -0.9376
16490TIP3    H270886   5.656   0.602   2.249  0.1435 -0.1904  0.2392
16491TIP3   OH270887   5.029   3.966   1.703 -0.1207 -0.2012 -0.9574
16491TIP3    H170888   5.057   3.972   1.612  0.3147  0.9107 -0.7652
16491TIP3    H270889   5.005   4.055   1.727 -0.8752 -0.5973 -0.1742
16492TIP3   OH270890   5.268   4.944   5.325 -0.0786  0.2717  0.0955
16492TIP3    H170891   5.233   4.940   5.414  0.2555 -0.9189  0.2014
16492TIP3    H270892   5.199   4.985   5.273 -1.8864 -2.3828  0.2097
16493TIP3   OH270893   5.151   1.265   4.143  0.2260  0.1024 -0.1261
16493TIP3    H170894   5.135   1.172   4.158 -0.4233  0.4698  1.7676
16493TIP3    H270895   5.207   1.292   4.216 -0.6399  1.4570  0.0746
16494TIP3   OH270896   5.371   4.807   2.872 -0.1975 -0.3719 -0.1772
16494TIP3    H170897   5.372   4.893   2.831  1.5302 -0.6746 -0.8391
16494TIP3    H270898   5.333   4.750   2.806 -1.8151 -0.0648  0.4476
16495TIP3   OH270899   1.415   2.969   0.855 -0.2265  0.0459  0.0076
16495TIP3    H170900   1.372   2.917   0.787 -0.5002  0.9453 -0.5208
16495TIP3    H270901   1.462   2.905   0.909 -0.0392 -0.6872 -1.0070
16496TIP3   OH270902   1.569   0.118   2.485  0.3816  0.0980  0.1878
16496TIP3    H170903   1.620   0.143   2.562  0.9798 -0.2447 -0.0923
16496TIP3    H270904   1.478   0.120   2.515  0.4900  1.4372  0.4958
16497TIP3   OH270905   3.995   1.885   2.780  0.1516  0.1239 -0.2936
16497TIP3    H170906   3.925   1.847   2.833  0.3544  0.1435 -0.0092
16497TIP3    H270907   3.965   1.874   2.690 -0.2887  0.2690 -0.1706
16498TIP3   OH270908   3.981   2.755  11.824 -0.0489 -0.5701  0.4144
16498TIP3    H170909   3.917   2.809  11.777  1.1160  1.4028  0.9895
16498TIP3    H270910   3.942   2.668  11.825 -1.2044 -0.1791 -2.1186
16499TIP3   OH270911   2.338   4.992  14.975  0.0532 -0.6042 -0.1038
16499TIP3    H170912   2.313   4.919  14.919  0.8705 -2.4882  1.8391
16499TIP3    H270913   2.431   5.005  14.958  0.6921 -2.2351  1.8258
16500TIP3   OH270914   4.030   6.647  11.904  0.0696 -0.3296  0.4502
16500TIP3    H170915   4.105   6.596  11.872 -0.7245 -0.8359 -0.6497
16500TIP3    H270916   4.010   6.609  11.990  0.9450 -0.3015  0.6815
16501TIP3   OH270917   2.238   4.194   3.588  0.2220  0.0416  1.0333
16501TIP3    H170918   2.197   4.199   3.675  3.4869  0.6357  2.7115
16501TIP3    H270919   2.193   4.260   3.536 -0.8624  0.7078  2.7383
16502TIP3   OH270920   2.813   2.759   3.778  0.3806  0.3087  0.2212
16502TIP3    H170921   2.813   2.664   3.789  0.1049  0.3200  0.3254
16502TIP3    H270922   2.767   2.793   3.855 -1.2553  0.3976 -0.7409
16503TIP3   OH270923   2.180   2.970   3.013  0.1261  0.2444  0.1860
16503TIP3    H170924   2.156   3.060   3.035 -2.8718 -0.4724  0.2290
16503TIP3    H270925   2.181   2.924   3.096  0.1301 -0.0815  0.0070
16504TIP3   OH270926   2.369   0.210   3.414 -0.3007 -0.0106  0.4496
16504TIP3    H170927   2.285   0.227   3.371  0.3788 -1.6525 -1.6989
16504TIP3    H270928   2.354   0.235   3.505 -3.0110  0.0932  0.0785
16505TIP3   OH270929   2.505   5.996   3.583  0.4891  0.0977 -0.8136
16505TIP3    H170930   2.426   6.033   3.544 -0.0395  0.9426  0.9835
16505TIP3    H270931   2.571   6.003   3.514 -0.6032  0.7459 -1.8338
16506TIP3   OH270932   3.395   4.873  13.635 -0.2001 -0.0973  0.1667
16506TIP3    H170933   3.336   4.917  13.574 -2.0569  0.9790  2.5678
16506TIP3    H270934   3.348   4.793  13.660  0.1704 -0.1259  0.7827
16507TIP3   OH270935   3.315   1.173   3.284  0.2971  0.6172 -0.0300
16507TIP3    H170936   3.406   1.184   3.312  0.8993 -1.7126 -0.8935
16507TIP3    H270937   3.312   1.213   3.197  0.3617  1.0939  0.1816
16508TIP3   OH270938   5.375   0.183   4.492  0.7730  0.0692 -0.0659
16508TIP3    H170939   5.319   0.110   4.518 -1.9596  2.2058  0.5859
16508TIP3    H270940   5.464   0.154   4.512  0.0004 -3.5323 -1.1350
16509TIP3   OH270941   4.972   0.058   2.299  0.4052  0.4104 -0.1975
16509TIP3    H170942   5.028   0.132   2.323  0.1634  0.8569 -0.9745
16509TIP3    H270943   4.942   0.078   2.210  0.2474 -0.5692 -0.3807
16510TIP3   OH270944   1.269   1.791  16.425  0.1251  0.2778  0.5041
16510TIP3    H170945   1.362   1.797  16.404  0.1928 -0.9360  0.4272
16510TIP3    H270946   1.231   1.740  16.353 -0.5533  0.5355  0.6746
16511TIP3   OH270947   4.826   1.369   2.829  0.6157 -0.1399 -0.3824
16511TIP3    H170948   4.830   1.282   2.868  0.6874 -0.3071 -0.7613
16511TIP3    H270949   4.739   1.373   2.789  0.5768 -0.0047 -0.2833
16512TIP3   OH270950   0.580   1.412  15.929  0.0773  0.5497  0.0395
16512TIP3    H170951   0.587   1.321  15.901  1.1715  0.7949 -0.5019
16512TIP3    H270952   0.667   1.434  15.962 -0.1242  1.4607 -0.0178
16513TIP3   OH270953   5.674   0.187   1.332  0.4775 -0.1372 -0.1510
16513TIP3    H170954   5.700   0.221   1.246 -2.4514 -1.4002 -1.6687
16513TIP3    H270955   5.669   0.264   1.388  0.2286  1.0510 -1.7470
16514TIP3   OH270956   3.037   3.241   4.039 -0.1671 -0.0578 -0.2842
16514TIP3    H170957   2.976   3.226   4.111  0.8675  0.2978  0.6924
16514TIP3    H270958   3.013   3.175   3.974 -1.0276 -0.4904  0.4449
16515TIP3   OH270959   4.545   6.243  17.038  0.1736 -0.0545  0.2580
16515TIP3    H170960   4.594   6.161  17.041  2.0155  0.9052 -1.1911
16515TIP3    H270961   4.606   6.308  17.074 -0.5170  0.9697 -0.3757
16516TIP3   OH270962   0.394   6.164   3.474 -0.2868  0.1106  0.1452
16516TIP3    H170963   0.465   6.177   3.411  0.5185  0.0981  1.0251
16516TIP3    H270964   0.436   6.121   3.549 -0.9119  1.4040  1.2785
16517TIP3   OH270965   1.177   2.777  13.800 -0.3621  0.3821 -0.4375
16517TIP3    H170966   1.168   2.811  13.711  1.4435  3.0897  0.2787
16517TIP3    H270967   1.266   2.799  13.825  0.2625 -3.1603  1.0077
16518TIP3   OH270968   6.663   6.432  12.982 -0.5496 -0.1976 -0.0476
16518TIP3    H170969   6.601   6.370  12.944 -2.0403  0.8808  0.5135
16518TIP3    H270970   6.640   6.433  13.075 -0.1121  0.7022  0.0530
16519TIP3   OH270971   2.416   2.024   0.908  0.1415  0.0278  0.3377
16519TIP3    H170972   2.511   2.025   0.899  0.4359 -2.6561  1.8973
16519TIP3    H270973   2.390   1.939   0.873 -1.5343  0.2735  0.9189
16520TIP3   OH270974   2.504   2.105   2.148 -0.0307  0.0560 -0.3003
16520TIP3    H170975   2.459   2.062   2.221 -0.2110  0.3072 -0.2627
16520TIP3    H270976   2.433   2.134   2.090  0.0484  0.9317  0.0223
16521TIP3   OH270977   4.553   0.482  11.743  0.2102 -0.0847 -0.2037
16521TIP3    H170978   4.469   0.439  11.757  1.4902 -2.3693  1.1571
16521TIP3    H270979   4.569   0.475  11.649 -1.1394  0.5293 -0.5089
16522TIP3   OH270980   3.896   1.423  15.867 -0.0337  0.0408  0.1390
16522TIP3    H170981   3.939   1.443  15.950  0.4869  0.1954 -0.1685
16522TIP3    H270982   3.864   1.507  15.835  0.0016  0.0195  0.0473
16523TIP3   OH270983   5.692   0.786  12.717  0.2106 -0.6206 -0.0177
16523TIP3    H170984   5.694   0.869  12.670  1.7178 -1.6913 -2.0413
16523TIP3    H270985   5.693   0.810  12.809  1.5899  1.6215 -0.5305
16524TIP3   OH270986   1.017   0.257  11.658  1.1084 -0.3490  0.4766
16524TIP3    H170987   0.992   0.225  11.572 -0.4730 -2.2891  1.5880
16524TIP3    H270988   0.947   0.318  11.683  1.5410  0.1780  0.4327
16525TIP3   OH270989   0.126   0.718  12.759  0.1602 -0.3229 -0.4662
16525TIP3    H170990   0.192   0.652  12.780 -0.4250 -1.3467 -1.7094
16525TIP3    H270991   0.150   0.794  12.813  0.2423 -1.8679  1.8182
16526TIP3   OH270992   2.390   6.786   1.426 -0.0288  0.3755 -0.0885
16526TIP3    H170993   2.408   6.855   1.362 -1.6320  1.1818  0.2885
16526TIP3    H270994   2.435   6.814   1.506  1.8228 -0.5424 -0.7481
16527TIP3   OH270995   3.266   5.485  15.512 -0.1823 -0.3234  0.1164
16527TIP3    H170996   3.231   5.397  15.497  0.4512 -1.2163  3.2022
16527TIP3    H270997   3.326   5.475  15.586  1.7781  2.3049 -0.9432
16528TIP3   OH270998   3.518   2.181   0.477  0.4781 -0.7657  0.1769
16528TIP3    H170999   3.577   2.129   0.423  0.4335 -0.9590  0.3146
16528TIP3    H271000   3.489   2.121   0.546 -0.1531 -0.7692 -0.0859
16529TIP3   OH271001   3.799   4.726   3.365  0.4529  0.2918 -0.3412
16529TIP3    H171002   3.839   4.810   3.341 -0.5833  0.5452 -1.2979
16529TIP3    H271003   3.748   4.702   3.288 -0.1754 -0.6557  0.3547
16530TIP3   OH271004   2.703   2.627   0.958  0.3772  0.2559  0.2774
16530TIP3    H171005   2.717   2.552   0.900  2.7005  0.5079  0.4488
16530TIP3    H271006   2.790   2.653   0.986 -0.4317  2.5280  0.8921
16531TIP3   OH271007   5.431   2.251   3.437 -0.1630  0.6923  0.0299
16531TIP3    H171008   5.518   2.244   3.477  0.0192 -0.2460 -0.5070
16531TIP3    H271009   5.429   2.341   3.403  0.8103  0.5654 -0.4171
16532TIP3   OH271010   6.352   2.972   5.796 -0.1363  0.1460  0.0570
16532TIP3    H171011   6.286   3.028   5.838 -0.4771 -1.0007  1.0987
16532TIP3    H271012   6.311   2.886   5.792  1.6329 -0.8380  1.6437
16533TIP3   OH271013   6.775   0.888  11.518  0.1527  0.4064 -0.2226
16533TIP3    H171014   6.706   0.917  11.459 -0.0417  2.1781  0.7971
16533TIP3    H271015   6.774   0.793  11.511 -2.4991  0.3572 -0.1077
16534TIP3   OH271016   2.138   4.549   2.356 -0.1130 -0.2241 -0.2258
16534TIP3    H171017   2.096   4.584   2.277  0.8126  0.2635 -0.5120
16534TIP3    H271018   2.227   4.582   2.353  1.2009 -3.4976 -1.1049
16535TIP3   OH271019   3.458   4.616  11.690  0.6615 -0.8998  0.2018
16535TIP3    H171020   3.540   4.621  11.739  0.1543  2.1084  0.9406
16535TIP3    H271021   3.481   4.647  11.602  0.2092  0.8894  0.6741
16536TIP3   OH271022   6.031   5.493  11.645 -0.2355  0.5173  0.1684
16536TIP3    H171023   5.985   5.505  11.729 -1.3112  2.9670 -0.6797
16536TIP3    H271024   6.023   5.400  11.627 -3.0739  0.4583  1.1485
16537TIP3   OH271025   6.036   1.320   3.491 -0.4625  0.3389 -0.2116
16537TIP3    H171026   6.045   1.345   3.583  0.2138 -0.0359 -0.1666
16537TIP3    H271027   5.990   1.236   3.493  0.0611  0.0448 -0.1708
16538TIP3   OH271028   0.627   1.317   1.555 -0.0655 -0.7613  0.2114
16538TIP3    H171029   0.610   1.309   1.461  0.4172 -0.7560  0.1238
16538TIP3    H271030   0.706   1.266   1.569 -0.2079 -0.8649  0.6398
16539TIP3   OH271031   4.042   5.845  15.336  0.1260  0.2878 -0.0229
16539TIP3    H171032   3.992   5.870  15.258  0.9160  2.4138  0.0807
16539TIP3    H271033   4.134   5.860  15.311  0.6555 -1.9405  0.3359
16540TIP3   OH271034   1.239   6.720  15.670 -0.4048 -0.4894  0.2645
16540TIP3    H171035   1.277   6.763  15.593  1.2393 -0.7178  0.9057
16540TIP3    H271036   1.172   6.662  15.634 -0.1114 -0.1161 -0.9394
16541TIP3   OH271037   0.339   1.158   4.566 -0.0655  0.3132  0.1214
16541TIP3    H171038   0.356   1.155   4.472 -1.9735  2.3390 -0.3835
16541TIP3    H271039   0.247   1.134   4.575  0.8263 -3.0241  1.8978
16542TIP3   OH271040   0.128   2.950  12.853 -0.1959 -0.1312  0.5017
16542TIP3    H171041   0.113   3.040  12.882  0.4465  0.1923 -0.1746
16542TIP3    H271042   0.219   2.932  12.876 -0.5290 -0.8744  1.3099
16543TIP3   OH271043   2.069   2.804   3.857 -0.3358  0.2544 -0.1976
16543TIP3    H171044   2.095   2.723   3.900 -0.9570 -0.1213 -0.5137
16543TIP3    H271045   2.041   2.862   3.928  1.0964  0.5843  0.1306
16544TIP3   OH271046   2.652   4.857  11.041 -0.9303 -0.4476  0.3859
16544TIP3    H171047   2.672   4.943  11.079 -1.3859 -0.9761  1.8697
16544TIP3    H271048   2.735   4.810  11.043 -0.3536  0.3560 -1.6528
16545TIP3   OH271049   5.189   6.025   1.290  0.2948 -0.1573  0.0683
16545TIP3    H171050   5.138   6.090   1.243 -0.1461 -0.0753  0.6408
16545TIP3    H271051   5.278   6.033   1.255  0.2412  0.7506  0.1350
16546TIP3   OH271052   3.458   0.903  16.030  0.6880  0.6284 -0.4005
16546TIP3    H171053   3.374   0.935  15.998  1.1240  1.2293 -0.9636
16546TIP3    H271054   3.487   0.969  16.093  0.9756  0.6829 -0.5857
16547TIP3   OH271055   2.896   3.624   4.017  0.0064  0.6308  0.3432
16547TIP3    H171056   2.831   3.692   4.030  0.0278  0.2983  2.6119
16547TIP3    H271057   2.973   3.655   4.065 -0.3353 -1.4177  2.3341
16548TIP3   OH271058   5.208   2.113   4.527  0.2829 -0.5179  0.2510
16548TIP3    H171059   5.198   2.019   4.542 -0.8735 -0.3540  0.6165
16548TIP3    H271060   5.211   2.122   4.432 -0.0743 -0.8862  0.2021
16549TIP3   OH271061   6.048   0.101  13.864 -0.1338  0.4447  0.7233
16549TIP3    H171062   6.068   0.117  13.957 -0.6302 -1.6506  1.2362
16549TIP3    H271063   6.002   0.017  13.864  0.4472  0.0825 -1.5059
16550TIP3   OH271064   6.341   1.077  12.432 -0.1859  0.4459 -0.0867
16550TIP3    H171065   6.285   1.148  12.400  0.7472  1.0435 -0.4192
16550TIP3    H271066   6.295   0.997  12.406 -0.5097  0.9270 -1.0398
16551TIP3   OH271067   3.930   4.923  14.524 -0.6146 -0.3359  0.0596
16551TIP3    H171068   3.962   4.907  14.612  0.0479  0.1812 -0.0764
16551TIP3    H271069   3.995   4.982  14.485 -0.1784 -1.6304 -1.2440
16552TIP3   OH271070   3.309   3.522   1.133 -0.3575  0.0421 -0.0386
16552TIP3    H171071   3.259   3.597   1.100  0.0098  0.1839 -0.2749
16552TIP3    H271072   3.362   3.558   1.203 -0.0374  0.0435 -0.2800
16553TIP3   OH271073   1.637   5.170  11.120 -0.3621 -0.2031 -0.2907
16553TIP3    H171074   1.652   5.259  11.087  0.6068  0.0254  0.7077
16553TIP3    H271075   1.641   5.115  11.042  0.0466  0.5127 -0.7887
16554TIP3   OH271076   5.066   0.779   0.205  0.2288 -0.8162  0.3927
16554TIP3    H171077   5.146   0.749   0.161 -0.1198  0.7584 -1.4617
16554TIP3    H271078   5.057   0.721   0.281  1.4519 -3.0515 -1.0392
16555TIP3   OH271079   3.819   6.311  14.070 -0.0814  0.5588 -0.8871
16555TIP3    H171080   3.732   6.315  14.110  0.3766 -1.5066  0.4762
16555TIP3    H271081   3.878   6.293  14.143  1.0948 -1.0393 -2.1632
16556TIP3   OH271082   2.851   0.523  16.682  0.3571 -0.2890  0.1332
16556TIP3    H171083   2.759   0.499  16.674 -0.0784  1.2529  0.2145
16556TIP3    H271084   2.895   0.442  16.705 -0.6954 -1.4459 -1.7037
16557TIP3   OH271085   4.423   2.822  14.359 -0.2031  0.2448  0.2581
16557TIP3    H171086   4.437   2.869  14.277 -0.6904 -0.5870 -0.3103
16557TIP3    H271087   4.502   2.770  14.371 -0.3734 -0.0732  0.0135
16558TIP3   OH271088   5.251   0.522  14.972 -0.0595  1.3099 -0.0444
16558TIP3    H171089   5.268   0.587  15.041 -1.8527  1.0965  0.6495
16558TIP3    H271090   5.158   0.532  14.953 -0.0495 -0.1191 -0.9196
16559TIP3   OH271091   3.422   3.705   4.476  0.2429  0.1211 -0.0550
16559TIP3    H171092   3.513   3.675   4.470  0.1526  0.0586 -1.8972
16559TIP3    H271093   3.370   3.625   4.470  0.0205  0.0377  2.1161
16560TIP3   OH271094   4.357   6.422   4.000  0.1255 -0.3896  0.3696
16560TIP3    H171095   4.347   6.327   3.986 -0.7749 -0.3711  0.8059
16560TIP3    H271096   4.323   6.462   3.920  1.9331 -0.4548 -0.4685
16561TIP3   OH271097   5.386   1.839   1.374 -0.3019  0.2787 -0.0607
16561TIP3    H171098   5.368   1.745   1.366  1.3023 -0.0012 -0.9038
16561TIP3    H271099   5.480   1.844   1.391 -0.1559  1.7604 -1.1101
16562TIP3   OH271100   0.803   3.062  13.644 -0.0186 -0.6076  0.0828
16562TIP3    H171101   0.740   3.022  13.585 -0.4423 -0.1009  0.1769
16562TIP3    H271102   0.760   3.059  13.730  0.3867 -0.9046  0.2732
16563TIP3   OH271103   1.954   3.578  13.580  0.0154 -0.2416  0.2723
16563TIP3    H171104   1.935   3.585  13.487 -0.6843 -0.6285  0.3803
16563TIP3    H271105   1.994   3.491  13.589  1.1836  0.2599  0.1635
16564TIP3   OH271106   6.111   3.670   0.014 -0.1463  0.2025  0.4302
16564TIP3    H171107   6.076   3.728   0.082  0.3244 -0.2411  1.0492
16564TIP3    H271108   6.190   3.714  -0.018 -1.0200  1.0258 -0.7183
16565TIP3   OH271109   4.404   1.869  15.714 -0.0180  0.0646  0.5185
16565TIP3    H171110   4.322   1.840  15.674 -0.2282 -0.2862  1.1852
16565TIP3    H271111   4.471   1.841  15.652 -0.3914  0.2786  0.0079
16566TIP3   OH271112   4.985   0.620  15.043  0.0638 -0.5776  0.0942
16566TIP3    H171113   5.027   0.682  15.103  1.7724 -0.6385 -0.9712
16566TIP3    H271114   4.945   0.675  14.976  0.6616 -0.5761 -0.2697
16567TIP3   OH271115   5.955   0.094   3.971 -0.2169 -0.0057  0.1892
16567TIP3    H171116   6.021   0.063   3.908  1.2344  1.0653  1.0986
16567TIP3    H271117   5.990   0.068   4.056 -1.9356 -1.0560  0.6206
16568TIP3   OH271118   6.358   2.567  16.221 -0.4783 -0.5121  0.0024
16568TIP3    H171119   6.438   2.564  16.274  0.3613  0.5775 -1.1481
16568TIP3    H271120   6.296   2.512  16.269 -0.1180  1.2069  2.6525
16569TIP3   OH271121   0.744   1.059   1.749 -0.2793  0.0397  0.0543
16569TIP3    H171122   0.651   1.082   1.755 -0.6310 -1.5363  0.9002
16569TIP3    H271123   0.764   1.018   1.833  1.2622  0.5600 -0.0332
16570TIP3   OH271124   2.365   0.277   3.670  0.1512  0.4207 -0.1602
16570TIP3    H171125   2.413   0.246   3.747  0.4387 -0.7528 -0.7874
16570TIP3    H271126   2.361   0.372   3.681  0.1884  0.2823  1.2950
16571TIP3   OH271127   1.030   6.042  14.199  0.1798  0.4452  0.4425
16571TIP3    H171128   0.969   6.058  14.270  0.0337  0.5824  0.2867
16571TIP3    H271129   1.030   5.947  14.187  1.7977  0.1856  2.0392
16572TIP3   OH271130   1.368   3.304  15.179  0.2939  0.5886 -0.4968
16572TIP3    H171131   1.360   3.212  15.156  0.8149 -0.4823  3.0359
16572TIP3    H271132   1.277   3.335  15.187  0.1179  0.2784 -1.2261
16573TIP3   OH271133   4.935   1.696  13.966 -0.4252  0.7437  0.1341
16573TIP3    H171134   4.859   1.707  13.908 -0.2046  2.3007  0.0988
16573TIP3    H271135   4.994   1.766  13.941 -0.1994  1.2853  2.0673
16574TIP3   OH271136   3.894   1.303  14.639 -0.6427 -0.4497 -0.5526
16574TIP3    H171137   3.890   1.208  14.639 -0.5378 -0.4727  1.0401
16574TIP3    H271138   3.983   1.324  14.667 -0.4154  0.1300 -1.6488
16575TIP3   OH271139   0.629   4.940  15.729 -0.0200 -0.2859  0.3248
16575TIP3    H171140   0.711   4.936  15.680 -1.7637 -0.7858 -2.8299
16575TIP3    H271141   0.592   5.026  15.707 -1.9789 -1.4781 -1.4057
16576TIP3   OH271142   5.026   2.935  14.565 -0.4254 -0.7793 -0.0848
16576TIP3    H171143   4.947   2.980  14.594 -0.2771 -0.0946 -0.7116
16576TIP3    H271144   5.037   2.962  14.474 -0.2138 -1.9384 -0.4169
16577TIP3   OH271145   3.345   4.935   1.889 -0.5861  0.0349 -1.0458
16577TIP3    H171146   3.364   4.872   1.959  1.1593  0.1734 -1.3440
16577TIP3    H271147   3.250   4.942   1.888 -0.6717 -0.1369  1.1725
16578TIP3   OH271148   3.038   4.390  11.239 -0.4460 -0.2144  1.0170
16578TIP3    H171149   2.973   4.413  11.305 -0.0203  2.8004  0.5105
16578TIP3    H271150   2.993   4.401  11.156 -0.0317 -0.7030  0.7243
16579TIP3   OH271151   1.882   1.366  16.284 -0.2873  0.2122 -0.3019
16579TIP3    H171152   1.788   1.356  16.301 -0.6228 -0.1197 -2.0686
16579TIP3    H271153   1.921   1.381  16.370 -1.8685 -0.3170  0.5529
16580TIP3   OH271154   1.893   1.534   0.575  0.2381 -0.2068  0.2025
16580TIP3    H171155   1.848   1.607   0.618 -2.4357 -0.3786 -2.0612
16580TIP3    H271156   1.956   1.576   0.516  0.5846  0.1510  0.8141
16581TIP3   OH271157   6.129   3.562   5.569 -0.3051 -0.1301  0.1260
16581TIP3    H171158   6.180   3.640   5.594  1.4663 -0.4313 -2.2578
16581TIP3    H271159   6.129   3.508   5.648  0.4242  1.2728  1.1371
16582TIP3   OH271160   0.642   6.766  14.232  0.0147  0.0256  0.6374
16582TIP3    H171161   0.647   6.862  14.239  2.5238 -0.0761  1.1425
16582TIP3    H271162   0.568   6.742  14.288 -0.6905  1.6651  0.4592
16583TIP3   OH271163   0.661   0.050  15.217  0.1164 -0.0902  0.1421
16583TIP3    H171164   0.668   0.101  15.136 -1.1049 -0.9917 -0.5615
16583TIP3    H271165   0.751   0.042  15.247  0.4153  1.8478 -0.1059
16584TIP3   OH271166   4.076   4.144  12.907  0.5390 -0.1490 -0.4841
16584TIP3    H171167   4.077   4.239  12.921 -0.2863 -0.0897 -0.7848
16584TIP3    H271168   4.097   4.107  12.992  0.0566  0.2927 -0.1647
16585TIP3   OH271169   0.082   0.897  16.191 -0.4581  0.2108  0.2851
16585TIP3    H171170   0.045   0.831  16.132 -1.5727  1.5215 -0.5396
16585TIP3    H271171   0.032   0.976  16.173 -0.2706  0.8869  2.4168
16586TIP3   OH271172   3.488   5.462   3.169 -0.0534 -0.3491  0.3976
16586TIP3    H171173   3.487   5.558   3.166  0.5223 -0.3678 -0.6210
16586TIP3    H271174   3.478   5.441   3.262 -2.5155  0.6500  0.4363
16587TIP3   OH271175   4.963   4.285   2.879  0.7336  0.1608 -0.6872
16587TIP3    H171176   4.925   4.218   2.822  1.5309  2.0828 -3.6679
16587TIP3    H271177   5.046   4.308   2.838  1.2772  1.8179  1.1732
16588TIP3   OH271178   6.621   1.190  13.178  0.2263  0.2602  0.2035
16588TIP3    H171179   6.530   1.220  13.178  0.4662  0.9978  0.5250
16588TIP3    H271180   6.649   1.198  13.087 -0.3831 -1.0826 -0.1216
16589TIP3   OH271181   6.039   4.175  14.989  0.2518 -0.0679  0.6295
16589TIP3    H171182   5.978   4.113  15.030  1.2384  0.3099  2.7951
16589TIP3    H271183   5.983   4.236  14.941 -0.9214 -0.9379  0.8518
16590TIP3   OH271184   0.178   6.537  16.597 -0.8655  0.2145  0.0916
16590TIP3    H171185   0.161   6.498  16.511 -2.5537  1.0781 -0.0197
16590TIP3    H271186   0.252   6.596  16.582 -1.3458  0.6019 -0.8544
16591TIP3   OH271187   1.269   1.534   4.012  0.2964 -0.5398  0.0636
16591TIP3    H171188   1.225   1.469   3.957  0.3076 -0.3529 -0.1703
16591TIP3    H271189   1.226   1.527   4.097  1.3049 -1.8986  0.4856
16592TIP3   OH271190   0.515   5.634   4.031  0.3863 -0.1603 -0.8641
16592TIP3    H171191   0.463   5.565   3.992  0.2746 -0.1763 -0.6902
16592TIP3    H271192   0.571   5.589   4.095 -0.1673 -0.0139 -0.2597
16593TIP3   OH271193   3.440   1.734  16.756  0.5497 -0.3196  0.3055
16593TIP3    H171194   3.365   1.791  16.769 -1.3361 -2.7506  0.9446
16593TIP3    H271195   3.477   1.760  16.672 -1.5019  0.4371 -0.4090
16594TIP3   OH271196   5.155   2.185  12.251  0.3033 -0.0348 -0.2625
16594TIP3    H171197   5.082   2.222  12.300  0.1817 -0.5605 -0.0365
16594TIP3    H271198   5.128   2.191  12.159  0.2749  0.4016 -0.2261
16595TIP3   OH271199   0.100   0.963   1.095  0.5865  0.0277  0.1933
16595TIP3    H171200   0.046   0.887   1.074 -0.2830  0.1638  1.7613
16595TIP3    H271201   0.053   1.037   1.057  1.0377 -0.1213 -0.6759
16596TIP3   OH271202   0.254   2.790   1.976 -0.1762 -0.0429 -0.1507
16596TIP3    H171203   0.265   2.696   1.964 -4.1141 -0.5985 -0.8338
16596TIP3    H271204   0.339   2.827   1.952  1.4811 -3.3635 -0.0260
16597TIP3   OH271205   1.235   5.535  12.258 -0.1446 -0.2653 -0.0902
16597TIP3    H171206   1.162   5.551  12.199 -0.9303  0.0888  0.9522
16597TIP3    H271207   1.242   5.439  12.262 -0.1882 -0.2921 -0.6221
16598TIP3   OH271208   2.246   5.540  12.113 -0.5468  0.0613  0.0051
16598TIP3    H171209   2.172   5.590  12.080 -0.0638  1.3537  0.8081
16598TIP3    H271210   2.311   5.543  12.043  1.0616  4.0307  1.3850
16599TIP3   OH271211   6.257   3.485  12.143 -0.1800 -0.1413 -0.3758
16599TIP3    H171212   6.200   3.546  12.190 -0.3561  0.4851 -1.3736
16599TIP3    H271213   6.202   3.450  12.073  0.6733  0.5658 -1.4328
16600TIP3   OH271214   1.833   2.768  16.826  0.2634  0.4648  0.2593
16600TIP3    H171215   1.844   2.820  16.747  0.1124 -0.2083 -0.2115
16600TIP3    H271216   1.739   2.747  16.828  0.1124  1.1410  1.0494
16601TIP3   OH271217   6.135   0.336   2.094 -0.1424 -0.0891  0.4322
16601TIP3    H171218   6.099   0.411   2.047  0.4258 -0.8259 -1.2503
16601TIP3    H271219   6.088   0.261   2.060  0.8762 -0.7322  0.3904
16602TIP3   OH271220   2.307   0.703   2.081 -0.2550 -0.7528  0.2135
16602TIP3    H171221   2.252   0.749   2.145  0.9726 -0.5336  1.1475
16602TIP3    H271222   2.374   0.767   2.057 -0.1678 -1.1433 -0.6129
16603TIP3   OH271223   5.767   3.904   0.775  0.0827 -0.3565  0.7090
16603TIP3    H171224   5.710   3.967   0.819 -0.5324 -1.1759  1.1128
16603TIP3    H271225   5.834   3.958   0.733 -2.1664  0.8378 -1.6121
16604TIP3   OH271226   6.284   2.544  13.401 -0.5292 -0.7593 -0.6264
16604TIP3    H171227   6.304   2.632  13.433 -1.8885 -0.5320 -0.3746
16604TIP3    H271228   6.239   2.502  13.474  1.4556 -2.2323 -0.1469
16605TIP3   OH271229   0.486   2.847  15.729  0.2947 -0.5774 -0.1908
16605TIP3    H171230   0.404   2.835  15.776 -0.0351  1.5438 -0.1268
16605TIP3    H271231   0.462   2.895  15.649  1.3407 -0.7357 -0.6262
16606TIP3   OH271232   2.109   1.472   3.991 -0.5322  0.2751 -0.2079
16606TIP3    H171233   2.097   1.377   3.989 -0.9129  0.2203  2.0206
16606TIP3    H271234   2.196   1.484   4.028  0.2147  0.8177 -2.0614
16607TIP3   OH271235   4.684   5.566   1.517  0.2019 -0.0048 -0.6385
16607TIP3    H171236   4.604   5.575   1.569  0.8029  0.8376  0.1561
16607TIP3    H271237   4.687   5.646   1.464  0.4835 -0.0703 -0.7212
16608TIP3   OH271238   6.187   5.280   5.079  0.0514 -0.7073  0.8726
16608TIP3    H171239   6.213   5.360   5.123  0.1319 -0.8550  1.0946
16608TIP3    H271240   6.153   5.223   5.148 -1.7372 -0.1877  0.4759
16609TIP3   OH271241   4.754   0.641  13.061  0.6149 -0.5757  1.1412
16609TIP3    H171242   4.689   0.648  12.992  0.4332 -1.5043  1.1983
16609TIP3    H271243   4.727   0.706  13.126  1.6599  1.4162 -0.3086
16610TIP3   OH271244   3.309   1.226   2.746 -0.1028  0.7825  0.7764
16610TIP3    H171245   3.373   1.158   2.725  0.4468  2.0863 -2.2636
16610TIP3    H271246   3.225   1.179   2.747  0.3962 -0.1671  0.0298
16611TIP3   OH271247   3.900   3.899   5.190  0.1282 -0.2678 -0.4993
16611TIP3    H171248   3.872   3.810   5.169  0.1708 -0.2387 -0.6792
16611TIP3    H271249   3.827   3.954   5.165 -0.7775 -0.4259  1.5514
16612TIP3   OH271250   4.694   1.204   4.894  0.3415  0.1616  0.2603
16612TIP3    H171251   4.691   1.287   4.941  0.2474  0.2779  0.0500
16612TIP3    H271252   4.708   1.138   4.962  1.1192  0.4127  0.3633
16613TIP3   OH271253   6.059   1.283  13.372  0.2751 -0.0742 -0.1912
16613TIP3    H171254   6.088   1.374  13.370  0.2752  0.0133  1.8478
16613TIP3    H271255   6.061   1.255  13.281  2.0617  1.4037 -0.6548
16614TIP3   OH271256   0.008   6.636  14.565  0.2721  0.2392  0.3093
16614TIP3    H171257  -0.050   6.604  14.634 -0.5562  1.0234 -0.0119
16614TIP3    H271258  -0.015   6.584  14.488 -1.4805  1.9282 -0.3685
16615TIP3   OH271259   5.924   3.717   5.247 -0.2846  0.4798  0.2108
16615TIP3    H171260   5.860   3.776   5.207 -1.0266 -0.6623 -0.3682
16615TIP3    H271261   5.956   3.764   5.324 -0.4730  1.8201 -0.5106
16616TIP3   OH271262   0.351   2.503   2.288  0.3121 -0.1294  0.0862
16616TIP3    H171263   0.421   2.567   2.299  1.3791 -1.0122 -1.1542
16616TIP3    H271264   0.279   2.552   2.250  0.0485  0.8979  1.8218
16617TIP3   OH271265   0.166   4.161   1.892 -0.2059 -0.1449  0.1239
16617TIP3    H171266   0.138   4.251   1.907 -0.0999 -0.0841 -0.0443
16617TIP3    H271267   0.099   4.124   1.835  0.8426  0.4563 -1.5441
16618TIP3   OH271268   0.562   6.138  13.044  0.0990 -0.6809  0.0315
16618TIP3    H171269   0.484   6.122  13.096  0.6622 -1.3226  0.7118
16618TIP3    H271270   0.601   6.051  13.032  0.8254 -0.3508 -0.0902
16619TIP3   OH271271   2.534   5.190   4.801  0.2478  0.4423 -0.1385
16619TIP3    H171272   2.487   5.152   4.726 -0.1806  0.2297  0.2331
16619TIP3    H271273   2.594   5.122   4.829  1.0965  0.8707 -0.8839
16620TIP3   OH271274   4.776   0.917  15.251 -0.0040  0.3449 -0.2529
16620TIP3    H171275   4.869   0.937  15.245  0.4515 -1.1594  1.0095
16620TIP3    H271276   4.738   0.990  15.301  0.0613  2.0119 -2.5088
16621TIP3   OH271277   6.328   5.002  11.816 -0.7283 -0.1471 -0.3107
16621TIP3    H171278   6.268   5.055  11.868 -2.4507  0.1014 -2.4048
16621TIP3    H271279   6.331   4.917  11.861 -0.9108  0.5215  1.0089
16622TIP3   OH271280   4.197   4.464   0.685  0.1740  0.1146 -0.3334
16622TIP3    H171281   4.224   4.373   0.676 -0.9065 -0.0867 -1.7966
16622TIP3    H271282   4.126   4.463   0.748  0.0943 -0.0631 -0.4272
16623TIP3   OH271283   2.039   6.416  10.534  0.6414 -0.0725 -0.7346
16623TIP3    H171284   2.030   6.451  10.622  1.3298 -0.6287 -0.4413
16623TIP3    H271285   2.030   6.493  10.477  0.3405  0.3061 -0.1789
16624TIP3   OH271286   5.440   1.039  16.171 -0.5015 -0.2270 -0.1161
16624TIP3    H171287   5.448   1.020  16.077 -0.4587  0.7369 -0.3166
16624TIP3    H271288   5.392   1.121  16.174  0.9301  0.6087  0.6550
16625TIP3   OH271289   4.925   3.898   3.540  0.3927  0.8481  0.2420
16625TIP3    H171290   4.978   3.921   3.616  1.0066 -0.5469  0.2773
16625TIP3    H271291   4.989   3.879   3.471 -0.1145  0.8469 -0.2370
16626TIP3   OH271292   0.016   0.213   5.549  0.1506 -0.0355  0.5411
16626TIP3    H171293   0.031   0.302   5.581  1.1492 -0.0592  0.1758
16626TIP3    H271294  -0.009   0.163   5.626  2.0364  0.0156  1.2455
16627TIP3   OH271295   0.541   6.725   3.304 -0.2361  0.4793 -0.0449
16627TIP3    H171296   0.623   6.742   3.259  1.3659 -0.4051  2.3364
16627TIP3    H271297   0.542   6.631   3.322 -1.8106  0.4432 -0.0092
16628TIP3   OH271298   6.720   2.712  10.617 -0.0290  0.2099  0.1214
16628TIP3    H171299   6.764   2.782  10.665 -1.1109  1.2969 -0.3912
16628TIP3    H271300   6.790   2.651  10.593  1.2989  2.0753 -1.0468
16629TIP3   OH271301   3.192   4.885   4.698 -0.5818 -0.2146  0.2311
16629TIP3    H171302   3.255   4.815   4.683 -0.1077  0.1552  0.4798
16629TIP3    H271303   3.213   4.918   4.785  0.7212  1.7712 -0.7473
16630TIP3   OH271304   1.976   5.872   1.628 -0.1461 -0.0755  0.6261
16630TIP3    H171305   2.012   5.826   1.704 -0.1374 -1.0917  0.0089
16630TIP3    H271306   1.886   5.893   1.654 -0.1139 -0.3310  0.9478
16631TIP3   OH271307   0.783   1.908  11.238  0.1437  0.6216  0.5407
16631TIP3    H171308   0.800   1.972  11.168  3.5116 -0.7612 -0.1426
16631TIP3    H271309   0.827   1.945  11.315 -0.2306  0.3646  0.8785
16632TIP3   OH271310   6.265   2.779  15.647 -0.1628  0.1588 -0.2290
16632TIP3    H171311   6.283   2.797  15.739 -1.8561 -0.0810  0.1708
16632TIP3    H271312   6.267   2.683  15.641 -2.1400  0.0715  0.0388
16633TIP3   OH271313   2.037   1.982   2.684  0.2260  0.0524 -0.2273
16633TIP3    H171314   1.964   2.043   2.684 -0.4100 -0.6442  1.2646
16633TIP3    H271315   2.081   1.997   2.768  0.9196 -0.5471 -0.4666
16634TIP3   OH271316   4.328   6.514  13.581 -0.2656 -0.2614  0.3309
16634TIP3    H171317   4.290   6.434  13.618 -0.9988  0.9880  2.5004
16634TIP3    H271318   4.253   6.572  13.568  0.3876  0.5473  0.0776
16635TIP3   OH271319   2.001   0.216   2.670 -0.0950 -0.6765 -0.0839
16635TIP3    H171320   1.909   0.216   2.695 -1.3778  3.4099 -3.6318
16635TIP3    H271321   2.045   0.266   2.739 -1.1328 -0.0227  0.1147
16636TIP3   OH271322   2.826   0.947   3.112  0.2490 -0.3993  0.0482
16636TIP3    H171323   2.820   0.880   3.043  1.6132 -0.2817 -0.2204
16636TIP3    H271324   2.794   1.027   3.070  0.7787 -0.3979 -0.3720
16637TIP3   OH271325   3.510   4.775  11.460  0.1479  0.0667 -0.8392
16637TIP3    H171326   3.554   4.853  11.426 -1.7940  1.8220  0.3808
16637TIP3    H271327   3.428   4.770  11.410 -1.0711  0.5774  0.9947
16638TIP3   OH271328   4.897   2.259   1.273  0.1425  0.2121  0.4102
16638TIP3    H171329   4.941   2.199   1.212 -1.9349 -1.5416  0.5065
16638TIP3    H271330   4.861   2.328   1.217  1.6741  0.8692  0.1803
16639TIP3   OH271331   3.190   0.917  10.420 -0.2092  0.1684  0.2095
16639TIP3    H171332   3.122   0.913  10.488  0.9994  0.4713  1.4975
16639TIP3    H271333   3.141   0.924  10.338 -1.7357 -0.4641  1.0125
16640TIP3   OH271334   2.665   3.811   2.992 -0.3307 -0.0993  0.2045
16640TIP3    H171335   2.709   3.784   2.912 -1.2132  1.3395 -0.8149
16640TIP3    H271336   2.733   3.853   3.044  0.1903 -0.7886  0.0871
16641TIP3   OH271337   3.462   5.894  14.239 -0.7119  0.0391  0.5470
16641TIP3    H171338   3.379   5.920  14.197  0.5692  4.2699  0.1178
16641TIP3    H271339   3.443   5.899  14.333 -2.0243 -3.6364  0.6088
16642TIP3   OH271340   5.120   1.944  14.488 -0.0183  0.0730 -0.1351
16642TIP3    H171341   5.082   1.859  14.464  0.5613  0.5125 -3.0533
16642TIP3    H271342   5.048   1.992  14.528 -0.6669 -1.3766  0.5246
16643TIP3   OH271343   3.897   0.553   6.073  0.5007 -0.1324 -0.2436
16643TIP3    H171344   3.991   0.564   6.085  0.5754 -1.1010  0.1971
16643TIP3    H271345   3.875   0.476   6.127 -0.6161  0.3531  0.0282
16644TIP3   OH271346   4.668   0.559  13.829  0.6207 -0.4555 -0.1191
16644TIP3    H171347   4.637   0.646  13.853  0.2196 -0.6090 -0.0846
16644TIP3    H271348   4.758   0.556  13.862  1.0159  0.3418 -1.0718
16645TIP3   OH271349   1.268   6.768   1.270 -0.1481 -0.5898 -0.8280
16645TIP3    H171350   1.252   6.863   1.266  1.2070 -0.2676  0.5479
16645TIP3    H271351   1.226   6.734   1.191 -1.2995  1.0528 -0.9815
16646TIP3   OH271352   0.207   4.588   2.976  0.5944  0.0598 -0.3578
16646TIP3    H171353   0.180   4.577   3.067  2.4396 -0.6804  0.1425
16646TIP3    H271354   0.146   4.534   2.926  1.5317 -2.1569  0.7842
16647TIP3   OH271355   5.971   3.495  15.109  0.3050 -0.3013  0.2450
16647TIP3    H171356   5.881   3.494  15.142 -0.2071 -1.8829 -1.0699
16647TIP3    H271357   5.969   3.557  15.037  0.0563 -0.9038 -0.2767
16648TIP3   OH271358   0.540   3.547  11.495  0.4690  0.3999 -0.2306
16648TIP3    H171359   0.524   3.635  11.460 -0.1494  0.4703  0.2142
16648TIP3    H271360   0.608   3.511  11.438  0.8345  1.2170 -0.3321
16649TIP3   OH271361   3.999   4.162   5.674  0.9741 -0.2998  0.5556
16649TIP3    H171362   4.036   4.077   5.648  0.5453 -0.1956 -0.4516
16649TIP3    H271363   4.017   4.168   5.768  1.6986 -1.1560  0.4912
16650TIP3   OH271364   3.886   3.739   3.310  0.3509  0.2175 -0.1044
16650TIP3    H171365   3.954   3.725   3.244  0.7887 -0.5161  0.4748
16650TIP3    H271366   3.805   3.713   3.266  0.7214 -0.8998 -0.1639
16651TIP3   OH271367   0.052   5.462   4.708  0.5952 -0.4208 -0.1942
16651TIP3    H171368  -0.009   5.533   4.685 -0.5367 -1.7308 -1.3755
16651TIP3    H271369   0.138   5.498   4.687  0.2651  1.3369  1.1698
16652TIP3   OH271370   5.928   5.425  16.938 -0.0268  0.2478 -0.0007
16652TIP3    H171371   5.982   5.502  16.956  1.8017 -1.1584  0.9669
16652TIP3    H271372   5.988   5.351  16.949 -2.4773 -1.5825  2.7382
16653TIP3   OH271373   2.628   5.519  16.078  0.7597 -0.0634 -0.1788
16653TIP3    H171374   2.633   5.608  16.112 -0.5472  0.3622 -1.0143
16653TIP3    H271375   2.571   5.473  16.141  0.3685  0.0520 -0.4458
16654TIP3   OH271376   5.017   4.998   0.786 -0.0341 -0.6534  0.2281
16654TIP3    H171377   4.966   5.023   0.863 -0.2018  0.4134 -0.2019
16654TIP3    H271378   5.004   5.071   0.724  1.6510 -0.5451 -0.0583
16655TIP3   OH271379   5.210   0.903  13.855 -0.2097 -0.0965 -0.0241
16655TIP3    H171380   5.162   0.972  13.808 -0.4498 -0.3539 -0.1635
16655TIP3    H271381   5.295   0.900  13.812 -0.0319  0.4289  0.2842
16656TIP3   OH271382   4.388   0.206   5.835  0.2479 -0.2343 -0.6233
16656TIP3    H171383   4.460   0.164   5.882 -0.4521 -1.5067 -0.6297
16656TIP3    H271384   4.413   0.298   5.830  0.5991 -0.1273  1.7876
16657TIP3   OH271385   0.746   1.403  13.697  0.3227  0.5235 -0.1419
16657TIP3    H171386   0.780   1.353  13.622 -0.2340 -0.8454  0.4849
16657TIP3    H271387   0.819   1.406  13.759  0.1164 -0.2284  0.1494
16658TIP3   OH271388   1.170   4.787  10.349  0.2801 -0.2245  0.8769
16658TIP3    H171389   1.205   4.728  10.282 -1.3289  0.0042 -0.2344
16658TIP3    H271390   1.106   4.841  10.302  1.9105  2.6904  1.7693
16659TIP3   OH271391   4.007   1.594   4.182 -0.0806 -0.9039  0.5195
16659TIP3    H171392   4.084   1.576   4.236  1.0932  0.8700 -0.4304
16659TIP3    H271393   3.956   1.657   4.234 -1.4474 -2.7816  1.5600
16660TIP3   OH271394   0.423   2.911  11.013 -0.3713 -0.3472 -0.1378
16660TIP3    H171395   0.436   2.829  10.966 -1.2897 -0.8201  0.4009
16660TIP3    H271396   0.381   2.969  10.950 -1.4366 -0.9186  0.0206
16661TIP3   OH271397   1.922   4.103  12.669 -0.3033 -0.2569  0.0595
16661TIP3    H171398   1.912   4.016  12.706 -0.3354 -1.3786 -2.3929
16661TIP3    H271399   1.836   4.125  12.634  0.2043 -0.1742 -1.1886
16662TIP3   OH271400   4.360   1.521   2.708  0.4348 -0.0399 -0.0332
16662TIP3    H171401   4.264   1.528   2.707  0.5245  1.8019  0.4394
16662TIP3    H271402   4.377   1.436   2.748 -1.0011 -0.9540 -1.2656
16663TIP3   OH271403   6.817   1.953   5.921 -0.2317  0.4426 -0.5219
16663TIP3    H171404   6.908   1.924   5.921 -0.1645  0.5583 -2.0837
16663TIP3    H271405   6.822   2.049   5.921 -0.3784  0.4552  0.4157
16664TIP3   OH271406   0.090   1.673  14.171 -0.1213 -0.1855 -0.3759
16664TIP3    H171407   0.147   1.675  14.094  1.0887 -0.9053  0.4516
16664TIP3    H271408   0.087   1.580  14.196 -0.2609  0.0690  0.5932
16665TIP3   OH271409   0.640   0.335  16.605  0.2908 -0.5412  0.0748
16665TIP3    H171410   0.626   0.426  16.631 -1.1265 -1.2954  2.2612
16665TIP3    H271411   0.586   0.285  16.666  1.9578 -2.9331 -0.3026
16666TIP3   OH271412   4.105   4.837  10.431  0.1852  0.1024  0.4797
16666TIP3    H171413   4.017   4.831  10.394 -0.5327  1.4683  1.8445
16666TIP3    H271414   4.120   4.931  10.443  1.2948 -0.1773  1.4654
16667TIP3   OH271415   4.860   6.686   4.990 -0.2282 -0.5383 -0.0691
16667TIP3    H171416   4.881   6.734   4.909  1.3004  0.3181  0.7928
16667TIP3    H271417   4.914   6.606   4.985 -0.1597 -0.5017  0.0779
16668TIP3   OH271418   5.956   6.716  12.006 -0.3458  0.9155  0.3356
16668TIP3    H171419   5.891   6.764  11.955  0.1981  1.3561  0.0498
16668TIP3    H271420   5.971   6.770  12.083  1.1007  1.8150 -0.5203
16669TIP3   OH271421   6.006   0.737  13.421  0.1572 -0.0644  0.7076
16669TIP3    H171422   5.924   0.752  13.375  1.2800  0.5781 -1.1805
16669TIP3    H271423   6.070   0.717  13.352  1.8432  0.5471  1.9967
16670TIP3   OH271424   6.307   4.841   6.203 -0.5067  0.4504  0.5464
16670TIP3    H171425   6.225   4.822   6.157 -1.3624  3.0345  0.8285
16670TIP3    H271426   6.311   4.776   6.273 -1.8726 -0.2688 -0.0087
16671TIP3   OH271427   2.516   1.269   4.349  0.4656  0.7059 -0.0278
16671TIP3    H171428   2.500   1.256   4.255  0.3112  0.0762  0.0811
16671TIP3    H271429   2.597   1.319   4.353  0.5707  0.5799 -0.4946
16672TIP3   OH271430   5.477   2.848   3.383 -0.1552 -0.3406  0.4983
16672TIP3    H171431   5.457   2.912   3.451  0.5721 -0.4134  0.7864
16672TIP3    H271432   5.560   2.878   3.345  0.1672 -1.0687  0.6014
16673TIP3   OH271433   0.729   3.565   5.036  0.1842  0.2414  0.3973
16673TIP3    H171434   0.650   3.610   5.067 -0.2517  1.0641 -1.7611
16673TIP3    H271435   0.784   3.635   5.000  1.0508 -0.5512  0.1545
16674TIP3   OH271436   3.837   4.855   5.977  0.0040  0.0486  0.5097
16674TIP3    H171437   3.756   4.894   6.010 -0.3852 -0.9299  0.7678
16674TIP3    H271438   3.833   4.764   6.006 -0.6834 -1.0858 -2.6887
16675TIP3   OH271439   4.689   3.591  10.182  0.2908  0.3885 -0.6749
16675TIP3    H171440   4.762   3.568  10.126 -0.1755 -1.8265 -0.4432
16675TIP3    H271441   4.612   3.584  10.126  0.1051  1.2004 -0.5339
16676TIP3   OH271442   5.391   2.177   6.162 -1.0720 -0.7596 -0.2446
16676TIP3    H171443   5.364   2.140   6.246 -1.6590  0.0544 -0.0513
16676TIP3    H271444   5.389   2.272   6.177 -2.7643 -0.5419 -1.6407
16677TIP3   OH271445   6.110   3.668   0.377  0.1441  0.0368 -0.3461
16677TIP3    H171446   6.062   3.711   0.305  0.0602 -1.8313 -1.4690
16677TIP3    H271447   6.072   3.706   0.456 -1.2137  0.6708 -1.2542
16678TIP3   OH271448   3.538   4.976   5.452 -0.3827 -0.1443 -0.1038
16678TIP3    H171449   3.631   4.968   5.433 -0.4729  1.9769 -1.8403
16678TIP3    H271450   3.503   4.888   5.441  1.1344 -0.6623 -1.0544
16679TIP3   OH271451   4.199   1.210  16.504  0.2262 -0.3224 -0.4176
16679TIP3    H171452   4.153   1.167  16.577  2.7635 -1.2261  0.7581
16679TIP3    H271453   4.191   1.147  16.432  1.6565 -1.6496  0.5179
16680TIP3   OH271454   2.689   1.709  12.892 -0.1315  0.5504  0.7477
16680TIP3    H171455   2.769   1.718  12.942 -0.2517  1.6669  0.7833
16680TIP3    H271456   2.654   1.799  12.886 -0.2951  0.4195 -1.0223
16681TIP3   OH271457   1.489   1.263  11.928  0.2706 -0.9704 -0.2862
16681TIP3    H171458   1.529   1.177  11.936 -0.2269 -1.0754  1.6268
16681TIP3    H271459   1.505   1.305  12.012  0.9363  1.0341 -1.3348
16682TIP3   OH271460   4.626   4.526  11.488  0.5147  0.4753  0.0733
16682TIP3    H171461   4.632   4.610  11.443 -2.4295  1.0390  0.4686
16682TIP3    H271462   4.589   4.466  11.422 -0.9571  0.5361  0.7852
16683TIP3   OH271463   3.200   4.100  16.164  0.3272  0.2553  0.3536
16683TIP3    H171464   3.121   4.118  16.113  1.2560  0.0228 -1.2367
16683TIP3    H271465   3.186   4.013  16.200 -0.2261  0.2964  0.2475
16684TIP3   OH271466   4.903   3.060  13.010  0.1776 -0.0230  0.7217
16684TIP3    H171467   4.852   3.043  13.088 -1.0476  2.3161  0.5107
16684TIP3    H271468   4.969   2.990  13.008 -3.4231 -3.7896  0.5152
16685TIP3   OH271469   2.042   5.042  12.960  0.1666  0.2650  0.3376
16685TIP3    H171470   2.014   4.987  12.887  1.6191  0.3136 -0.2870
16685TIP3    H271471   2.134   5.020  12.973  0.4086  1.5544  0.9798
16686TIP3   OH271472   1.999   6.499  16.309 -0.7928  0.4134  0.5538
16686TIP3    H171473   1.923   6.489  16.366  0.3938  0.5569  2.2504
16686TIP3    H271474   2.049   6.572  16.347  0.1055  0.4515 -0.6129
16687TIP3   OH271475   3.771   6.272   5.364 -0.6224  0.3520 -0.2563
16687TIP3    H171476   3.815   6.354   5.384 -1.1462  0.9387 -1.4007
16687TIP3    H271477   3.834   6.204   5.388 -0.8601  0.9810  2.4073
16688TIP3   OH271478   2.453   5.869   2.365  0.3698  0.3770 -0.0446
16688TIP3    H171479   2.499   5.927   2.426 -0.3684 -1.1528  2.0893
16688TIP3    H271480   2.362   5.897   2.369  0.3556  0.4322 -0.6778
16689TIP3   OH271481   0.002   0.163   1.375  0.2008  0.4677  0.0617
16689TIP3    H171482   0.073   0.197   1.321  1.6172 -1.8253  0.3298
16689TIP3    H271483  -0.030   0.086   1.328 -0.1364 -0.1988  1.3189
16690TIP3   OH271484   4.736   3.702  11.279 -0.2857  0.0762 -0.2024
16690TIP3    H171485   4.654   3.744  11.255 -0.0706  0.2823 -0.5873
16690TIP3    H271486   4.778   3.764  11.339 -0.4853 -0.1063  0.1314
16691TIP3   OH271487   0.571   0.705  15.984  0.2824  0.1673 -0.1681
16691TIP3    H171488   0.624   0.731  15.909  0.2972 -0.9516 -0.5686
16691TIP3    H271489   0.556   0.611  15.971 -0.2652  0.0933  0.8892
16692TIP3   OH271490   4.115   6.549  11.619  0.7368  0.3977  0.8682
16692TIP3    H171491   4.157   6.627  11.584 -0.4700  1.2301  1.2335
16692TIP3    H271492   4.188   6.495  11.650  1.6049  1.2335  0.3484
16693TIP3   OH271493   1.990   1.810  15.077  0.0554 -0.2691  0.6667
16693TIP3    H171494   2.051   1.789  15.006 -1.1628  1.8283 -1.1124
16693TIP3    H271495   2.043   1.857  15.142  0.5423  0.8535 -0.5017
16694TIP3   OH271496   4.248   6.773  15.815 -0.0555  0.3588  0.1322
16694TIP3    H171497   4.179   6.783  15.750  1.0241 -0.5127 -1.2036
16694TIP3    H271498   4.308   6.710  15.776  2.3942  2.3260  0.4409
16695TIP3   OH271499   0.801   4.049  15.130  0.1492  0.3026  0.9387
16695TIP3    H171500   0.858   4.030  15.056  1.4257  0.6100  1.8100
16695TIP3    H271501   0.727   4.096  15.091 -0.4459 -1.6561 -0.4692
16696TIP3   OH271502   6.808   1.140   2.100 -0.2046  0.2673  0.1666
16696TIP3    H171503   6.823   1.045   2.104  3.8027  0.6723 -0.9990
16696TIP3    H271504   6.795   1.166   2.191  0.7721 -1.1393  0.7489
16697TIP3   OH271505   6.062   4.431  11.068  0.1430  0.3608 -0.4610
16697TIP3    H171506   6.064   4.487  11.146 -0.0359  1.2017 -1.0351
16697TIP3    H271507   5.975   4.392  11.069  0.6240 -0.7370  0.4946
16698TIP3   OH271508   1.812   0.086   1.627  0.5529 -0.2497 -0.0566
16698TIP3    H171509   1.744   0.148   1.600  0.3436  0.1393  1.2687
16698TIP3    H271510   1.785   0.056   1.714  1.2526 -1.3271 -0.1847
16699TIP3   OH271511   1.822   6.730  15.760  0.4643  0.2676 -0.1487
16699TIP3    H171512   1.851   6.820  15.774  2.8716 -0.2997 -0.9944
16699TIP3    H271513   1.767   6.734  15.681  2.3217  0.7496 -1.4892
16700TIP3   OH271514   5.823   4.184  14.437  0.3282 -0.3320 -0.1601
16700TIP3    H171515   5.797   4.271  14.408  0.3950  0.3606  1.7229
16700TIP3    H271516   5.909   4.196  14.477  0.2044 -1.1832  0.4071
16701TIP3   OH271517   5.575   5.304   0.550  0.2417 -0.2179 -0.1995
16701TIP3    H171518   5.582   5.210   0.565  0.3755 -0.1215  0.3543
16701TIP3    H271519   5.519   5.311   0.473  3.1230 -0.8714 -2.5386
16702TIP3   OH271520   6.736   4.747   1.087 -0.1160  0.0601  0.7750
16702TIP3    H171521   6.778   4.661   1.083 -0.2982 -0.0472  1.1135
16702TIP3    H271522   6.800   4.803   1.132 -0.1725 -0.0036  0.9342
16703TIP3   OH271523   1.459   1.277   0.372 -0.3241  0.6259 -0.2738
16703TIP3    H171524   1.392   1.293   0.306  0.9039  1.5482 -1.3442
16703TIP3    H271525   1.537   1.253   0.321  0.3058  0.0820  0.9098
16704TIP3   OH271526   5.251   5.804   5.415 -0.2965  0.4906 -0.0530
16704TIP3    H171527   5.254   5.896   5.388  1.3212  0.2560 -0.8047
16704TIP3    H271528   5.308   5.799   5.492  1.8753 -0.3299 -1.6332
16705TIP3   OH271529   3.160   5.919   1.186  0.3414  0.5576 -0.3500
16705TIP3    H171530   3.199   5.975   1.254 -0.9497  2.1550 -0.8769
16705TIP3    H271531   3.230   5.908   1.122  1.1258  0.1933  0.5261
16706TIP3   OH271532   1.669   0.841  14.609 -0.2552 -0.2642  0.3242
16706TIP3    H171533   1.729   0.767  14.609 -1.0111 -1.1708 -3.8417
16706TIP3    H271534   1.589   0.806  14.570 -0.5020  2.7362 -2.2608
16707TIP3   OH271535   0.493   5.350   2.147 -0.1559 -0.8244 -0.7663
16707TIP3    H171536   0.514   5.435   2.186 -1.8054  0.1606 -1.8909
16707TIP3    H271537   0.459   5.298   2.220  0.0174 -0.2124 -0.2338
16708TIP3   OH271538   6.749   2.310   2.874  0.4806  0.2172 -0.3786
16708TIP3    H171539   6.674   2.294   2.931  0.1819 -2.0952 -1.3158
16708TIP3    H271540   6.715   2.367   2.805  0.2953  1.2754  0.5634
16709TIP3   OH271541   1.458   4.361   1.734  0.2788 -0.3384 -0.3504
16709TIP3    H171542   1.406   4.337   1.657  0.6233  0.7253 -0.9274
16709TIP3    H271543   1.539   4.312   1.724  0.0587 -0.7135 -0.3149
16710TIP3   OH271544   1.526   4.310   2.070  0.0543 -0.0708 -0.1602
16710TIP3    H171545   1.547   4.224   2.033 -0.4397 -0.1318 -0.3048
16710TIP3    H271546   1.459   4.292   2.135  0.1242  0.1803 -0.0152
16711TIP3   OH271547   4.800   1.021  12.435  0.0881 -0.1810  0.4212
16711TIP3    H171548   4.766   0.964  12.504 -1.2356 -1.2353 -1.0614
16711TIP3    H271549   4.723   1.066  12.401  0.7622  0.4857 -0.2598
16712TIP3   OH271550   4.422   6.425  15.675  0.5585  0.0067  0.5128
16712TIP3    H171551   4.382   6.509  15.653  1.9503  0.6846  0.4619
16712TIP3    H271552   4.508   6.427  15.632  0.7151 -1.3403  0.7112
16713TIP3   OH271553   2.120   1.157   4.530 -0.1372  0.2006  0.5496
16713TIP3    H171554   2.213   1.149   4.509  0.3956  2.7551  1.5135
16713TIP3    H271555   2.078   1.171   4.445  0.6818  1.1125  0.2668
16714TIP3   OH271556   5.452   2.323  12.105 -0.1362  0.4866 -0.3563
16714TIP3    H171557   5.493   2.261  12.045  0.0639  0.1085  0.1654
16714TIP3    H271558   5.504   2.317  12.185  1.1882  2.8301 -0.9302
16715TIP3   OH271559   4.979   2.796   5.536 -0.7581  0.2783  0.2770
16715TIP3    H171560   4.963   2.889   5.551 -0.2781  0.5230 -0.6576
16715TIP3    H271561   5.065   2.780   5.574 -0.3774  0.4687 -0.4764
16716TIP3   OH271562   6.167   1.133  13.109 -0.1587 -0.6369 -0.0502
16716TIP3    H171563   6.249   1.177  13.131 -0.5323  0.9499 -1.5859
16716TIP3    H271564   6.130   1.186  13.038 -2.7471 -1.0008  0.9162
16717TIP3   OH271565   5.272   0.311   1.670  0.2128  0.7883 -0.4316
16717TIP3    H171566   5.291   0.315   1.577  0.7946  1.2057 -0.3042
16717TIP3    H271567   5.315   0.389   1.706 -0.4152  0.8880  0.1101
16718TIP3   OH271568   5.606   5.232  11.015 -0.1846 -0.7775 -0.1431
16718TIP3    H171569   5.610   5.196  10.927 -0.7230  2.3347 -1.5874
16718TIP3    H271570   5.582   5.324  11.002  2.6381  0.6174  3.0308
16719TIP3   OH271571   5.772   6.601  14.051 -0.2386  0.6933  0.0412
16719TIP3    H171572   5.781   6.682  14.101  0.5456 -0.1480  1.3230
16719TIP3    H271573   5.799   6.624  13.962  1.5307  1.4701  0.7437
16720TIP3   OH271574   5.599   2.390  12.772  0.6565 -0.2718 -0.0402
16720TIP3    H171575   5.525   2.358  12.824  0.7618 -3.0495 -1.4267
16720TIP3    H271576   5.559   2.438  12.700  0.3418  0.2029  0.4408
16721TIP3   OH271577   1.916   5.113   0.082  0.1299 -0.1937  0.1706
16721TIP3    H171578   1.945   5.167   0.009  0.4510  0.5495  0.8406
16721TIP3    H271579   1.933   5.166   0.160 -1.3459 -0.4751  0.7125
16722TIP3   OH271580   0.828   3.257  16.075 -0.5090  0.5688 -1.0700
16722TIP3    H171581   0.779   3.321  16.023  1.0799  1.2024 -1.8319
16722TIP3    H271582   0.871   3.201  16.010  1.1986  1.1263 -0.4656
16723TIP3   OH271583   2.768   4.419   2.244  0.1948 -0.1142 -0.0249
16723TIP3    H171584   2.762   4.365   2.323  0.5614 -0.6376 -0.3455
16723TIP3    H271585   2.831   4.372   2.189  1.4913  1.2869  0.1998
16724TIP3   OH271586   5.632   3.807  16.988 -0.1695  0.1145  0.4171
16724TIP3    H171587   5.657   3.752  17.062 -3.3494 -2.2952 -0.0634
16724TIP3    H271588   5.678   3.768  16.913 -0.1409 -0.0479  0.5193
16725TIP3   OH271589   2.736   2.498   3.406  0.1741  0.1128  0.8892
16725TIP3    H171590   2.715   2.439   3.333 -0.2124  2.1439 -0.7228
16725TIP3    H271591   2.825   2.473   3.432  1.3885  0.9779 -2.0475
16726TIP3   OH271592   4.156   1.464  15.699 -0.0048  0.0260 -0.6628
16726TIP3    H171593   4.211   1.439  15.773 -0.7631 -1.7427 -0.6520
16726TIP3    H271594   4.067   1.459  15.733 -0.3367 -0.3354 -1.5450
16727TIP3   OH271595   0.968   0.480   4.697  0.1096  0.3797 -0.0915
16727TIP3    H171596   0.975   0.575   4.684 -0.7202  0.6194  1.0616
16727TIP3    H271597   1.029   0.443   4.634  1.0511  1.7164 -0.0087
16728TIP3   OH271598   3.889   1.347  13.862 -0.5758  0.0757 -0.1743
16728TIP3    H171599   3.839   1.393  13.930  0.3173  1.3725 -0.3767
16728TIP3    H271600   3.963   1.404  13.843  2.4981 -2.8557  1.8957
16729TIP3   OH271601   5.331   0.273   1.399 -0.5737 -1.1620  0.9212
16729TIP3    H171602   5.386   0.312   1.331  0.4841 -0.0624  2.3375
16729TIP3    H271603   5.251   0.246   1.353  0.0201 -0.2837 -0.7066
16730TIP3   OH271604   1.638   1.447   4.630  0.4013 -0.7449 -0.5134
16730TIP3    H171605   1.667   1.424   4.542 -0.0191  1.3628 -1.2653
16730TIP3    H271606   1.686   1.528   4.650  1.2778 -1.7213  1.6573
16731TIP3   OH271607   1.025   1.950  16.959 -0.2298  0.6085  0.0525
16731TIP3    H171608   1.003   2.032  16.913 -2.3896  1.7624  2.8205
16731TIP3    H271609   1.012   1.971  17.051  0.5383 -2.5214  0.9766
16732TIP3   OH271610   1.441   2.883   2.864 -0.4909  0.5305  0.0993
16732TIP3    H171611   1.444   2.967   2.910  0.1213 -0.3405  1.7481
16732TIP3    H271612   1.443   2.817   2.934 -0.1227 -0.8695 -1.1663
16733TIP3   OH271613   0.319   3.474  11.750  0.1507  0.4080 -0.4518
16733TIP3    H171614   0.368   3.393  11.734 -0.3037  0.0601 -0.1397
16733TIP3    H271615   0.284   3.463  11.839 -0.9058  0.4110 -0.8445
16734TIP3   OH271616   1.922   6.405   0.849  0.2979 -0.3559 -0.4760
16734TIP3    H171617   1.997   6.393   0.791  0.0614 -0.4118 -0.7736
16734TIP3    H271618   1.947   6.360   0.930  0.8683  0.2227 -0.3220
16735TIP3   OH271619   2.275   1.574   2.407  0.0265 -0.0775 -0.0132
16735TIP3    H171620   2.332   1.632   2.356  0.9555 -2.0762 -1.3371
16735TIP3    H271621   2.265   1.620   2.491  0.5412  2.0771 -1.0406
16736TIP3   OH271622   0.298   5.167  16.197 -0.0252 -0.1340 -0.3648
16736TIP3    H171623   0.252   5.116  16.131 -0.7605 -0.4590  0.3801
16736TIP3    H271624   0.259   5.139  16.280 -0.1173  1.3046  0.0946
16737TIP3   OH271625   5.496   4.265   5.403 -0.2346 -0.0344  0.3267
16737TIP3    H171626   5.584   4.229   5.399  0.0679  0.7356 -0.2998
16737TIP3    H271627   5.495   4.317   5.483 -0.6477 -1.3446  1.1882
16738TIP3   OH271628   2.939   2.159  11.658  0.0739 -0.2205 -0.5942
16738TIP3    H171629   3.000   2.209  11.713 -0.0087  0.0564 -0.7492
16738TIP3    H271630   2.874   2.124  11.720  0.6627 -0.9321 -0.3699
16739TIP3   OH271631   2.505   6.747  12.307  0.2510 -0.1941  0.0402
16739TIP3    H171632   2.500   6.690  12.383  0.6072 -0.5631 -0.2068
16739TIP3    H271633   2.447   6.707  12.242  0.3237 -0.1461 -0.0555
16740TIP3   OH271634   3.094   2.962  13.493  0.4898  0.4471  0.4962
16740TIP3    H171635   3.165   2.899  13.497  1.1291  1.0612 -0.5682
16740TIP3    H271636   3.024   2.924  13.546  1.0922 -0.8403  0.3948
16741TIP3   OH271637   3.660   2.220   1.259  0.0836  0.8148 -0.3126
16741TIP3    H171638   3.642   2.226   1.352 -0.8662 -0.4356 -0.3979
16741TIP3    H271639   3.714   2.297   1.240 -1.6258  2.3789  0.8082
16742TIP3   OH271640   2.449   3.801  16.257 -0.1262 -0.0695  0.6787
16742TIP3    H171641   2.531   3.792  16.208 -0.9442  2.0931 -1.2729
16742TIP3    H271642   2.462   3.878  16.312 -1.1980  1.0868 -0.5993
16743TIP3   OH271643   2.966   4.994   3.200 -0.7097 -0.3076 -0.4236
16743TIP3    H171644   3.010   4.925   3.249  2.4186  1.9807  0.3580
16743TIP3    H271645   2.875   4.992   3.230 -0.3419 -2.9774  0.7334
16744TIP3   OH271646   5.567   2.992  11.814 -0.2120  0.6840 -0.2673
16744TIP3    H171647   5.581   3.080  11.850  1.7431  0.6586 -0.8556
16744TIP3    H271648   5.508   2.950  11.877 -0.0371  1.9230  0.7864
16745TIP3   OH271649   1.164   5.290  14.456 -0.1584  0.0602  0.3585
16745TIP3    H171650   1.086   5.236  14.444  0.1457 -0.5731  1.2144
16745TIP3    H271651   1.224   5.236  14.507 -0.1607  1.4829  1.9567
16746TIP3   OH271652   6.206   3.004  13.227 -0.4821 -0.3131  0.3679
16746TIP3    H171653   6.201   2.940  13.298 -1.5154 -0.1198  0.4815
16746TIP3    H271654   6.129   3.059  13.238  0.0811  0.6004 -0.0789
16747TIP3   OH271655   3.815   2.055  12.756  0.1228  0.1117  0.0111
16747TIP3    H171656   3.756   2.061  12.832  0.2831 -0.8040  0.2229
16747TIP3    H271657   3.781   1.982  12.705  0.5691  0.1225 -0.3072
16748TIP3   OH271658   4.342   4.684  12.436 -0.5427 -0.0038  0.0059
16748TIP3    H171659   4.321   4.744  12.364 -0.0134  0.7807  0.4943
16748TIP3    H271660   4.296   4.721  12.512 -0.3972 -0.3454  0.2608
16749TIP3   OH271661   4.580   1.452  15.927  0.1917  0.4249  0.4205
16749TIP3    H171662   4.624   1.513  15.867  1.4370 -0.4439  0.4010
16749TIP3    H271663   4.490   1.449  15.897  0.2291  1.8511  0.0959
16750TIP3   OH271664   4.242   5.882   4.755 -0.1426 -0.6254 -0.0697
16750TIP3    H171665   4.336   5.884   4.773  0.1952 -1.6925 -1.5002
16750TIP3    H271666   4.204   5.838   4.831  0.8001 -2.0882 -0.3977
16751TIP3   OH271667   4.910   6.032   5.990  0.6758  0.1113 -0.1369
16751TIP3    H171668   4.899   6.086   5.912 -1.5182  0.4782  0.3468
16751TIP3    H271669   4.983   5.973   5.969  1.0219  1.1079 -1.9084
16752TIP3   OH271670   0.562   1.808   4.263 -0.1674 -0.0334  0.0136
16752TIP3    H171671   0.516   1.746   4.206 -0.4508 -0.3644  0.6026
16752TIP3    H271672   0.524   1.893   4.240  0.0444 -0.1036 -0.6147
16753TIP3   OH271673   1.501   3.601   2.440 -0.3873 -0.0714 -0.2699
16753TIP3    H171674   1.513   3.569   2.351  0.2606  0.5629 -0.4211
16753TIP3    H271675   1.528   3.527   2.496  0.3610 -0.0644 -0.6075
16754TIP3   OH271676   3.124   6.418   2.954  0.9228  0.3925 -0.2371
16754TIP3    H171677   3.133   6.389   2.863 -0.3957 -3.2146  0.6162
16754TIP3    H271678   3.191   6.368   3.002 -0.5561 -0.2998  1.1964
16755TIP3   OH271679   0.127   1.799  13.146 -0.4213  0.7653 -0.6383
16755TIP3    H171680   0.167   1.806  13.059 -1.9663  0.4450 -1.4084
16755TIP3    H271681   0.063   1.728  13.138 -2.1455  2.1399  0.1039
16756TIP3   OH271682   0.959   1.378  15.658 -0.7630 -0.6323 -0.3329
16756TIP3    H171683   0.867   1.402  15.655 -0.7289 -0.0836  1.6527
16756TIP3    H271684   1.002   1.441  15.600 -1.6057 -0.8334 -1.1933
16757TIP3   OH271685   1.595   6.249   1.635  0.2571 -0.0807 -0.2100
16757TIP3    H171686   1.536   6.308   1.682 -0.1433  0.4142 -1.2959
16757TIP3    H271687   1.634   6.195   1.704 -0.8431  0.1308  0.6193
16758TIP3   OH271688   5.417   2.858  17.025 -0.6079  0.4467  0.4136
16758TIP3    H171689   5.407   2.767  16.996  1.9016 -0.0642  0.8702
16758TIP3    H271690   5.431   2.908  16.944 -0.0596  0.0835  0.2777
16759TIP3   OH271691   2.445   2.413  11.695  0.3131 -0.1046  0.0316
16759TIP3    H171692   2.491   2.487  11.735 -0.9990  1.0541 -0.5181
16759TIP3    H271693   2.499   2.389  11.620  1.3293 -0.4574  0.8566
16760TIP3   OH271694   6.089   1.891  13.308  0.1228  0.0369  0.1769
16760TIP3    H171695   6.158   1.934  13.258 -0.7025  2.1983  0.7744
16760TIP3    H271696   6.010   1.942  13.288 -0.7926 -0.8498  1.4113
16761TIP3   OH271697   6.396   5.288   3.729 -0.0828 -0.3382  0.1184
16761TIP3    H171698   6.375   5.353   3.662  2.1973 -0.1265 -0.4659
16761TIP3    H271699   6.329   5.300   3.796 -1.0380  1.0450 -1.0274
16762TIP3   OH271700   3.265   3.792   5.575 -0.6417  0.2798 -0.3417
16762TIP3    H171701   3.358   3.816   5.579 -1.0043  1.6097  1.1188
16762TIP3    H271702   3.239   3.784   5.667 -1.5888 -1.7787 -0.7406
16763TIP3   OH271703   4.993   4.338  15.059 -0.0087 -0.5648  0.1162
16763TIP3    H171704   5.024   4.407  15.118  0.2078 -1.1128  0.6633
16763TIP3    H271705   5.067   4.320  15.002  0.2734 -1.0132  0.6122
16764TIP3   OH271706   2.207   1.821   3.038 -0.0314  0.3442 -0.0061
16764TIP3    H171707   2.228   1.908   3.004  0.6155  0.7296  1.2879
16764TIP3    H271708   2.133   1.837   3.098  0.8552  0.2324  1.1576
16765TIP3   OH271709   6.614   5.077   6.077  0.8160  0.2753 -0.1953
16765TIP3    H171710   6.595   5.164   6.112  0.4429  0.0219  0.2548
16765TIP3    H271711   6.535   5.053   6.029  0.6369 -0.0976  0.2735
16766TIP3   OH271712   3.850   4.627  14.753  0.1036  0.0955  0.5757
16766TIP3    H171713   3.860   4.710  14.706 -0.4557 -0.0843  0.1288
16766TIP3    H271714   3.829   4.652  14.843 -2.0430  0.4654  0.0202
16767TIP3   OH271715   5.243   3.561   3.207  0.3655 -0.0301  0.7604
16767TIP3    H171716   5.303   3.489   3.187  0.5521  0.8044 -1.9854
16767TIP3    H271717   5.296   3.640   3.200 -0.5808  0.5948  0.4616
16768TIP3   OH271718   4.619   2.245   2.665  0.4634  0.1369 -0.2083
16768TIP3    H171719   4.659   2.285   2.588 -1.9234  0.5778 -1.3136
16768TIP3    H271720   4.573   2.168   2.632 -1.4678  0.9019  0.5032
16769TIP3   OH271721   5.216   5.458  13.957 -0.0154  0.0985 -0.0961
16769TIP3    H171722   5.272   5.404  13.902  0.1856 -0.0981  0.3002
16769TIP3    H271723   5.271   5.531  13.983  0.2642 -0.4139  0.8048
16770TIP3   OH271724   4.795   6.597  11.868 -0.2171  0.3458 -0.7174
16770TIP3    H171725   4.786   6.536  11.794 -0.9408  0.0860 -0.4244
16770TIP3    H271726   4.813   6.681  11.827  0.7456 -0.0521 -1.1304
16771TIP3   OH271727   1.785   4.877  13.251 -0.1648  0.1509  0.4147
16771TIP3    H171728   1.766   4.889  13.158 -0.0523 -0.6303  0.2832
16771TIP3    H271729   1.768   4.784  13.267  2.3022 -0.3525  0.5472
16772TIP3   OH271730   0.927   5.840  13.088  0.2698 -0.5699 -0.0985
16772TIP3    H171731   0.898   5.750  13.077  0.2745 -0.4725 -0.9397
16772TIP3    H271732   0.883   5.889  13.018  0.5919  0.0054  0.0900
16773TIP3   OH271733   4.553   5.559   3.858 -0.0106  0.3126  0.4185
16773TIP3    H171734   4.476   5.570   3.914 -1.7576  1.5953 -2.0545
16773TIP3    H271735   4.573   5.647   3.827  0.3228 -0.4121 -1.6140
16774TIP3   OH271736   4.958   1.300   3.300 -0.6992  0.0743 -0.6270
16774TIP3    H171737   4.882   1.349   3.271 -0.1857  0.6931 -0.9625
16774TIP3    H271738   4.941   1.210   3.272 -0.7638  0.4350 -1.8130
16775TIP3   OH271739   2.750   4.647  16.811  0.1300 -0.3996  0.2471
16775TIP3    H171740   2.807   4.715  16.775 -0.6882  0.0794 -0.1619
16775TIP3    H271741   2.668   4.655  16.762 -1.2156  0.5987  2.5195
16776TIP3   OH271742   2.084   0.259   3.981 -0.6492  0.6657  0.1277
16776TIP3    H171743   2.040   0.233   3.900 -0.1420  0.0278  0.0530
16776TIP3    H271744   2.071   0.354   3.986 -0.4626  0.7524 -0.8345
16777TIP3   OH271745   6.642   5.501   4.051 -0.0851 -0.5235  0.3305
16777TIP3    H171746   6.631   5.421   4.102 -1.3458 -1.1340 -0.8357
16777TIP3    H271747   6.558   5.547   4.061  0.4736  0.4495  0.6373
16778TIP3   OH271748   5.833   3.919  12.024  0.0530  0.5193  0.3338
16778TIP3    H171749   5.884   3.999  12.035 -1.3266  1.2624  1.8480
16778TIP3    H271750   5.765   3.942  11.961  0.0666  0.3364  0.2524
16779TIP3   OH271751   5.812   6.526   2.516 -0.5121  0.2299 -0.0530
16779TIP3    H171752   5.904   6.503   2.505 -0.7266 -0.9746  0.4071
16779TIP3    H271753   5.804   6.615   2.483  0.6879  0.1130 -0.6940
16780TIP3   OH271754   3.776   1.200  16.125  0.4893  0.1069 -0.3063
16780TIP3    H171755   3.808   1.148  16.051  0.8619  1.8863 -1.4757
16780TIP3    H271756   3.683   1.179  16.131  0.5969 -0.5639 -0.8452
16781TIP3   OH271757   3.711   6.201   1.261  0.5588  0.6683  0.4263
16781TIP3    H171758   3.618   6.208   1.280  0.2288 -1.4461 -0.1069
16781TIP3    H271759   3.743   6.133   1.320  0.8554 -1.4482 -1.9562
16782TIP3   OH271760   6.042   0.322  12.403 -0.0415 -0.3959  0.2042
16782TIP3    H171761   6.129   0.290  12.427 -1.2304 -2.5657  1.9667
16782TIP3    H271762   5.995   0.332  12.486 -1.2977  1.3996 -0.6480
16783TIP3   OH271763   0.930   6.526  15.371 -0.2500 -0.2556 -1.0857
16783TIP3    H171764   1.012   6.501  15.415  0.3985  1.0568 -1.4793
16783TIP3    H271765   0.864   6.524  15.440  0.5834  0.9106 -0.2100
16784TIP3   OH271766   0.130   3.272  16.222 -0.2870  0.2793 -0.0243
16784TIP3    H171767   0.208   3.276  16.278  1.9220  2.0693 -2.9533
16784TIP3    H271768   0.082   3.352  16.241 -0.9421 -0.3284  1.0238
16785TIP3   OH271769   2.214   1.109   5.807 -0.5833 -0.0554 -0.8223
16785TIP3    H171770   2.184   1.111   5.898 -1.3398  0.8414 -1.0824
16785TIP3    H271771   2.167   1.035   5.768 -1.5993  0.6199 -0.9208
16786TIP3   OH271772   1.480   6.711   0.759  0.5643 -0.2698  0.1503
16786TIP3    H171773   1.421   6.784   0.776 -0.6051 -0.7000 -1.7657
16786TIP3    H271774   1.494   6.713   0.664  1.3800 -1.8762  0.2019
16787TIP3   OH271775   4.765   4.025  16.521 -0.1226  0.3907 -0.2767
16787TIP3    H171776   4.746   3.948  16.574  3.0133 -1.6948 -1.8233
16787TIP3    H271777   4.745   3.997  16.431  1.5905  1.1262 -0.9238
16788TIP3   OH271778   3.913   2.503   5.026 -0.1739 -0.2503  0.9244
16788TIP3    H171779   3.823   2.491   4.995 -0.2522 -1.1632  1.4726
16788TIP3    H271780   3.920   2.446   5.102  0.9006 -0.2530  0.8384
16789TIP3   OH271781   2.007   5.977   1.309 -0.1858  0.6884 -0.3815
16789TIP3    H171782   2.020   5.911   1.240 -0.8848 -0.5761  0.6552
16789TIP3    H271783   1.939   5.939   1.365  0.7254  1.4613  1.2956
16790TIP3   OH271784   2.805   6.265   3.716  0.4774 -0.0762 -0.1156
16790TIP3    H171785   2.724   6.313   3.698  0.9674  0.8378  0.0113
16790TIP3    H271786   2.778   6.174   3.727 -0.1322 -0.3766 -3.2994
16791TIP3   OH271787   0.184   3.154   0.946  0.0901  0.2075 -0.2856
16791TIP3    H171788   0.247   3.151   0.874  0.1163 -0.0472 -0.2530
16791TIP3    H271789   0.171   3.248   0.963  1.0143  0.2657  0.1914
16792TIP3   OH271790   2.716   5.687   0.797 -0.1433  0.1476 -0.4576
16792TIP3    H171791   2.692   5.658   0.884 -0.6518 -1.7007 -1.1722
16792TIP3    H271792   2.812   5.692   0.798 -0.1602  0.3668  0.2613
16793TIP3   OH271793   2.545   0.262  15.917 -0.4112  0.3432 -0.1933
16793TIP3    H171794   2.461   0.223  15.940 -0.2085  0.3187  0.5280
16793TIP3    H271795   2.610   0.204  15.956 -0.0818  0.8540  0.0290
16794TIP3   OH271796   4.822   2.972   0.801  0.3059 -0.3474 -0.1756
16794TIP3    H171797   4.913   2.976   0.831  0.4320  0.2669 -0.6113
16794TIP3    H271798   4.826   2.925   0.718  0.1725 -0.6492 -0.0122
16795TIP3   OH271799   3.445   1.233  10.741  0.1820 -0.2271  0.0417
16795TIP3    H171800   3.491   1.166  10.690 -2.1761 -2.3108  0.4721
16795TIP3    H271801   3.382   1.271  10.680 -1.4786 -1.5300  0.8814
16796TIP3   OH271802   2.841   1.581   0.800 -0.2547  0.1780 -0.6614
16796TIP3    H171803   2.874   1.655   0.749  1.0260  0.2566  0.2427
16796TIP3    H271804   2.764   1.616   0.846 -0.4039  0.5736 -1.1915
16797TIP3   OH271805   3.060   2.111   0.308 -0.6179 -0.2064  0.3650
16797TIP3    H171806   2.966   2.098   0.300 -0.9197  1.7631  0.2965
16797TIP3    H271807   3.094   2.099   0.220 -1.1068  1.0103 -0.0113
16798TIP3   OH271808   5.050   4.639  15.097  0.8079  0.2307  0.3503
16798TIP3    H171809   5.089   4.625  15.183 -1.3100  1.5024  1.6134
16798TIP3    H271810   5.054   4.734  15.084 -2.0310  0.4991  0.7463
16799TIP3   OH271811   1.146   2.967   2.448 -0.1230  1.0286 -0.5937
16799TIP3    H171812   1.178   2.967   2.538  0.4381  1.4431 -0.7923
16799TIP3    H271813   1.088   3.042   2.443  2.9714  3.5561 -1.6534
16800TIP3   OH271814   5.417   3.872  14.323 -0.3565  0.1387 -1.0092
16800TIP3    H171815   5.425   3.790  14.370 -0.8849 -0.4839 -1.9651
16800TIP3    H271816   5.475   3.933  14.369 -0.1813 -0.6823 -0.1240
16801TIP3   OH271817   3.608   2.861   0.760  0.1689 -0.1345 -0.9148
16801TIP3    H171818   3.542   2.903   0.705  0.0465  1.1063  0.1435
16801TIP3    H271819   3.574   2.867   0.849  1.1948 -0.4749 -0.4772
16802TIP3   OH271820   5.027   0.468  11.279  0.4482 -0.2189  0.0388
16802TIP3    H171821   5.043   0.393  11.222  0.9364 -2.1722  2.6181
16802TIP3    H271822   5.087   0.535  11.246 -0.2540 -0.7254 -2.5546
16803TIP3   OH271823   3.374   1.827   2.403 -0.4021 -0.4510  0.2804
16803TIP3    H171824   3.434   1.898   2.427  0.1388 -0.9968  0.5850
16803TIP3    H271825   3.308   1.868   2.348  1.1514 -0.1285 -1.4205
16804TIP3   OH271826   2.165   1.798  12.937 -0.5482 -0.1892 -0.2115
16804TIP3    H171827   2.156   1.868  13.001  1.6067 -0.9813  1.0232
16804TIP3    H271828   2.190   1.843  12.856 -0.3460  0.5534  0.2567
16805TIP3   OH271829   5.329   1.457  16.944 -0.3252 -0.6396 -0.0557
16805TIP3    H171830   5.378   1.481  17.023  3.7174 -2.8333 -1.6139
16805TIP3    H271831   5.320   1.362  16.950 -0.8727 -0.7292 -1.7459
16806TIP3   OH271832   4.575   6.169   1.888  0.4687 -0.0431 -0.1022
16806TIP3    H171833   4.553   6.222   1.965  2.3449 -0.1665  0.5707
16806TIP3    H271834   4.528   6.087   1.902  0.1073  0.2534  0.4798
16807TIP3   OH271835   1.558   2.443  11.164 -0.3466  0.2076  0.0017
16807TIP3    H171836   1.598   2.479  11.085  2.6278 -0.1322  1.2228
16807TIP3    H271837   1.617   2.373  11.192 -0.6317  1.0551  3.1387
16808TIP3   OH271838   4.790   4.236   0.329  0.7756  0.4841 -0.0111
16808TIP3    H171839   4.766   4.309   0.273 -0.3676  0.6671  0.6818
16808TIP3    H271840   4.723   4.170   0.313  1.9027 -0.5150 -0.7795
16809TIP3   OH271841   6.103   1.859  13.865  0.3761  0.4277 -0.5885
16809TIP3    H171842   6.139   1.855  13.777  0.0815 -0.2695 -0.6802
16809TIP3    H271843   6.153   1.793  13.914  1.1967  1.4549  0.0178
16810TIP3   OH271844   0.739   6.693  11.874  0.1577  0.4412  0.2030
16810TIP3    H171845   0.651   6.656  11.864  0.9393 -1.5052  0.0531
16810TIP3    H271846   0.724   6.782  11.904 -1.8993  0.6832 -1.3379
16811TIP3   OH271847   2.788   0.664   0.983  0.6085 -0.5083 -0.1431
16811TIP3    H171848   2.847   0.736   0.959  1.6376 -1.7067 -1.4435
16811TIP3    H271849   2.736   0.649   0.904 -0.4615 -0.3886  0.5325
16812TIP3   OH271850   4.523   0.998   2.857  0.3304 -0.4637  0.3248
16812TIP3    H171851   4.491   0.957   2.937  0.9862  0.1407  0.9106
16812TIP3    H271852   4.489   0.943   2.786 -1.5277 -0.1471  0.9365
16813TIP3   OH271853   3.784   5.125  16.967 -0.6892  0.1956 -0.1620
16813TIP3    H171854   3.804   5.132  17.060 -0.1154 -0.6152 -0.2147
16813TIP3    H271855   3.829   5.199  16.927 -0.6025  0.3139  0.1490
16814TIP3   OH271856   1.983   2.951   2.549 -0.1491 -0.2353 -0.3837
16814TIP3    H171857   2.027   3.018   2.602 -0.6654  0.4193 -0.7659
16814TIP3    H271858   2.018   2.868   2.582  0.1692  0.1951  0.4056
16815TIP3   OH271859   2.328   0.717   1.544  0.2330  0.1232  0.0165
16815TIP3    H171860   2.283   0.708   1.628 -0.4147  2.2951 -0.0398
16815TIP3    H271861   2.260   0.706   1.478  0.6528 -1.0731 -0.2523
16816TIP3   OH271862   1.736   1.895  14.300 -0.3150 -0.3399  0.6251
16816TIP3    H171863   1.813   1.941  14.265  0.1573 -0.6997  1.1731
16816TIP3    H271864   1.748   1.804  14.271 -1.1985 -0.1564 -0.3812
16817TIP3   OH271865   3.168   2.066   1.679  0.1470 -0.3087 -0.1253
16817TIP3    H171866   3.118   2.016   1.614 -0.7332 -0.4537  0.6407
16817TIP3    H271867   3.178   2.006   1.753 -0.4747  0.4573  0.6010
16818TIP3   OH271868   0.634   6.336  13.901  0.0412  0.1081  0.0197
16818TIP3    H171869   0.677   6.389  13.968 -1.9182  1.4651  0.3045
16818TIP3    H271870   0.637   6.247  13.935  0.7519  0.4852  1.0011
16819TIP3   OH271871   1.293   3.939  14.980 -0.4330  0.4055  0.1775
16819TIP3    H171872   1.234   4.004  14.942 -1.5039  1.3256  3.0714
16819TIP3    H271873   1.239   3.892  15.044  1.1565 -1.0489  0.5246
16820TIP3   OH271874   4.566   4.526  16.367 -0.3657 -0.0330 -0.0129
16820TIP3    H171875   4.536   4.556  16.281 -2.6032  2.1281  1.4002
16820TIP3    H271876   4.660   4.541  16.366 -0.4631  0.7154 -1.7810
16821TIP3   OH271877   0.914   5.891  11.399  0.4249 -0.3043  0.2994
16821TIP3    H171878   0.891   5.829  11.468 -0.4730  0.5897  0.8188
16821TIP3    H271879   1.009   5.899  11.404  0.3058  0.3283  1.9382
16822TIP3   OH271880   6.204   1.526  15.585  0.3646 -0.1468 -0.0634
16822TIP3    H171881   6.177   1.483  15.504 -0.2007 -2.1140  1.0979
16822TIP3    H271882   6.290   1.489  15.605  0.5524  0.4090  0.1896
16823TIP3   OH271883   1.655   2.167   3.964 -0.6111 -0.2789  0.0044
16823TIP3    H171884   1.628   2.089   4.013  0.6212 -1.2597 -0.8171
16823TIP3    H271885   1.644   2.143   3.872  2.6070 -0.6806 -0.4042
16824TIP3   OH271886   2.653   2.825   5.393 -0.5950  0.1462  0.3399
16824TIP3    H171887   2.557   2.819   5.390 -0.5899 -0.3415  0.9245
16824TIP3    H271888   2.683   2.741   5.357 -0.3910  0.3222  0.1055
16825TIP3   OH271889   0.284   6.664   3.200  0.5414  0.0146  0.2092
16825TIP3    H171890   0.379   6.674   3.205  0.4961  0.2024  0.8234
16825TIP3    H271891   0.259   6.708   3.119  0.8310  1.2008  0.7479
16826TIP3   OH271892   0.269   0.348  13.471  0.0555  0.3155  0.0590
16826TIP3    H171893   0.330   0.279  13.494 -0.6909  0.1294  1.5931
16826TIP3    H271894   0.306   0.388  13.392  1.4107 -0.6721  0.1696
16827TIP3   OH271895   2.929   1.038   5.673 -0.0836 -0.2638 -0.2462
16827TIP3    H171896   3.009   1.025   5.725  1.5025  0.0711 -2.4821
16827TIP3    H271897   2.892   1.119   5.708  0.8814 -0.0912  0.4442
16828TIP3   OH271898   4.947   1.043  15.019  0.0483  0.0021 -0.1922
16828TIP3    H171899   4.977   1.013  15.105 -1.6139 -2.4037 -0.3401
16828TIP3    H271900   4.905   1.128  15.037  2.3123  0.9910  0.7948
16829TIP3   OH271901   0.582   4.308  10.307  0.0619 -0.3927  0.0780
16829TIP3    H171902   0.654   4.365  10.332 -0.1144 -0.0143 -0.2690
16829TIP3    H271903   0.618   4.254  10.236 -0.2991  0.5023 -0.8005
16830TIP3   OH271904   3.470   2.704  15.515 -0.4035 -0.5222 -0.2259
16830TIP3    H171905   3.431   2.690  15.429 -0.8027  1.0365 -0.3211
16830TIP3    H271906   3.557   2.664  15.508 -1.5738 -3.2748 -0.2783
16831TIP3   OH271907   6.638   1.084  12.681  0.4123  0.1747 -0.3452
16831TIP3    H171908   6.659   1.069  12.773 -1.1620 -2.0246 -0.2500
16831TIP3    H271909   6.720   1.114  12.642  1.6160 -0.6608  1.3889
16832TIP3   OH271910   5.835   0.291   2.912  0.0563 -0.7479 -0.1566
16832TIP3    H171911   5.772   0.276   2.842 -2.8978 -1.2719  2.4340
16832TIP3    H271912   5.850   0.204   2.950  0.2007 -0.2509  0.9628
16833TIP3   OH271913   6.108   5.605   4.963  0.2828 -0.0655  0.6766
16833TIP3    H171914   6.081   5.678   5.019  2.7548  1.3908  0.1276
16833TIP3    H271915   6.029   5.582   4.915 -1.5885 -0.4375  3.6265
16834TIP3   OH271916   6.319   4.394   3.895 -0.3754  0.5201  0.5925
16834TIP3    H171917   6.314   4.360   3.984  1.4094 -0.5836  0.3039
16834TIP3    H271918   6.413   4.405   3.878 -0.6717  0.5710 -1.2062
16835TIP3   OH271919   5.891   3.721   5.765 -0.2758  0.3606 -0.4589
16835TIP3    H171920   5.896   3.812   5.795 -1.0888 -0.2541  1.7152
16835TIP3    H271921   5.851   3.727   5.678 -0.3958  2.0680 -0.3257
16836TIP3   OH271922   0.548   4.355   1.312  0.5326  0.0162 -0.0680
16836TIP3    H171923   0.605   4.423   1.276 -1.4454  1.1022 -1.3798
16836TIP3    H271924   0.522   4.303   1.236 -1.6185  0.7065  0.1132
16837TIP3   OH271925   0.519   6.016  12.405  0.1799 -0.3956 -0.2122
16837TIP3    H171926   0.438   6.034  12.454 -1.4893 -2.6057 -1.9721
16837TIP3    H271927   0.568   5.958  12.463 -0.8280 -1.3206 -0.2420
16838TIP3   OH271928   2.782   3.343   1.287 -0.1763 -0.7417  0.3356
16838TIP3    H171929   2.716   3.383   1.231  0.1360  1.6842  1.5627
16838TIP3    H271930   2.748   3.256   1.308 -1.9312 -0.3487 -0.7709
16839TIP3   OH271931   4.809   1.810   2.297 -0.3023  0.1589  0.3916
16839TIP3    H171932   4.868   1.765   2.357 -0.3452  0.8729  0.9800
16839TIP3    H271933   4.793   1.895   2.338 -1.0136  0.3265 -0.2117
16840TIP3   OH271934   0.658   5.482  16.461  0.1906  0.2033  0.5547
16840TIP3    H171935   0.565   5.489  16.435  0.0193  3.0027  1.5985
16840TIP3    H271936   0.655   5.445  16.548  0.0412  0.2200  0.5578
16841TIP3   OH271937   3.622   4.712   0.456  0.5806 -0.0913 -0.5898
16841TIP3    H171938   3.546   4.770   0.456  0.3535 -0.3847  0.1106
16841TIP3    H271939   3.677   4.745   0.385 -0.1692  0.1590 -1.0639
16842TIP3   OH271940   2.209   2.070   2.900 -0.3627  0.1618  0.0226
16842TIP3    H171941   2.189   2.156   2.937  0.7986  1.3739 -2.0064
16842TIP3    H271942   2.216   2.085   2.806  3.2305 -1.4037 -0.1433
16843TIP3   OH271943   2.984   1.420  13.072  0.2498  0.2842  0.5021
16843TIP3    H171944   2.949   1.488  13.014  0.1856  0.1723  0.4097
16843TIP3    H271945   2.970   1.455  13.160  1.6818  1.1204  0.4273
16844TIP3   OH271946   2.001   5.619   0.184  0.8109 -0.3195  0.5135
16844TIP3    H171947   1.916   5.620   0.229  0.5491 -2.3674  0.1878
16844TIP3    H271948   2.027   5.527   0.185  1.9120 -0.0877 -1.4753
16845TIP3   OH271949   6.664   0.775   3.997  0.0936  0.2590 -0.0612
16845TIP3    H171950   6.673   0.828   3.918 -1.6125  0.8960  0.1338
16845TIP3    H271951   6.729   0.706   3.987  1.3021  1.4826 -1.0572
16846TIP3   OH271952   3.923   1.788  11.824  0.3916 -0.3776  0.1701
16846TIP3    H171953   3.991   1.801  11.889  1.8983 -0.1925 -1.3728
16846TIP3    H271954   3.917   1.693  11.813 -0.1738 -0.4289  0.8637
16847TIP3   OH271955   4.307   0.933   5.785  0.2130 -0.4567  0.2049
16847TIP3    H171956   4.336   0.842   5.788 -0.7210 -0.7420  1.7677
16847TIP3    H271957   4.307   0.961   5.876  2.0888  1.6743 -0.3666
16848TIP3   OH271958   5.218   5.152   3.018 -0.1211  0.3711  0.1659
16848TIP3    H171959   5.163   5.076   2.999 -0.6400  0.6606  0.4874
16848TIP3    H271960   5.276   5.124   3.088 -0.8314  0.5092  0.8112
16849TIP3   OH271961   1.449   3.364  11.041 -0.0430 -0.5297  0.0091
16849TIP3    H171962   1.507   3.420  10.989  0.3363 -2.3222 -1.5956
16849TIP3    H271963   1.488   3.363  11.128  0.2779  1.1517 -0.0770
16850TIP3   OH271964   1.320   2.017  16.950 -1.0919 -0.7069 -0.3062
16850TIP3    H171965   1.269   2.095  16.973  0.0106 -0.1666  0.4229
16850TIP3    H271966   1.312   2.011  16.855 -2.0615 -0.3283 -0.2604
16851TIP3   OH271967   5.386   4.711  11.573  0.0944  0.4940  0.2402
16851TIP3    H171968   5.374   4.640  11.637 -2.1660  0.0165 -0.6146
16851TIP3    H271969   5.467   4.754  11.600  1.7559 -2.5756  0.6138
16852TIP3   OH271970   3.006   5.683   4.576  0.2793  0.4953  0.2859
16852TIP3    H171971   2.948   5.645   4.642 -0.2803  1.9183  0.6627
16852TIP3    H271972   2.962   5.667   4.493 -0.2646  0.8604  0.4969
16853TIP3   OH271973   2.456   0.454   4.283  0.4100  0.3406 -0.0256
16853TIP3    H171974   2.445   0.370   4.240 -0.3948 -0.2032  1.2063
16853TIP3    H271975   2.532   0.442   4.340  0.4084  0.5090  0.0129
16854TIP3   OH271976   3.099   2.479  15.556 -0.7259  0.3654  0.3178
16854TIP3    H171977   3.008   2.451  15.563 -0.3957 -0.8236 -0.0299
16854TIP3    H271978   3.121   2.467  15.463  0.4185 -1.4289  0.7708
16855TIP3   OH271979   0.001   5.862   0.055 -0.0815 -1.0300  0.8027
16855TIP3    H171980  -0.042   5.906   0.129 -0.3799 -0.3621  0.2508
16855TIP3    H271981  -0.008   5.924  -0.018  0.1717 -1.6930  0.1941
16856TIP3   OH271982   2.980   0.503   2.633 -0.1998 -0.0947 -0.6333
16856TIP3    H171983   2.981   0.426   2.576  1.3477 -0.5063 -0.0893
16856TIP3    H271984   3.067   0.506   2.671 -0.5792  1.3210  0.1964
16857TIP3   OH271985   6.777   3.255  16.843 -0.5243 -0.1432 -0.2350
16857TIP3    H171986   6.787   3.301  16.759 -1.7539  0.8796  0.1451
16857TIP3    H271987   6.733   3.173  16.821 -2.7072  1.0082 -0.4061
16858TIP3   OH271988   1.483   6.115   4.539 -1.1384 -0.3496  0.2370
16858TIP3    H171989   1.429   6.050   4.583 -2.4016 -0.8361 -1.8713
16858TIP3    H271990   1.421   6.171   4.492  0.0317  1.1387  0.3675
16859TIP3   OH271991   6.388   5.555   4.271  0.1639 -0.5689  0.0155
16859TIP3    H171992   6.316   5.493   4.262  0.7055 -1.6357  2.3797
16859TIP3    H271993   6.382   5.610   4.193 -2.3498 -1.4911 -0.5236
16860TIP3   OH271994   0.652   4.319   1.602  0.0058  0.0882  0.3006
16860TIP3    H171995   0.608   4.298   1.520 -0.8604  0.1960  0.7219
16860TIP3    H271996   0.673   4.412   1.595  0.1188  0.0493  0.1204
16861TIP3   OH271997   5.320   3.054   3.039  0.1707 -0.2790  0.1097
16861TIP3    H171998   5.270   2.986   2.992  0.9360  0.6892 -2.2907
16861TIP3    H271999   5.411   3.039   3.012  0.6273  0.4351  1.2191
16862TIP3   OH272000   1.651   0.190   5.796 -0.4355  0.0503 -0.1395
16862TIP3    H172001   1.676   0.101   5.822 -0.5930  0.5312  1.8703
16862TIP3    H272002   1.652   0.189   5.701 -1.1890 -2.3194 -0.1911
16863TIP3   OH272003   6.343   3.289   1.253  0.2271 -0.0764 -0.2140
16863TIP3    H172004   6.265   3.327   1.212 -0.7054 -0.9063  0.7235
16863TIP3    H272005   6.320   3.283   1.346 -0.2564 -4.0836 -0.4166
16864TIP3   OH272006   1.275   5.176   4.769  0.3149 -0.4526 -0.1982
16864TIP3    H172007   1.269   5.091   4.811  0.1920  0.1181  0.9864
16864TIP3    H272008   1.185   5.210   4.771  0.5977  0.3128  0.7104
16865TIP3   OH272009   1.810   4.870   3.116 -0.4125  0.3060  0.5389
16865TIP3    H172010   1.770   4.957   3.117 -1.2642 -0.0735  1.2465
16865TIP3    H272011   1.902   4.886   3.097 -0.3727  1.4380  1.5303
16866TIP3   OH272012   2.775   2.433   0.741  0.2615  1.0977 -0.0368
16866TIP3    H172013   2.864   2.456   0.769  0.4770  0.4944 -0.1973
16866TIP3    H272014   2.789   2.370   0.670 -0.2997 -0.3459  1.0993
16867TIP3   OH272015   6.502   0.051  11.181 -0.3079 -0.2824  0.0879
16867TIP3    H172016   6.419   0.062  11.229  0.2357  2.6337  0.5325
16867TIP3    H272017   6.478   0.064  11.090 -0.2496  1.5785  0.3037
16868TIP3   OH272018   2.284   4.774  13.194  0.2367 -0.4092 -0.2826
16868TIP3    H172019   2.244   4.699  13.239 -1.0701 -0.3898 -1.3509
16868TIP3    H272020   2.286   4.748  13.102  1.5151  0.1382 -0.4302
16869TIP3   OH272021   5.516   5.527   0.704 -0.2651  0.1845 -0.4848
16869TIP3    H172022   5.540   5.451   0.651 -0.5850  0.2218 -0.6837
16869TIP3    H272023   5.436   5.561   0.663 -0.0174  0.7433 -0.5075
16870TIP3   OH272024   6.005   3.346   3.013  0.0356 -0.1112 -0.5980
16870TIP3    H172025   6.053   3.361   3.094 -1.0379 -0.4562  0.1285
16870TIP3    H272026   6.045   3.405   2.950  0.1170  1.0493  0.5017
16871TIP3   OH272027   0.128   1.704  13.481 -0.1213  0.2344 -0.4927
16871TIP3    H172028   0.059   1.764  13.451 -0.3092  0.4400  0.3123
16871TIP3    H272029   0.082   1.642  13.538  0.1043 -0.5722 -1.1691
16872TIP3   OH272030   3.393   1.539  15.980 -0.1668 -0.7663 -0.4686
16872TIP3    H172031   3.338   1.476  15.934 -0.2538 -0.4102 -0.8582
16872TIP3    H272032   3.353   1.624  15.961 -1.2493 -0.7131  1.6639
16873TIP3   OH272033   2.187   5.339  11.451  0.1117 -0.5676 -0.3472
16873TIP3    H172034   2.130   5.316  11.377 -1.2642 -1.8362  1.0474
16873TIP3    H272035   2.134   5.396  11.506  0.6710 -0.6480  0.2854
16874TIP3   OH272036   2.982   3.294   3.316  0.1817  0.0433  0.7932
16874TIP3    H172037   2.914   3.311   3.251  0.1343 -1.7000  0.3264
16874TIP3    H272038   3.054   3.352   3.291  0.1221 -0.5071 -0.7607
16875TIP3   OH272039   1.584   6.568   4.895  0.5181  0.0554 -0.1143
16875TIP3    H172040   1.521   6.511   4.939 -1.5817  1.8880 -0.5384
16875TIP3    H272041   1.547   6.582   4.808  1.1951  1.6642 -0.1807
16876TIP3   OH272042   1.234   5.631   5.822 -0.0489  0.2010  0.8395
16876TIP3    H172043   1.262   5.618   5.913  3.1353  0.7933  0.0413
16876TIP3    H272044   1.203   5.721   5.819 -1.2642 -0.1637  1.5282
16877TIP3   OH272045   4.024   6.010   5.840 -0.2638 -0.4262 -1.1355
16877TIP3    H172046   4.055   6.100   5.846 -0.2931 -0.3575 -1.9156
16877TIP3    H272047   4.087   5.960   5.892  0.1987 -0.0585 -1.3302
16878TIP3   OH272048   3.974   5.894  11.760 -0.2447 -0.0010 -0.5414
16878TIP3    H172049   4.026   5.905  11.839 -0.8386 -0.2805 -0.1029
16878TIP3    H272050   3.943   5.804  11.763  1.4117 -0.6740 -2.1587
16879TIP3   OH272051   5.546   4.259  11.567  0.3412 -0.3455 -0.2520
16879TIP3    H172052   5.640   4.245  11.553 -0.0388 -2.1048 -1.3524
16879TIP3    H272053   5.536   4.263  11.662  1.5207 -0.0484 -0.1192
16880TIP3   OH272054   2.765   3.696   0.345 -0.1686  0.0746  0.5044
16880TIP3    H172055   2.687   3.749   0.330 -0.4524 -0.2862  0.6985
16880TIP3    H272056   2.775   3.646   0.264 -0.7024 -0.5962  0.8488
16881TIP3   OH272057   1.186   2.975   1.948  0.3415  0.7530  0.0935
16881TIP3    H172058   1.160   2.932   1.867  1.6189  0.2547 -0.0723
16881TIP3    H272059   1.190   3.068   1.926 -1.0897  0.8389  0.0915
16882TIP3   OH272060   4.056   1.244  15.515  0.2782 -0.2548 -0.6090
16882TIP3    H172061   4.103   1.323  15.539  0.5165 -0.8008  0.8297
16882TIP3    H272062   3.964   1.270  15.512  0.3368  0.0406  0.0537
16883TIP3   OH272063   3.434   0.087  13.049 -0.4600 -0.4011 -0.1116
16883TIP3    H172064   3.455   0.075  12.956 -0.8167  2.3475 -0.6164
16883TIP3    H272065   3.454   0.179  13.066 -1.7437 -0.4944  2.1920
16884TIP3   OH272066   5.945   5.792  12.823 -0.0476 -0.2501 -0.1362
16884TIP3    H172067   5.980   5.746  12.898 -1.4968 -0.1285  0.6433
16884TIP3    H272068   5.985   5.880  12.828  1.0043 -0.6903 -0.3891
16885TIP3   OH272069   2.822   6.805  16.268  0.4098 -0.2100  0.3544
16885TIP3    H172070   2.831   6.724  16.217  0.5960  0.9869 -1.6387
16885TIP3    H272071   2.871   6.870  16.217  0.6860  1.0653  2.1593
16886TIP3   OH272072   3.085   3.644  16.815  0.2669  0.2496  0.6583
16886TIP3    H172073   3.097   3.713  16.750 -1.8308  0.0594 -0.0028
16886TIP3    H272074   3.017   3.678  16.874 -0.3915 -0.9928  0.6555
16887TIP3   OH272075   5.003   2.929  16.018 -0.1570  0.0512  0.1633
16887TIP3    H172076   4.918   2.973  16.006  0.0360  0.1602 -0.9597
16887TIP3    H272077   5.020   2.888  15.933  0.5080 -0.7079  0.6536
16888TIP3   OH272078   0.733   0.717  14.302 -0.1772 -0.2251 -0.1551
16888TIP3    H172079   0.719   0.798  14.350  0.8841  0.7267 -1.3774
16888TIP3    H272080   0.829   0.707  14.298 -0.2850 -1.8323  0.4396
16889TIP3   OH272081   1.270   5.584   3.145 -0.1840 -0.3978  0.2564
16889TIP3    H172082   1.301   5.658   3.199 -0.6196 -0.0791  0.0763
16889TIP3    H272083   1.313   5.596   3.061 -0.1290 -0.4456  0.2772
16890TIP3   OH272084   0.647   3.908  10.975  0.5993  0.3099 -0.5818
16890TIP3    H172085   0.672   3.987  11.021 -1.0909  1.3018 -1.2752
16890TIP3    H272086   0.652   3.931  10.882  1.7673 -0.9517 -0.8701
16891TIP3   OH272087   2.689   6.073   3.408  0.2204  0.0598 -0.4371
16891TIP3    H172088   2.739   6.114   3.337  3.1844 -0.6156  1.1070
16891TIP3    H272089   2.720   5.983   3.410  0.7117  0.2285  2.0855
16892TIP3   OH272090   1.348   3.207   0.723 -0.1211 -0.1240  0.3236
16892TIP3    H172091   1.361   3.126   0.772 -0.0670  0.8050  1.8950
16892TIP3    H272092   1.261   3.198   0.684 -1.2233  0.0987  2.6007
16893TIP3   OH272093   4.466   5.454  13.772 -0.1406  0.4294  1.0321
16893TIP3    H172094   4.462   5.437  13.866  0.1738 -1.1980  0.7926
16893TIP3    H272095   4.559   5.471  13.755 -0.4738  2.7402  1.2896
16894TIP3   OH272096   2.747   5.091  11.939 -0.0675  0.3488 -0.5572
16894TIP3    H172097   2.804   5.045  11.876  0.4774  1.4333 -0.8867
16894TIP3    H272098   2.711   5.022  11.993  0.7651 -0.4712 -1.0080
16895TIP3   OH272099   1.560   1.083  15.185  0.4523  0.1979 -0.3905
16895TIP3    H172100   1.567   1.178  15.185 -2.6310  0.5487 -1.2672
16895TIP3    H272101   1.589   1.057  15.098  3.5531 -0.0319  0.5894
16896TIP3   OH272102   4.184   4.058  16.822 -0.6688  0.1849 -0.1946
16896TIP3    H172103   4.258   4.002  16.801 -1.0500 -0.4457  0.1308
16896TIP3    H272104   4.111   4.023  16.771 -1.2055 -0.3821  0.9090
16897TIP3   OH272105   2.366   0.998   6.248  0.0244 -0.0637  0.7120
16897TIP3    H172106   2.389   1.044   6.167 -1.0265 -0.3968  0.2038
16897TIP3    H272107   2.361   1.067   6.314 -0.4716  0.4123  0.1909
16898TIP3   OH272108   2.626   6.362  16.241 -0.3195 -0.2948  0.7607
16898TIP3    H172109   2.534   6.353  16.219 -0.2897 -2.2639  1.2042
16898TIP3    H272110   2.650   6.277  16.278  2.1799 -0.5796 -1.2008
16899TIP3   OH272111   4.961   1.300  11.655  0.0986 -0.2733 -0.1534
16899TIP3    H172112   4.870   1.279  11.677 -0.2776 -0.2874 -1.5869
16899TIP3    H272113   4.976   1.256  11.571  1.4184 -0.2360  0.0476
16900TIP3   OH272114   2.833   4.420   4.101  0.4456  0.0618  0.2357
16900TIP3    H172115   2.832   4.428   4.197  0.2199  1.1386  0.1503
16900TIP3    H272116   2.748   4.381   4.080  0.9463 -1.2483  0.5469
16901TIP3   OH272117   4.505   2.322  13.599 -0.5147 -0.2564 -0.0726
16901TIP3    H172118   4.504   2.389  13.667 -1.3343 -0.0254 -0.3066
16901TIP3    H272119   4.458   2.248  13.637 -0.4659 -0.3391 -0.1717
16902TIP3   OH272120   3.724   1.181  13.464  0.3377 -0.1461 -0.1772
16902TIP3    H172121   3.809   1.203  13.428  0.8187 -0.7203  0.5847
16902TIP3    H272122   3.668   1.166  13.388  0.6311  1.2318 -0.7007
16903TIP3   OH272123   4.999   2.888   6.254  0.2931  0.0255 -0.0352
16903TIP3    H172124   4.951   2.805   6.250 -0.5411  0.4478  0.9490
16903TIP3    H272125   5.038   2.889   6.342 -0.4333  1.0681  0.2829
16904TIP3   OH272126   6.562   6.119  16.704 -0.3890 -0.6761 -0.2211
16904TIP3    H172127   6.579   6.203  16.662  0.2795 -2.1393 -3.1710
16904TIP3    H272128   6.490   6.081  16.653 -0.3884 -2.0727  0.7600
16905TIP3   OH272129   4.805   1.748  15.413  0.2152  0.8218 -0.0722
16905TIP3    H172130   4.888   1.731  15.456  0.8598 -0.4601 -1.7316
16905TIP3    H272131   4.793   1.843  15.420  1.1920  0.8751  1.2236
16906TIP3   OH272132   6.334   4.791  12.775  0.0696  0.8174 -0.3236
16906TIP3    H172133   6.402   4.725  12.766 -0.1539  0.7656 -1.9782
16906TIP3    H272134   6.283   4.783  12.694 -1.2656  1.5581  0.4183
16907TIP3   OH272135   5.336   3.519   1.765  0.1945 -0.1725  0.4075
16907TIP3    H172136   5.242   3.527   1.747  0.1321  0.5109  0.9700
16907TIP3    H272137   5.373   3.599   1.729  0.4898 -0.2054  0.6413
16908TIP3   OH272138   5.226   1.524   0.337  0.2391 -0.5138 -0.0153
16908TIP3    H172139   5.135   1.520   0.365  0.0655 -0.0511 -0.4961
16908TIP3    H272140   5.270   1.455   0.387 -0.1560 -0.0466  0.9965
16909TIP3   OH272141   3.718   3.715   4.765 -0.5576 -0.1199 -0.2220
16909TIP3    H172142   3.736   3.621   4.769 -0.3713 -0.0841 -0.2087
16909TIP3    H272143   3.795   3.752   4.720 -0.7897 -0.0198 -0.5383
16910TIP3   OH272144   0.078   0.462   5.389  0.0229 -0.8755 -0.2176
16910TIP3    H172145   0.019   0.393   5.360 -0.3412  0.4960 -3.1389
16910TIP3    H272146   0.148   0.463   5.323 -0.9080  2.5401 -1.3830
16911TIP3   OH272147   2.018   4.688   3.266  0.2937  0.2171 -0.4130
16911TIP3    H172148   1.933   4.682   3.310  0.9816 -0.5803  0.8514
16911TIP3    H272149   2.078   4.716   3.334  0.8746  1.8962 -1.5614
16912TIP3   OH272150   0.370   5.801   1.706  0.3059  0.1723  0.4470
16912TIP3    H172151   0.328   5.727   1.661  0.1839 -0.4275  1.4973
16912TIP3    H272152   0.399   5.859   1.636 -0.9919 -0.1081 -0.3566
16913TIP3   OH272153   3.806   2.130   5.752  0.0529  0.9401 -0.3962
16913TIP3    H172154   3.850   2.147   5.668  0.4525 -0.1321 -0.4208
16913TIP3    H272155   3.739   2.198   5.758  1.7488  2.7007 -0.3123
16914TIP3   OH272156   2.193   2.460  11.530  0.4178  1.0719 -0.3263
16914TIP3    H172157   2.275   2.452  11.577 -0.2087 -0.2584  0.6258
16914TIP3    H272158   2.150   2.537  11.567 -0.2191 -0.1431  1.6149
16915TIP3   OH272159   6.783   4.267  15.968  0.4175 -0.8630  0.3698
16915TIP3    H172160   6.725   4.208  15.918 -0.3583  0.1148  0.0834
16915TIP3    H272161   6.728   4.299  16.040  0.7967 -0.3877  0.4516
16916TIP3   OH272162   4.517   0.777  14.552 -0.5422 -0.6651 -0.2543
16916TIP3    H172163   4.519   0.841  14.624 -4.4239  1.0474 -1.3884
16916TIP3    H272164   4.586   0.807  14.492 -0.5626  0.9552  0.4612
16917TIP3   OH272165   4.185   6.622  14.612  0.0073 -0.0203  0.2116
16917TIP3    H172166   4.136   6.689  14.564  0.8726  1.6319  1.4976
16917TIP3    H272167   4.243   6.583  14.547  0.8215  1.8310 -0.2479
16918TIP3   OH272168   4.188   1.654  12.216  0.3282 -0.0421 -0.2218
16918TIP3    H172169   4.152   1.566  12.226 -0.6613  0.3714 -0.1043
16918TIP3    H272170   4.112   1.710  12.205  0.9281  0.8943  0.3374
16919TIP3   OH272171   4.090   3.953  12.222  0.1704  0.0679 -0.5704
16919TIP3    H172172   4.030   3.999  12.281 -0.0422 -0.3345 -0.4668
16919TIP3    H272173   4.053   3.865  12.215  0.5987 -0.0995 -0.7258
16920TIP3   OH272174   5.582   1.342   4.937  0.0377  0.8648  0.2681
16920TIP3    H172175   5.589   1.295   4.855  0.9938 -0.5143  1.1097
16920TIP3    H272176   5.671   1.341   4.974 -0.7491 -0.3647  2.2740
16921TIP3   OH272177   5.658   5.110  15.420 -0.6056  0.4736 -0.1068
16921TIP3    H172178   5.578   5.151  15.450 -0.6405  0.8832 -0.7291
16921TIP3    H272179   5.721   5.181  15.414 -0.3618  0.2563 -0.1715
16922TIP3   OH272180   3.064   1.121   3.957 -0.1054  0.2551  0.2594
16922TIP3    H172181   3.023   1.036   3.973  1.9648 -0.7353  0.6141
16922TIP3    H272182   3.133   1.103   3.893 -1.9731  2.3945 -2.6089
16923TIP3   OH272183   5.166   2.269  14.677  0.1907 -0.1136 -0.6041
16923TIP3    H172184   5.238   2.216  14.712 -0.6025  0.2361  1.7351
16923TIP3    H272185   5.189   2.359  14.701 -0.2494  0.1951 -1.3063
16924TIP3   OH272186   3.860   5.757   4.775  0.1668 -0.1032 -0.3892
16924TIP3    H172187   3.866   5.850   4.753  1.1242 -0.3279 -1.1570
16924TIP3    H272188   3.822   5.717   4.697  0.3415 -0.4400 -0.3024
16925TIP3   OH272189   3.154   1.792  13.450  0.2974  0.2046 -0.2716
16925TIP3    H172190   3.235   1.784  13.500  0.3959 -1.0920 -0.6255
16925TIP3    H272191   3.173   1.861  13.386  0.2214  1.7788  1.3131
16926TIP3   OH272192   4.293   4.844   1.391  0.0517 -0.6728 -0.2060
16926TIP3    H172193   4.261   4.921   1.437  0.9414 -0.3090 -0.1800
16926TIP3    H272194   4.242   4.772   1.427  0.6933 -0.3997  1.3545
16927TIP3   OH272195   1.717   5.799   3.749  0.0703  0.4508 -0.7403
16927TIP3    H172196   1.630   5.781   3.715  0.0150  0.8097 -0.7920
16927TIP3    H272197   1.719   5.755   3.834  0.2188 -0.4634 -1.2060
16928TIP3   OH272198   4.517   0.937  16.516  0.3286  0.1084  0.6604
16928TIP3    H172199   4.467   0.934  16.598  1.5500 -1.9577  1.4234
16928TIP3    H272200   4.526   1.030  16.497 -2.1332  0.6067  1.4809
16929TIP3   OH272201   4.574   1.854  11.681 -0.5083 -0.0683 -0.2412
16929TIP3    H172202   4.537   1.934  11.644 -0.0479 -0.4116 -1.4927
16929TIP3    H272203   4.666   1.855  11.653  0.0567  0.0018  1.5027
16930TIP3   OH272204   3.252   1.883   2.672  0.0246  0.3762  0.3913
16930TIP3    H172205   3.261   1.977   2.686 -2.5303  1.1188 -2.0332
16930TIP3    H272206   3.273   1.870   2.579 -2.9089 -0.7983 -0.2255
16931TIP3   OH272207   3.448   2.825  15.085  0.1418 -0.0881  0.4395
16931TIP3    H172208   3.518   2.858  15.143  1.5311  0.4093 -1.4303
16931TIP3    H272209   3.419   2.744  15.126  1.0979  0.2265  1.8088
16932TIP3   OH272210   6.727   6.760  15.310 -0.3136 -0.4460  0.9118
16932TIP3    H172211   6.753   6.748  15.401  1.8371 -1.1308  0.2712
16932TIP3    H272212   6.741   6.675  15.269 -0.0541  0.1649 -0.3366
16933TIP3   OH272213   1.840   6.319  13.338 -0.4315  0.2152 -0.5655
16933TIP3    H172214   1.780   6.329  13.412  0.0400  0.1783 -0.1669
16933TIP3    H272215   1.853   6.407  13.304 -0.3429  0.2848 -0.3519
16934TIP3   OH272216   2.933   1.969  15.941  0.0382  0.1472 -0.6270
16934TIP3    H172217   2.846   1.974  15.979  0.0750 -0.1100 -0.5038
16934TIP3    H272218   2.957   2.060  15.923  1.0858  0.5734  2.3895
16935TIP3   OH272219   3.569   5.918  14.595  0.2716 -0.1651  0.1931
16935TIP3    H172220   3.509   5.991  14.577 -0.8032 -0.8716  0.7604
16935TIP3    H272221   3.543   5.887  14.682  1.2571 -0.7014  0.3034
16936TIP3   OH272222   6.215   5.554  12.448  0.2122  0.1313  0.8018
16936TIP3    H172223   6.124   5.557  12.480 -0.1110 -1.4234  0.1066
16936TIP3    H272224   6.234   5.460  12.437  1.6099  0.4668  0.1013
16937TIP3   OH272225   6.639   1.019  11.007  0.3700 -0.3554 -0.1603
16937TIP3    H172226   6.588   1.077  11.064 -1.1080 -1.2018 -0.5661
16937TIP3    H272227   6.575   0.984  10.945  0.9030 -3.3814  0.8242
16938TIP3   OH272228   6.619   3.746   1.595 -0.6955 -0.8720  0.3679
16938TIP3    H172229   6.652   3.672   1.646  2.6911 -1.1401 -1.9112
16938TIP3    H272230   6.695   3.778   1.546 -2.6579  2.3491 -0.9170
16939TIP3   OH272231   0.537   5.353   3.678 -0.3024 -0.2244 -0.3841
16939TIP3    H172232   0.453   5.326   3.642 -0.2111  0.4443 -1.1444
16939TIP3    H272233   0.534   5.449   3.675  0.2155 -0.1802  0.2306
16940TIP3   OH272234   3.043   1.916   4.993 -0.6145 -0.1197  0.3361
16940TIP3    H172235   2.975   1.909   5.060 -2.0435  0.7607 -0.9340
16940TIP3    H272236   2.994   1.935   4.913  1.2040  1.1962 -0.5097
16941TIP3   OH272237   0.970   1.686   3.482 -0.0201 -0.0883 -0.2149
16941TIP3    H172238   0.930   1.760   3.528 -3.6582  0.0245 -3.1417
16941TIP3    H272239   1.009   1.725   3.404 -0.3216 -1.0525 -0.8543
16942TIP3   OH272240   1.668   2.754  10.252  0.3766 -0.3868 -0.1031
16942TIP3    H172241   1.708   2.667  10.252  1.4209  0.0703 -1.2952
16942TIP3    H272242   1.741   2.814  10.236 -0.4106  0.6744  0.1936
16943TIP3   OH272243   5.796   4.596  10.661 -0.1819  0.2626  0.0035
16943TIP3    H172244   5.769   4.686  10.680  0.3000  0.1134  1.5422
16943TIP3    H272245   5.741   4.542  10.718 -0.1674 -0.3850 -0.5908
16944TIP3   OH272246   4.743   6.798  14.849 -0.1056  0.4363 -0.0418
16944TIP3    H172247   4.748   6.884  14.889 -0.4097  0.3891  0.1012
16944TIP3    H272248   4.748   6.736  14.922 -0.3350  0.3439 -0.1006
16945TIP3   OH272249   5.771   0.817   5.239  0.4087  0.2311  0.2540
16945TIP3    H172250   5.770   0.772   5.154  0.6229 -0.4767  0.6143
16945TIP3    H272251   5.842   0.773   5.287  0.8092  1.1468  0.5206
16946TIP3   OH272252   3.970   6.569   3.492 -0.0158 -0.1834 -0.3496
16946TIP3    H172253   3.969   6.663   3.511  0.8092 -0.5312  1.5722
16946TIP3    H272254   4.035   6.560   3.422  3.3738  0.2331  2.5084
16947TIP3   OH272255   3.357   6.346  11.056 -0.4008 -0.0745  0.4342
16947TIP3    H172256   3.383   6.419  11.000  0.2774  0.4646  1.4141
16947TIP3    H272257   3.433   6.331  11.113 -1.5142  0.2801  2.0899
16948TIP3   OH272258   4.578   5.584   4.272 -0.7394  0.4564  0.1479
16948TIP3    H172259   4.619   5.617   4.352  0.2541  0.1305 -0.2129
16948TIP3    H272260   4.485   5.606   4.282 -0.4262  1.5599  0.8127
16949TIP3   OH272261   4.678   5.907   4.483  0.7375 -0.1324 -0.1040
16949TIP3    H172262   4.713   5.984   4.528  0.0964 -0.1749  0.4828
16949TIP3    H272263   4.723   5.833   4.525 -1.2208 -0.3141  1.8563
16950TIP3   OH272264   3.299   6.453  16.421 -0.3864  0.4557  0.5888
16950TIP3    H172265   3.297   6.547  16.439 -1.2883  0.4693  0.4674
16950TIP3    H272266   3.256   6.444  16.336  0.6073  0.0278  0.1139
16951TIP3   OH272267   0.322   1.578  13.320  0.3537  0.3323 -0.1878
16951TIP3    H172268   0.395   1.624  13.362 -0.1350  0.8239  0.1425
16951TIP3    H272269   0.245   1.606  13.370 -0.1630  0.4624 -1.0439
16952TIP3   OH272270   6.148   2.290   3.265 -0.0505  0.7388 -0.1261
16952TIP3    H172271   6.184   2.373   3.233  1.5276 -0.8218 -2.8233
16952TIP3    H272272   6.205   2.266   3.338  0.4775  1.2830 -0.3511
16953TIP3   OH272273   2.607   2.836   4.367 -0.5000 -0.1695 -0.5459
16953TIP3    H172274   2.669   2.848   4.439 -1.0591  0.3251 -0.1254
16953TIP3    H272275   2.619   2.746   4.339 -2.2884 -1.3958  2.1433
16954TIP3   OH272276   4.401   3.860   5.019  0.2472 -0.5955 -0.1335
16954TIP3    H172277   4.322   3.807   5.034  0.2313 -1.7103 -3.2994
16954TIP3    H272278   4.469   3.817   5.070 -0.5396 -1.5699  0.1324
16955TIP3   OH272279   1.312   0.082  13.769 -0.4458  0.1689 -0.5279
16955TIP3    H172280   1.319  -0.010  13.746  2.2531 -0.2547  1.5022
16955TIP3    H272281   1.382   0.125  13.720 -0.1708  0.6996  0.3070
16956TIP3   OH272282   5.052   0.986   4.492  0.1043 -0.3699  0.1047
16956TIP3    H172283   4.972   0.987   4.439  0.4512 -0.7325 -0.4406
16956TIP3    H272284   5.108   1.052   4.452  0.6993 -1.2325 -0.5255
16957TIP3   OH272285   1.896   3.922   1.360 -0.5297 -0.1367  0.3540
16957TIP3    H172286   1.911   3.827   1.359 -1.1397 -0.2345 -0.2451
16957TIP3    H272287   1.836   3.937   1.287  1.1468  0.9618 -0.8780
16958TIP3   OH272288   1.149   6.558   0.121 -0.1359 -0.4243  0.2211
16958TIP3    H172289   1.169   6.492   0.188  0.5895  0.4594  0.9086
16958TIP3    H272290   1.061   6.537   0.092  0.4789 -2.3520 -0.3642
16959TIP3   OH272291   5.963   2.902  16.657  0.3868 -0.0384  0.0631
16959TIP3    H172292   6.042   2.872  16.702  0.6687 -1.9283 -1.5277
16959TIP3    H272293   5.893   2.893  16.722  1.1018 -0.6352  0.7674
16960TIP3   OH272294   2.749   0.947   1.285 -0.4530  0.3095 -0.5502
16960TIP3    H172295   2.813   0.952   1.356 -2.5115 -0.1607  1.4691
16960TIP3    H272296   2.672   0.907   1.325 -2.5492  2.1427 -2.4383
16961TIP3   OH272297   2.627   0.563  13.008  0.0860 -0.5732 -0.1425
16961TIP3    H172298   2.637   0.515  12.926  1.1991  1.9632 -1.6026
16961TIP3    H272299   2.716   0.576  13.040  0.0973  2.2063 -0.9629
16962TIP3   OH272300   5.134   4.715   0.967 -0.2866  0.7106 -0.4674
16962TIP3    H172301   5.176   4.630   0.954  0.3825  0.5670  2.1191
16962TIP3    H272302   5.057   4.712   0.910 -0.3059 -1.6543 -0.4370
16963TIP3   OH272303   2.492   3.502   5.812 -0.3127  0.1602 -0.4677
16963TIP3    H172304   2.487   3.548   5.896 -0.2868 -1.0916  0.2384
16963TIP3    H272305   2.552   3.429   5.827 -0.0960  0.0562 -1.6593
16964TIP3   OH272306   1.428   1.488  15.748 -0.2265 -0.0009 -0.2311
16964TIP3    H172307   1.368   1.540  15.801  1.9928  0.0023  2.5247
16964TIP3    H272308   1.376   1.412  15.720 -1.6095  0.1494  1.7630
16965TIP3   OH272309   1.407   5.744   3.345  0.2142  0.1373  0.0315
16965TIP3    H172310   1.381   5.739   3.437  0.7473 -3.1142  0.1300
16965TIP3    H272311   1.503   5.742   3.346  0.2899  1.7012 -0.6117
16966TIP3   OH272312   5.768   6.721  16.062 -0.6883  0.0964  0.0468
16966TIP3    H172313   5.742   6.673  15.984 -2.9829  1.6527 -0.2202
16966TIP3    H272314   5.809   6.801  16.029 -0.8485  0.3473  0.4467
16967TIP3   OH272315   6.759   0.688   6.114  0.3962 -0.2040  0.5410
16967TIP3    H172316   6.848   0.673   6.080  0.3674 -1.0709  0.8236
16967TIP3    H272317   6.740   0.779   6.092  0.0333 -0.9324 -2.5189
16968TIP3   OH272318   3.128   5.872   5.452 -0.1379 -0.4722 -0.7025
16968TIP3    H172319   3.160   5.962   5.449 -0.8507 -0.2017 -3.1647
16968TIP3    H272320   3.184   5.828   5.515 -0.4967  1.9314  1.4605
16969TIP3   OH272321   0.886   6.156   1.431 -0.4521  0.3383  0.4550
16969TIP3    H172322   0.959   6.213   1.404  0.6119  0.2417  2.8563
16969TIP3    H272323   0.863   6.187   1.519 -1.0329 -1.8046  1.1217
16970TIP3   OH272324   5.475   5.816   6.384  0.5801 -0.1956  0.0187
16970TIP3    H172325   5.388   5.855   6.375  0.4803  0.1178  1.9736
16970TIP3    H272326   5.512   5.858   6.461  0.5109 -3.8251  2.2554
16971TIP3   OH272327   1.119   0.955   3.972 -0.2719 -0.4782  0.2957
16971TIP3    H172328   1.192   1.000   3.928 -0.9539 -0.3491 -0.7348
16971TIP3    H272329   1.097   1.012   4.046  0.5805 -0.4498  0.5359
16972TIP3   OH272330   2.766   4.745  11.857  0.3288  0.3036  0.1341
16972TIP3    H172331   2.850   4.790  11.856  1.1034 -1.0514  0.8840
16972TIP3    H272332   2.712   4.793  11.793  1.3748  1.7025  0.2480
16973TIP3   OH272333   4.179   1.197   0.299  0.2716  0.4851 -0.5302
16973TIP3    H172334   4.264   1.201   0.343  0.3193  0.9528 -0.6618
16973TIP3    H272335   4.154   1.288   0.286 -0.5888  0.3594  0.1579
16974TIP3   OH272336   6.654   2.995  16.776 -0.5259 -0.0959  0.1812
16974TIP3    H172337   6.665   2.928  16.843  0.4814 -0.9812 -0.8429
16974TIP3    H272338   6.569   2.976  16.736 -1.2456  0.5870  1.3408
16975TIP3   OH272339   5.373   2.773   2.059 -0.1793  0.5015  0.4180
16975TIP3    H172340   5.404   2.687   2.086  1.0664  1.2528  1.5647
16975TIP3    H272341   5.310   2.798   2.126 -1.0740  0.2037 -0.2995
16976TIP3   OH272342   2.847   5.385   0.705 -0.6317  0.5425  0.4412
16976TIP3    H172343   2.857   5.297   0.670  0.3236  0.4133  0.9915
16976TIP3    H272344   2.811   5.373   0.793 -1.0628  0.7405  0.2949
16977TIP3   OH272345   0.899   0.222   1.663  0.9885  0.2621 -0.2232
16977TIP3    H172346   0.892   0.126   1.669 -3.9141  0.3347 -0.8210
16977TIP3    H272347   0.970   0.236   1.600  1.4127 -2.9640 -0.6696
16978TIP3   OH272348   5.969   6.652  14.389  0.2296  0.1957 -0.6740
16978TIP3    H172349   5.945   6.687  14.303  2.1808 -0.3226 -1.4928
16978TIP3    H272350   6.007   6.727  14.434  2.4326 -0.2716 -1.6278
16979TIP3   OH272351   2.567   3.205  16.211 -0.6704 -0.0832 -0.5695
16979TIP3    H172352   2.481   3.207  16.169 -1.9225 -0.2394  1.8017
16979TIP3    H272353   2.623   3.258  16.154 -1.9781 -0.9660 -2.8134
16980TIP3   OH272354   0.571   2.275  11.061 -0.3818 -0.5674 -0.4669
16980TIP3    H172355   0.481   2.251  11.037 -0.5305 -1.5730  0.9892
16980TIP3    H272356   0.566   2.298  11.153  1.0317 -1.7024 -0.0782
16981TIP3   OH272357   3.833   0.415   5.509  0.6927 -0.3809  0.0190
16981TIP3    H172358   3.855   0.437   5.599 -1.1410 -0.6976  0.5808
16981TIP3    H272359   3.769   0.481   5.483  1.6426  0.0772 -1.3007
16982TIP3   OH272360   4.154   5.454   5.338  0.2430 -0.0016 -0.8551
16982TIP3    H172361   4.073   5.505   5.335  1.0593  1.3659 -0.4204
16982TIP3    H272362   4.220   5.510   5.297  1.4109 -0.2142  0.6396
16983TIP3   OH272363   3.770   1.323   0.262  0.5794  0.5471 -0.1870
16983TIP3    H172364   3.735   1.383   0.328  0.3136 -1.1143  1.2601
16983TIP3    H272365   3.697   1.307   0.202  0.4087  0.9973 -0.1036
16984TIP3   OH272366   1.674   6.517  13.478 -0.6047  0.0356 -0.4514
16984TIP3    H172367   1.625   6.508  13.560 -2.5422 -3.9214 -1.7942
16984TIP3    H272368   1.606   6.531  13.411  0.5183 -0.7901 -1.8163
16985TIP3   OH272369   1.659   0.136   0.720 -0.5020  0.4101  0.2803
16985TIP3    H172370   1.651   0.046   0.751 -0.0219  0.2788  0.0304
16985TIP3    H272371   1.636   0.190   0.796  1.6557  0.1222  1.2059
16986TIP3   OH272372   4.870   0.999  11.511 -0.2019 -0.3081  0.0771
16986TIP3    H172373   4.953   0.983  11.555  0.1204  0.3768 -0.2572
16986TIP3    H272374   4.890   1.065  11.444 -0.9487 -0.3524 -0.2085
16987TIP3   OH272375   5.316   5.138   2.477 -0.2408 -0.0222 -0.0104
16987TIP3    H172376   5.267   5.121   2.397  0.9541 -2.9471 -0.2478
16987TIP3    H272377   5.353   5.226   2.465 -1.7090  0.4125 -1.7428
16988TIP3   OH272378   1.767   6.102   0.130  0.0466  0.1127 -0.1614
16988TIP3    H172379   1.831   6.032   0.121  0.1918  0.2686 -0.3592
16988TIP3    H272380   1.800   6.157   0.200  0.2950  0.3656 -0.4713
16989TIP3   OH272381   2.815   4.478  16.085  0.3962 -0.0027  0.5474
16989TIP3    H172382   2.849   4.555  16.129 -0.6337  0.5065  0.4645
16989TIP3    H272383   2.771   4.512  16.007 -0.3411 -0.6463  0.6771
16990TIP3   OH272384   1.755   2.796  16.004  0.0584 -0.1824  0.1938
16990TIP3    H172385   1.767   2.829  16.093 -0.3439  1.0914 -0.1921
16990TIP3    H272386   1.763   2.874  15.949  0.4246 -0.9628 -0.9020
16991TIP3   OH272387   6.486   4.555   4.347  0.1281 -0.4246 -0.2255
16991TIP3    H172388   6.394   4.575   4.331 -0.4807 -3.0871 -0.4942
16991TIP3    H272389   6.526   4.554   4.260  0.2522 -0.0374 -0.1762
16992TIP3   OH272390   6.781   3.671   4.754  0.2673 -0.0461 -0.1498
16992TIP3    H172391   6.842   3.721   4.808 -0.1303  0.6630 -0.3459
16992TIP3    H272392   6.836   3.632   4.686  0.7382 -0.7726  0.6323
16993TIP3   OH272393   5.770   0.076  16.720 -0.1053  0.2636 -0.6965
16993TIP3    H172394   5.694   0.021  16.700  0.3995  0.0753 -2.1968
16993TIP3    H272395   5.731   0.158  16.751 -0.8989 -0.2572 -0.2732
16994TIP3   OH272396   3.697   1.774  17.022  0.4239 -0.4655 -0.7947
16994TIP3    H172397   3.601   1.767  17.023  0.4606 -1.0534 -0.8957
16994TIP3    H272398   3.720   1.774  16.929  0.6104 -1.9094 -0.7819
16995TIP3   OH272399   1.539   3.763  13.210  0.1120  0.4423  0.1569
16995TIP3    H172400   1.592   3.714  13.146  1.4068  0.7222  0.9725
16995TIP3    H272401   1.451   3.762  13.173  0.4258 -1.0887 -0.6677
16996TIP3   OH272402   3.684   0.653  16.492  0.3737 -0.1865 -0.3408
16996TIP3    H172403   3.618   0.640  16.424 -0.4609  1.1031  0.2058
16996TIP3    H272404   3.682   0.572  16.543 -0.4913 -0.3193 -0.5753
16997TIP3   OH272405   3.087   5.038  13.802  0.2919 -0.0019 -0.1129
16997TIP3    H172406   3.174   5.061  13.834  0.6270 -0.6845 -0.5060
16997TIP3    H272407   3.101   5.008  13.712 -0.4363  0.4607 -0.3934
16998TIP3   OH272408   2.264   4.682  16.607  0.0142 -0.2380  0.2922
16998TIP3    H172409   2.211   4.607  16.635 -1.8656  1.5496  1.8597
16998TIP3    H272410   2.213   4.758  16.635  2.3651  1.6302 -0.2601
16999TIP3   OH272411   4.282   4.994  14.333 -0.0878  0.2350 -0.4004
16999TIP3    H172412   4.206   5.051  14.346  0.0421  0.3790 -0.2717
16999TIP3    H272413   4.298   4.995  14.239 -2.3515 -2.4716 -0.9565
17000TIP3   OH272414   5.732   6.021  12.826 -0.1747  0.6454  0.3057
17000TIP3    H172415   5.673   6.078  12.876 -1.5428 -0.3457 -0.0902
17000TIP3    H272416   5.707   6.036  12.735  0.7495  0.7800  0.0652
17001TIP3   OH272417   6.380   1.720   5.013 -0.4586  0.5926  0.0555
17001TIP3    H172418   6.374   1.808   5.050 -0.1501  0.4171  0.5231
17001TIP3    H272419   6.325   1.724   4.935  0.7641  1.6470 -0.8024
17002TIP3   OH272420   4.481   0.514   2.354 -0.4332 -0.5516 -0.7124
17002TIP3    H172421   4.416   0.553   2.296 -0.5452 -1.2054 -1.0380
17002TIP3    H272422   4.480   0.570   2.432 -1.6284 -0.7388 -0.5702
17003TIP3   OH272423   3.660   0.777   0.005  0.0201 -0.5189 -0.1717
17003TIP3    H172424   3.725   0.775  -0.065  0.0812  0.9518 -0.1838
17003TIP3    H272425   3.711   0.769   0.086  0.1588  0.0276 -0.2054
17004TIP3   OH272426   5.714   2.230  16.159 -0.6607 -0.0381 -0.0373
17004TIP3    H172427   5.625   2.252  16.132 -0.8971  0.0277  0.7631
17004TIP3    H272428   5.724   2.138  16.138 -0.7510  0.0714 -0.5643
17005TIP3   OH272429   2.831   3.797  12.801 -0.4909 -0.1113 -0.0253
17005TIP3    H172430   2.802   3.883  12.771  0.1726  0.6033  1.2735
17005TIP3    H272431   2.915   3.783  12.758 -0.1606  0.3129  0.4819
17006TIP3   OH272432   3.558   4.095  11.842 -0.2510 -0.1150  0.0361
17006TIP3    H172433   3.547   4.010  11.884 -1.9519  0.0247 -0.0476
17006TIP3    H272434   3.479   4.143  11.865 -0.3917  0.6189 -1.8317
17007TIP3   OH272435   6.039   3.203   1.596 -0.5073  0.0076 -0.1323
17007TIP3    H172436   5.971   3.196   1.663  1.6390 -0.7612  2.1436
17007TIP3    H272437   6.035   3.295   1.568 -1.1111  0.5160  1.4924
17008TIP3   OH272438   2.174   5.425  15.207  0.2975 -0.2059  0.5071
17008TIP3    H172439   2.149   5.403  15.117 -0.3947 -0.5190  0.7671
17008TIP3    H272440   2.188   5.340  15.249  0.8732 -0.0561  0.6333
17009TIP3   OH272441   5.207   5.529  13.323  0.0908  0.3298  0.3921
17009TIP3    H172442   5.269   5.457  13.314  0.3955  0.6385 -0.0066
17009TIP3    H272443   5.173   5.544  13.235 -1.8764 -0.9806  0.8782
17010TIP3   OH272444   4.322   1.144   0.652 -0.0566  0.5244  0.4652
17010TIP3    H172445   4.241   1.183   0.685  0.1387  1.5255 -0.1906
17010TIP3    H272446   4.391   1.204   0.680  0.3714  0.0874  0.3528
17011TIP3   OH272447   2.727   4.028  12.716 -0.1925  0.0420 -0.5873
17011TIP3    H172448   2.638   3.998  12.696 -0.6436  1.1866 -0.4058
17011TIP3    H272449   2.756   4.071  12.635  0.4484 -0.8733 -0.8542
17012TIP3   OH272450   6.736   3.561   1.753  0.0144  0.1030 -0.1911
17012TIP3    H172451   6.817   3.523   1.721  0.3896 -1.1323  2.0256
17012TIP3    H272452   6.672   3.490   1.751 -1.1148  1.0810 -2.0030
17013TIP3   OH272453   6.714   1.563   3.091  0.7984  0.6101  0.3519
17013TIP3    H172454   6.772   1.599   3.158  1.3838  0.8383 -0.2662
17013TIP3    H272455   6.743   1.604   3.010  1.1664 -0.8672 -0.2978
17014TIP3   OH272456   1.316   2.509  12.724 -0.3097 -0.2113  0.3011
17014TIP3    H172457   1.235   2.542  12.762 -1.4744 -1.1260 -1.2428
17014TIP3    H272458   1.324   2.420  12.758 -1.1828 -0.9159 -1.2306
17015TIP3   OH272459   4.254   1.758  16.775  0.5941 -0.0664  0.0586
17015TIP3    H172460   4.243   1.697  16.702  0.5156  0.3345 -0.2668
17015TIP3    H272461   4.288   1.838  16.736 -1.9362  1.1079  0.0101
17016TIP3   OH272462   0.166   3.446   3.144 -0.4177  0.2423  0.3626
17016TIP3    H172463   0.196   3.483   3.061  0.3507  1.8825  1.3437
17016TIP3    H272464   0.072   3.466   3.146 -0.1766  1.4008  0.4874
17017TIP3   OH272465   2.833   3.834  14.728 -0.6636  0.2442  0.4903
17017TIP3    H172466   2.739   3.824  14.742 -0.4928 -1.9576  0.3971
17017TIP3    H272467   2.869   3.746  14.740  1.4192  1.0610  0.6749
17018TIP3   OH272468   1.352   2.675  12.497 -0.3214 -0.3052 -0.1971
17018TIP3    H172469   1.341   2.610  12.566  0.6792 -1.5064 -1.1022
17018TIP3    H272470   1.447   2.686  12.489 -0.4488  3.0232  1.4476
17019TIP3   OH272471   5.715   0.453  17.033  0.3400 -0.2492  0.5976
17019TIP3    H172472   5.672   0.409  17.105  1.0014 -1.0499  0.5100
17019TIP3    H272473   5.650   0.517  17.002  0.0777  0.1757  1.9353
17020TIP3   OH272474   0.693   2.936   0.091  0.1971 -0.1751  0.6239
17020TIP3    H172475   0.692   2.967  -0.000 -1.6900 -1.4538  0.1350
17020TIP3    H272476   0.784   2.912   0.108  0.7288  0.8365 -0.6614
17021TIP3   OH272477   3.153   6.493  11.624 -0.8114  0.1509 -0.3504
17021TIP3    H172478   3.133   6.520  11.714  0.6983 -2.7421  0.9970
17021TIP3    H272479   3.074   6.449  11.594 -1.6683  1.9665 -0.8693
17022TIP3   OH272480   3.929   1.661  12.866 -0.0462 -0.2280 -0.2872
17022TIP3    H172481   3.895   1.665  12.777  0.3780  0.7339 -0.4147
17022TIP3    H272482   3.862   1.703  12.920  0.3791  0.5603 -0.3675
17023TIP3   OH272483   3.094   0.827   1.163 -0.0227  0.6526 -0.3840
17023TIP3    H172484   3.061   0.750   1.208  0.5022  0.3773 -0.4571
17023TIP3    H272485   3.084   0.899   1.225  0.5952  0.2974  0.1347
17024TIP3   OH272486   1.965   4.698  10.565  0.2304 -0.2305 -0.2388
17024TIP3    H172487   1.965   4.792  10.585  0.0308  0.3054 -2.4738
17024TIP3    H272488   2.021   4.691  10.487  1.3064 -2.1725  0.6417
17025TIP3   OH272489   3.177   1.783  13.945 -0.2918  0.1352  0.0050
17025TIP3    H172490   3.197   1.837  13.869 -0.5932  0.9244  0.4705
17025TIP3    H272491   3.241   1.811  14.011 -1.2089  0.7904  0.6364
17026TIP3   OH272492   5.771   1.289   2.836 -0.1705  0.3553 -0.0639
17026TIP3    H172493   5.716   1.276   2.758  0.4899 -0.7390 -0.3669
17026TIP3    H272494   5.718   1.255   2.908 -0.3583  0.3775 -0.1879
17027TIP3   OH272495   0.232   3.665   1.277  0.2182 -0.1552  0.6063
17027TIP3    H172496   0.325   3.673   1.298  0.7191 -0.4805 -1.2382
17027TIP3    H272497   0.226   3.692   1.185 -1.7909  1.4222  1.1278
17028TIP3   OH272498   3.177   1.439   4.500  0.0350 -0.2261  0.5830
17028TIP3    H172499   3.260   1.457   4.546  0.4647 -1.3680  0.3002
17028TIP3    H272500   3.122   1.397   4.567  0.6894 -1.9643  0.1067
17029TIP3   OH272501   1.306   5.310   3.589  0.0250 -0.2469 -0.2236
17029TIP3    H172502   1.362   5.346   3.658  0.1852 -0.1617 -0.3973
17029TIP3    H272503   1.322   5.367   3.514 -0.9688  0.3374 -0.0183
17030TIP3   OH272504   3.901   5.884  15.103  1.0954 -0.2627 -0.1676
17030TIP3    H172505   3.901   5.961  15.046  1.5670 -1.2903 -1.6374
17030TIP3    H272506   3.814   5.883  15.143  1.4307  1.5791  0.7033
17031TIP3   OH272507   2.812   0.431   4.706 -0.2884 -0.1656 -0.1450
17031TIP3    H172508   2.859   0.361   4.751  0.5893  0.5387  0.0774
17031TIP3    H272509   2.846   0.512   4.745  0.5381  0.4727 -2.0515
17032TIP3   OH272510   4.197   1.827  15.267 -0.6508 -0.2014  0.5864
17032TIP3    H172511   4.144   1.784  15.200 -0.3204 -1.2686  0.9904
17032TIP3    H272512   4.194   1.767  15.342 -0.5059  0.6775  1.3116
17033TIP3   OH272513   3.904   5.537   1.386  0.7113 -0.4771 -0.0114
17033TIP3    H172514   3.941   5.603   1.445  0.4621  0.1445 -0.5415
17033TIP3    H272515   3.953   5.548   1.304 -0.2118 -0.0537 -0.5265
17034TIP3   OH272516   1.880   1.315  15.971  0.7277 -0.1742 -0.1232
17034TIP3    H172517   1.876   1.259  16.049 -0.2539 -0.3135 -0.2606
17034TIP3    H272518   1.858   1.256  15.898 -0.2135  0.3502 -0.2824
17035TIP3   OH272519   6.686   6.716   1.899 -0.0819  0.2552 -0.5328
17035TIP3    H172520   6.710   6.808   1.891 -1.4135  0.6242 -0.6217
17035TIP3    H272521   6.651   6.708   1.988 -1.6489  0.2753 -1.1208
17036TIP3   OH272522   1.314   1.339  12.795  0.3169  0.0468  0.2737
17036TIP3    H172523   1.407   1.321  12.801 -0.2003 -3.1544  0.7827
17036TIP3    H272524   1.287   1.361  12.884  0.3847 -0.3167  0.3846
17037TIP3   OH272525   2.421   6.030   6.433  0.0196  0.5089 -0.2416
17037TIP3    H172526   2.345   6.080   6.463 -0.2906 -0.0899 -0.0094
17037TIP3    H272527   2.391   5.938   6.434  0.5423  0.3262 -0.7555
17038TIP3   OH272528   3.885   3.156  14.580  0.4706  0.1600 -0.1667
17038TIP3    H172529   3.970   3.172  14.622  0.5316 -1.0116  0.1971
17038TIP3    H272530   3.906   3.146  14.487  0.5440  1.1763 -0.2724
17039TIP3   OH272531   5.938   6.301  11.845  0.0499 -0.6489  0.2324
17039TIP3    H172532   5.924   6.283  11.753 -0.5853  2.0744 -0.2913
17039TIP3    H272533   5.995   6.377  11.847  0.4487 -0.9316  2.1111
17040TIP3   OH272534   5.133   1.978   3.033 -0.1920  0.6778 -0.5231
17040TIP3    H172535   5.119   1.885   3.014  2.1110  0.1831 -0.1214
17040TIP3    H272536   5.081   1.995   3.111  0.0191 -0.5143 -0.1063
17041TIP3   OH272537   0.665   0.918  13.139  0.0114 -0.2523 -0.7727
17041TIP3    H172538   0.594   0.902  13.077  0.4405 -0.3773 -1.2376
17041TIP3    H272539   0.625   0.903  13.225 -0.7298  0.4357 -0.9748
17042TIP3   OH272540   0.595   4.360  16.654  0.7641 -0.1135 -0.0076
17042TIP3    H172541   0.666   4.392  16.710 -1.5932  1.6179  2.2439
17042TIP3    H272542   0.579   4.270  16.683  1.4095 -0.1862  0.1273
17043TIP3   OH272543   4.335   3.411   5.640 -0.2576  0.6942 -0.3463
17043TIP3    H172544   4.256   3.381   5.595  0.2394 -0.6210 -0.3696
17043TIP3    H272545   4.406   3.390   5.580  0.4501 -1.2998  1.0720
17044TIP3   OH272546   1.381   5.661   5.012 -0.8230  0.5157  0.0948
17044TIP3    H172547   1.302   5.645   5.065  0.4082 -1.2371  1.5269
17044TIP3    H272548   1.448   5.606   5.052  1.0154  1.5444 -1.4210
17045TIP3   OH272549   5.329   0.370  11.436 -0.0863  0.1630 -0.3599
17045TIP3    H172550   5.236   0.370  11.455 -0.2463 -0.5335 -1.1010
17045TIP3    H272551   5.359   0.457  11.463 -0.7140 -0.0085  0.9356
17046TIP3   OH272552   3.402   0.934   3.139  0.3084 -0.0532  0.0894
17046TIP3    H172553   3.382   1.012   3.192  1.5936  1.3277 -1.3528
17046TIP3    H272554   3.478   0.960   3.087  1.1247 -2.4856 -0.0564
17047TIP3   OH272555   2.174   0.846  13.595  0.5766  0.6390  0.9742
17047TIP3    H172556   2.194   0.912  13.661  0.7203  1.2952  0.2823
17047TIP3    H272557   2.231   0.867  13.521  0.2783  0.0358  0.5611
17048TIP3   OH272558   4.962   5.014   0.047 -0.4542 -0.1385  0.2841
17048TIP3    H172559   4.919   5.073  -0.016  1.5168  0.3931 -0.6442
17048TIP3    H272560   4.951   4.927   0.010  0.7352  0.1751 -0.8808
17049TIP3   OH272561   0.618   1.595  16.904 -0.3944  0.3511 -0.6896
17049TIP3    H172562   0.569   1.515  16.919 -1.1566  0.7777 -0.8530
17049TIP3    H272563   0.709   1.572  16.924 -0.5693 -0.6092 -0.9472
17050TIP3   OH272564   4.479   0.999  15.848 -0.2566 -0.3981  0.0231
17050TIP3    H172565   4.529   1.075  15.819  0.2191 -1.7225 -2.9358
17050TIP3    H272566   4.542   0.946  15.896  0.7037 -1.0061 -1.8029
17051TIP3   OH272567   0.279   5.828  14.449  0.3696  0.1489  0.2644
17051TIP3    H172568   0.251   5.842  14.540  0.3137  0.9226  0.1358
17051TIP3    H272569   0.262   5.912  14.406 -0.6520 -0.5662 -0.7414
17052TIP3   OH272570   0.752   1.229   3.995  0.1660 -0.0902  0.3592
17052TIP3    H172571   0.680   1.181   3.953 -0.7670  0.0213  1.7477
17052TIP3    H272572   0.830   1.201   3.947 -0.5988 -1.4754 -0.1628
17053TIP3   OH272573   5.327   0.559  12.720  0.3893 -0.3507  0.0371
17053TIP3    H172574   5.376   0.479  12.701  0.5780 -1.0864  3.1713
17053TIP3    H272575   5.313   0.557  12.814 -1.0541  2.5277 -0.0157
17054TIP3   OH272576   4.352   3.701  11.385 -0.4071 -0.2367 -0.1568
17054TIP3    H172577   4.380   3.788  11.414 -2.1845 -0.4305  2.4824
17054TIP3    H272578   4.304   3.717  11.304 -1.4839  1.4018  0.7548
17055TIP3   OH272579   4.462   2.507  16.869 -0.1798 -0.4319 -0.1612
17055TIP3    H172580   4.510   2.424  16.876  1.1466  0.4047  1.4926
17055TIP3    H272581   4.431   2.524  16.958 -1.8273  0.0803 -0.8059
17056TIP3   OH272582   0.845   1.216   5.469 -0.3972  0.2416 -0.5711
17056TIP3    H172583   0.844   1.294   5.525  0.0430  0.6748 -1.1437
17056TIP3    H272584   0.765   1.223   5.418  0.1718  0.9297 -1.4082
17057TIP3   OH272585   6.216   3.432  14.223  0.3841  0.0575 -0.0187
17057TIP3    H172586   6.173   3.474  14.297 -1.2559 -1.9770  0.2571
17057TIP3    H272587   6.308   3.426  14.249 -0.0744 -0.1886  1.6506
17058TIP3   OH272588   5.085   4.629   0.047  0.4320  0.0356  0.5247
17058TIP3    H172589   5.125   4.556   0.000 -0.0181  0.2001 -0.1457
17058TIP3    H272590   5.013   4.657  -0.011  0.9091  1.3258  0.5228
17059TIP3   OH272591   0.782   6.063   3.436 -0.0328 -0.0386  0.0654
17059TIP3    H172592   0.868   6.029   3.411 -0.1835 -0.2399 -0.1882
17059TIP3    H272593   0.741   5.990   3.483 -0.2613 -0.1211 -0.2616
17060TIP3   OH272594   4.292   6.743   6.369 -0.1165  0.4436  0.2811
17060TIP3    H172595   4.313   6.687   6.294 -2.3385 -1.5979  1.0550
17060TIP3    H272596   4.303   6.833   6.336 -1.2523 -0.3718 -2.5775
17061TIP3   OH272597   4.448   0.939   0.305  0.2798 -0.1545 -0.5730
17061TIP3    H172598   4.539   0.932   0.334 -0.3665  0.2462  1.8162
17061TIP3    H272599   4.418   0.848   0.298 -0.0956 -0.3685  2.3231
17062TIP3   OH272600   0.810   1.111  15.626  0.0297  0.0353  0.1996
17062TIP3    H172601   0.806   1.207  15.628 -0.4190  0.0182  0.2244
17062TIP3    H272602   0.769   1.087  15.543  1.1163 -0.0964 -0.3152
17063TIP3   OH272603   1.708   2.474   2.042  0.0630 -0.7248  0.0211
17063TIP3    H172604   1.734   2.460   1.951 -2.3327 -0.4379 -0.7732
17063TIP3    H272605   1.631   2.419   2.053  0.0970 -0.4618  1.7877
17064TIP3   OH272606   4.399   6.471   0.311 -0.3519  0.4193  0.0588
17064TIP3    H172607   4.392   6.385   0.352  1.2566 -0.0990 -0.6742
17064TIP3    H272608   4.355   6.461   0.226  0.7090 -0.0129 -0.4630
17065TIP3   OH272609   3.858   1.319   2.727  0.1509 -0.7227 -0.3081
17065TIP3    H172610   3.833   1.251   2.790 -1.5586 -0.5246 -0.7197
17065TIP3    H272611   3.953   1.327   2.737 -0.0010 -0.9803  1.9503
17066TIP3   OH272612   2.768   5.169   2.136  0.1154 -0.1946 -0.0569
17066TIP3    H172613   2.712   5.094   2.114  1.0666 -1.3208  1.2130
17066TIP3    H272614   2.709   5.231   2.179 -0.5756 -0.4484 -0.6198
17067TIP3   OH272615   5.806   0.797  13.942 -0.1659 -0.4588 -0.0109
17067TIP3    H172616   5.844   0.719  13.904 -1.0267 -0.8372 -0.1124
17067TIP3    H272617   5.814   0.864  13.874 -0.7190 -0.8421 -0.4581
17068TIP3   OH272618   4.845   4.327   5.044 -0.4665  0.3490  0.6770
17068TIP3    H172619   4.801   4.243   5.036 -0.5959  0.4741  0.0877
17068TIP3    H272620   4.835   4.369   4.959  2.6300 -0.5107 -0.2661
17069TIP3   OH272621   2.670   1.602  13.959 -0.0345  0.2785 -0.2019
17069TIP3    H172622   2.740   1.625  13.898  2.0653 -2.0685  1.1333
17069TIP3    H272623   2.603   1.668  13.944  1.9622  2.0062 -2.3638
17070TIP3   OH272624   5.141   3.970  12.651 -0.3284 -0.0457 -0.5204
17070TIP3    H172625   5.191   4.047  12.624 -0.1561  0.2150  0.5002
17070TIP3    H272626   5.167   3.955  12.742 -2.5353  0.4794  0.2760
17071TIP3   OH272627   0.439   0.136  16.743 -0.5500  0.3505 -0.1730
17071TIP3    H172628   0.493   0.058  16.752 -0.0183  0.2733 -3.2210
17071TIP3    H272629   0.391   0.141  16.826  0.8557 -2.0527  0.8897
17072TIP3   OH272630   5.339   1.337   5.935 -0.4290  0.5005 -0.0945
17072TIP3    H172631   5.309   1.255   5.973  0.6238  1.4576  3.0588
17072TIP3    H272632   5.434   1.329   5.932 -0.3288  1.4996  0.0062
17073TIP3   OH272633   6.526   1.293  12.505 -0.2467 -0.9829 -0.1095
17073TIP3    H172634   6.482   1.226  12.453  2.3250 -2.8082 -0.1041
17073TIP3    H272635   6.568   1.245  12.576  1.8588  0.5746 -0.2021
17074TIP3   OH272636   2.656   2.384  10.646 -0.0751  0.1224  0.7345
17074TIP3    H172637   2.598   2.424  10.580 -0.5971 -0.8787  0.5636
17074TIP3    H272638   2.743   2.388  10.607  0.4089  3.5311  1.8401
17075TIP3   OH272639   2.670   1.558   1.766 -0.5344 -0.0998  0.3658
17075TIP3    H172640   2.704   1.477   1.803  1.8716  1.1100  1.0269
17075TIP3    H272641   2.683   1.549   1.672 -1.3913 -0.9214  0.3106
17076TIP3   OH272642   4.644   0.939  11.657 -0.3877  0.5115  0.7786
17076TIP3    H172643   4.684   0.923  11.572 -1.1429  1.4239  0.2285
17076TIP3    H272644   4.715   0.928  11.720  0.0999 -0.5278  0.0677
17077TIP3   OH272645   3.570   6.318  14.510 -0.0210  0.0347 -0.0639
17077TIP3    H172646   3.619   6.375  14.569  3.3070 -1.8200 -0.8260
17077TIP3    H272647   3.492   6.294  14.561  0.4070  2.1015  1.7421
17078TIP3   OH272648   4.661   2.745  14.246 -0.3868  0.4198  0.1646
17078TIP3    H172649   4.733   2.765  14.186  1.0768 -0.6924  1.4907
17078TIP3    H272650   4.606   2.684  14.197  1.2374 -1.1411  0.1846
17079TIP3   OH272651   2.405   4.412  16.786  0.3848  0.3790 -0.2198
17079TIP3    H172652   2.309   4.406  16.790  0.0400  1.4450 -3.7213
17079TIP3    H272653   2.426   4.490  16.837 -1.0320  2.0700 -2.0629
17080TIP3   OH272654   2.547   6.700  15.254  0.2144  0.1369  0.8886
17080TIP3    H172655   2.605   6.637  15.210  0.8200  0.6252  0.9799
17080TIP3    H272656   2.606   6.755  15.305 -0.3712  0.4036  1.2808
17081TIP3   OH272657   1.342   4.613  12.262 -0.1955  0.2306 -0.0509
17081TIP3    H172658   1.345   4.562  12.344  3.0702  0.4327  0.0807
17081TIP3    H272659   1.292   4.558  12.202 -1.9579 -0.3081  1.8002
17082TIP3   OH272660   6.391   5.928   1.475 -0.1945 -0.0172  0.4155
17082TIP3    H172661   6.466   5.883   1.437  1.0788  1.7471  0.7058
17082TIP3    H272662   6.318   5.867   1.465  0.9663 -1.2212 -1.1535
17083TIP3   OH272663   2.794   1.027   0.725 -0.4677  0.4917  0.2876
17083TIP3    H172664   2.809   1.018   0.819  1.7236  1.1962  0.0517
17083TIP3    H272665   2.741   1.107   0.716  2.4626  2.6602  0.7886
17084TIP3   OH272666   0.368   2.228   2.264 -0.1948  0.3827  0.3311
17084TIP3    H172667   0.435   2.236   2.196 -1.3366  1.3388 -0.7292
17084TIP3    H272668   0.328   2.315   2.268 -2.0922 -0.4388  0.1591
17085TIP3   OH272669   2.380   0.537   3.746  0.4104  0.0180 -0.0397
17085TIP3    H172670   2.434   0.608   3.712 -0.8997  0.7820 -0.5884
17085TIP3    H272671   2.383   0.547   3.841 -0.7839  1.6042 -0.1467
17086TIP3   OH272672   6.512   5.014   4.460  0.5855  0.3385 -0.1386
17086TIP3    H172673   6.595   5.044   4.497  2.0529 -1.9548 -1.3485
17086TIP3    H272674   6.506   4.922   4.486 -1.8862  0.6038  0.3953
17087TIP3   OH272675   4.739   2.877  16.790 -0.4710  0.2384  0.8955
17087TIP3    H172676   4.787   2.871  16.708  1.9365 -1.3722  2.2701
17087TIP3    H272677   4.648   2.892  16.765  0.1915 -0.0956 -2.0131
17088TIP3   OH272678   1.054   5.090  17.038  0.2590 -0.1157 -0.3538
17088TIP3    H172679   1.013   5.026  16.980 -1.4016  1.3427 -0.8666
17088TIP3    H272680   1.141   5.104  17.002  0.5435 -1.8065 -0.4144
17089TIP3   OH272681   5.223   6.341  11.489  0.6410 -0.0948  0.6772
17089TIP3    H172682   5.233   6.427  11.531  0.5930 -0.5572  1.6773
17089TIP3    H272683   5.282   6.284  11.538  1.2318 -0.4820 -0.4558
17090TIP3   OH272684   1.846   2.669   5.645  0.2893  0.0749  0.5352
17090TIP3    H172685   1.939   2.647   5.644  0.3753  0.3741  1.2153
17090TIP3    H272686   1.829   2.696   5.736 -0.1370  1.4036  0.0781
17091TIP3   OH272687   5.696   3.466  16.521  0.0714  0.0611 -0.1001
17091TIP3    H172688   5.717   3.478  16.428 -1.4466 -1.0822 -0.6215
17091TIP3    H272689   5.616   3.414  16.521 -0.6031  1.0120  1.8477
17092TIP3   OH272690   0.793   3.499  13.302 -0.0565  0.4883 -0.0776
17092TIP3    H172691   0.829   3.580  13.338 -0.0562  1.0537 -1.2967
17092TIP3    H272692   0.870   3.447  13.280 -0.0596 -0.1271  1.2693
17093TIP3   OH272693   4.804   6.707  16.237 -0.2621 -0.5173  0.3402
17093TIP3    H172694   4.847   6.701  16.323 -0.7685 -1.5898  0.5302
17093TIP3    H272695   4.797   6.617  16.207  1.5049 -0.0443 -1.6674
17094TIP3   OH272696   6.444   6.289  13.419 -0.2743  0.3192  0.4444
17094TIP3    H172697   6.367   6.234  13.432 -0.2348  0.2214  0.2531
17094TIP3    H272698   6.517   6.235  13.448  0.0016 -0.4832 -1.5765
17095TIP3   OH272699   1.306   6.486   5.933  0.1372  0.0060  0.8475
17095TIP3    H172700   1.279   6.461   6.022  1.1324 -2.3213  0.5626
17095TIP3    H272701   1.401   6.484   5.935  0.1789 -1.3713 -0.5669
17096TIP3   OH272702   4.329   2.421  14.680  0.0142  0.0460  0.5760
17096TIP3    H172703   4.295   2.494  14.731 -1.6807 -1.0324  1.0954
17096TIP3    H272704   4.336   2.349  14.742  3.7472  0.2344  0.5858
17097TIP3   OH272705   1.673   0.451   3.093  0.2688 -0.5950 -0.0768
17097TIP3    H172706   1.685   0.533   3.047 -1.4886  0.7764  1.7168
17097TIP3    H272707   1.596   0.411   3.051 -0.9150  0.3304  1.1181
17098TIP3   OH272708   2.719   0.580   5.376  0.2562  0.0116 -0.0305
17098TIP3    H172709   2.693   0.576   5.284  1.0794  0.5677 -0.2948
17098TIP3    H272710   2.788   0.645   5.379  0.6869 -0.4659  0.8778
17099TIP3   OH272711   0.017   1.449  10.692  0.4238 -0.5672  0.1421
17099TIP3    H172712   0.104   1.408  10.691 -0.0216 -1.5572  0.2976
17099TIP3    H272713  -0.043   1.375  10.703 -0.6258 -0.2798 -2.7370
17100TIP3   OH272714   6.786   6.718  10.835 -0.0505  0.0633  0.0709
17100TIP3    H172715   6.824   6.630  10.829  0.4986  0.3382 -0.6516
17100TIP3    H272716   6.849   6.774  10.790 -0.2529  0.8784  0.7842
17101TIP3   OH272717   4.091   6.322  15.192 -0.0857  0.5316 -0.4283
17101TIP3    H172718   4.122   6.399  15.241  0.4170  0.5869 -0.8307
17101TIP3    H272719   4.004   6.305  15.229  0.8837 -0.3816  1.5930
17102TIP3   OH272720   0.897   6.707   3.722  0.5770  0.0962 -0.6173
17102TIP3    H172721   0.837   6.680   3.792  0.9844 -0.8157 -0.6088
17102TIP3    H272722   0.909   6.801   3.736  1.8742 -0.3112  1.5267
17103TIP3   OH272723   4.368   2.524   0.607  0.0908 -0.1678 -0.4897
17103TIP3    H172724   4.406   2.532   0.695 -0.2216  1.6567 -0.4760
17103TIP3    H272725   4.317   2.444   0.610 -1.2267  0.6702  1.5403
17104TIP3   OH272726   0.371   5.273  14.221  0.1825  0.5725  0.2553
17104TIP3    H172727   0.458   5.269  14.259 -0.3862  0.1711  1.5659
17104TIP3    H272728   0.370   5.356  14.173  0.6598  1.5532  1.8556
17105TIP3   OH272729   5.209   2.232  14.133  0.7337 -0.6068  0.7741
17105TIP3    H172730   5.201   2.139  14.157 -1.0041 -0.8129 -0.4637
17105TIP3    H272731   5.185   2.279  14.213 -0.4167 -1.2656  0.8473
17106TIP3   OH272732   1.416   5.286   1.263  0.4161  0.1001 -0.2974
17106TIP3    H172733   1.503   5.252   1.246  0.1825 -0.1775 -0.9806
17106TIP3    H272734   1.426   5.341   1.341  0.6488 -2.1243  1.3201
17107TIP3   OH272735   2.877   4.327   6.508 -0.0715 -0.2916  0.0641
17107TIP3    H172736   2.788   4.349   6.536 -0.9942 -1.6906 -1.5412
17107TIP3    H272737   2.879   4.231   6.510  1.4862 -0.2656  0.2931
17108TIP3   OH272738   2.152   6.406  11.232 -1.0074  0.2400 -0.3735
17108TIP3    H172739   2.185   6.330  11.184 -1.1500 -0.0304 -0.0498
17108TIP3    H272740   2.187   6.396  11.321 -1.6911  0.1175 -0.1094
17109TIP3   OH272741   0.025   4.563   0.421  0.9681  0.1322 -0.1103
17109TIP3    H172742   0.095   4.497   0.421  0.0542 -0.9234 -1.7302
17109TIP3    H272743   0.010   4.580   0.328 -0.4580  0.8449  0.2329
17110TIP3   OH272744   2.383   5.487   1.248 -0.1841 -0.8422  0.2073
17110TIP3    H172745   2.429   5.414   1.206  0.0754  0.4094 -1.7910
17110TIP3    H272746   2.344   5.535   1.176  1.6867  2.4088  1.1637
17111TIP3   OH272747   5.763   1.055   1.693 -0.0248 -0.1725  0.2852
17111TIP3    H172748   5.839   1.007   1.726  2.3250  2.9986 -0.1167
17111TIP3    H272749   5.689   0.998   1.714  2.0823 -2.0647  3.5829
17112TIP3   OH272750   4.018   5.239  15.940  0.2568 -0.0833 -0.2270
17112TIP3    H172751   4.008   5.227  16.035  0.7448  0.3223 -0.1205
17112TIP3    H272752   4.077   5.313  15.931  2.5317 -1.8646 -0.8217
17113TIP3   OH272753   4.948   5.344   2.936  0.1431  0.4166  0.1827
17113TIP3    H172754   4.874   5.296   2.973 -0.4381  1.0783 -0.1044
17113TIP3    H272755   5.003   5.366   3.012 -1.5182  2.5957  0.8605
17114TIP3   OH272756   5.910   4.475  16.308 -0.0996  0.1340 -0.5454
17114TIP3    H172757   5.928   4.466  16.214  2.5558  2.6056 -0.4059
17114TIP3    H272758   5.994   4.496  16.347 -1.5101  1.4600  2.0581
17115TIP3   OH272759   2.689   5.648   5.701  0.0144 -0.2365  0.4584
17115TIP3    H172760   2.708   5.739   5.682  0.1036 -0.4876 -0.7185
17115TIP3    H272761   2.703   5.640   5.795 -0.3541  1.0426  0.6426
17116TIP3   OH272762   3.758   5.425   0.377 -0.2635  0.1371 -0.5543
17116TIP3    H172763   3.718   5.406   0.462 -1.3715 -0.8163 -1.2446
17116TIP3    H272764   3.849   5.445   0.397 -0.0270 -1.9370  0.6885
17117TIP3   OH272765   2.292   4.239  13.958  0.3808  0.1636  0.5534
17117TIP3    H172766   2.359   4.178  13.991  1.2720  0.7891 -0.0538
17117TIP3    H272767   2.211   4.208  13.996  0.9350 -0.9612  0.8661
17118TIP3   OH272768   4.405   3.969  11.414 -0.0052 -0.7085  0.1081
17118TIP3    H172769   4.478   3.979  11.352  1.3587 -2.3295  1.3600
17118TIP3    H272770   4.403   4.052  11.462 -0.6124  0.2906 -1.5699
17119TIP3   OH272771   1.810   3.372  12.942 -0.4806  0.1872  0.2083
17119TIP3    H172772   1.822   3.400  13.033 -0.5916  2.6912 -0.4794
17119TIP3    H272773   1.891   3.397  12.898  0.3925 -2.7816 -0.0650
17120TIP3   OH272774   4.158   1.899   2.451  0.1398  0.6529 -0.5164
17120TIP3    H172775   4.240   1.852   2.468  0.9017  1.9253 -0.5563
17120TIP3    H272776   4.090   1.842   2.486  1.1711  0.2956  0.9680
17121TIP3   OH272777   1.189   0.919   3.211  0.2733  0.2503  0.2408
17121TIP3    H172778   1.231   1.004   3.203 -0.6063  0.9152  2.0675
17121TIP3    H272779   1.232   0.877   3.286 -0.1414 -0.3842  0.1336
17122TIP3   OH272780   1.858   4.162  10.133 -0.2220  0.6765 -0.0825
17122TIP3    H172781   1.787   4.203  10.183 -0.8701  0.8114 -1.0635
17122TIP3    H272782   1.919   4.234  10.116 -0.9818  1.1062 -1.1487
17123TIP3   OH272783   2.260   2.714   2.342 -0.5169  0.5349 -0.1764
17123TIP3    H172784   2.215   2.657   2.279 -1.9830  0.5174  0.8226
17123TIP3    H272785   2.291   2.654   2.410  1.8594  0.4407 -1.2587
17124TIP3   OH272786   5.300   0.100   0.971  0.1459 -0.5467  0.4547
17124TIP3    H172787   5.206   0.113   0.976  0.0781 -1.0950  0.6530
17124TIP3    H272788   5.312   0.006   0.977  0.7294 -0.4568  0.8369
17125TIP3   OH272789   2.850   3.753  14.398 -0.0853  0.5044  0.4247
17125TIP3    H172790   2.773   3.761  14.454 -0.2775  0.5156  0.1578
17125TIP3    H272791   2.879   3.662  14.409 -0.4805  0.3337  0.0745
17126TIP3   OH272792   1.586   1.546  13.823 -0.6439  0.3496 -0.4993
17126TIP3    H172793   1.603   1.509  13.737 -0.7573 -0.8103 -0.0365
17126TIP3    H272794   1.660   1.517  13.876  0.0828  2.0927 -0.4888
17127TIP3   OH272795   2.211   5.184  15.346 -0.3086  0.5263 -0.2109
17127TIP3    H172796   2.303   5.172  15.369  0.0742  1.5480 -1.2012
17127TIP3    H272797   2.185   5.099  15.309 -0.5387 -0.6886  2.4357
17128TIP3   OH272798   3.740   1.835  12.615 -0.5059  0.4064 -0.8821
17128TIP3    H172799   3.778   1.763  12.565  1.0056  0.5358 -0.0009
17128TIP3    H272800   3.647   1.832  12.596 -1.1639 -3.9425  1.6941
17129TIP3   OH272801   6.399   1.840   0.843  0.3193  0.4468 -0.4889
17129TIP3    H172802   6.391   1.872   0.933  0.6259 -2.4777  0.6884
17129TIP3    H272803   6.493   1.828   0.830  0.1815 -0.6172 -0.5971
17130TIP3   OH272804   3.875   1.701  15.871 -0.1156  0.0251 -0.3347
17130TIP3    H172805   3.946   1.766  15.871  2.8183 -2.8453 -2.6224
17130TIP3    H272806   3.817   1.729  15.800  0.1394  1.0193 -0.1668
17131TIP3   OH272807   6.550   4.281   2.208 -0.0584 -0.0597  0.0331
17131TIP3    H172808   6.620   4.216   2.203 -0.4602 -0.6444  1.3328
17131TIP3    H272809   6.471   4.229   2.224 -0.6438  0.6520 -0.4870
17132TIP3   OH272810   2.741   5.983  16.959 -0.4277  0.0022  0.0490
17132TIP3    H172811   2.710   6.013  16.873  0.9258 -0.2315 -0.5425
17132TIP3    H272812   2.769   6.063  17.003 -1.7633  0.2113  0.5754
17133TIP3   OH272813   6.240   5.150   4.000 -0.1371  0.1053  0.0445
17133TIP3    H172814   6.285   5.141   4.084 -1.0620  1.3448  0.6950
17133TIP3    H272815   6.147   5.151   4.022 -0.3947  0.5606 -0.9802
17134TIP3   OH272816   6.569   2.373  11.432 -0.0281 -0.5984 -0.0574
17134TIP3    H172817   6.599   2.292  11.390 -0.0331 -1.1677  0.9963
17134TIP3    H272818   6.615   2.374  11.516 -0.6985  0.0522  0.3042
17135TIP3   OH272819   1.198   2.026  15.087 -0.3003  0.2850  0.0718
17135TIP3    H172820   1.242   1.941  15.085 -0.4678  0.2109 -0.7065
17135TIP3    H272821   1.144   2.027  15.008 -3.7443 -0.7037  2.2332
17136TIP3   OH272822   4.472   0.479   1.631  0.1127  0.0936  0.1974
17136TIP3    H172823   4.480   0.402   1.575  1.1685 -0.5495  1.1731
17136TIP3    H272824   4.545   0.471   1.693  0.3325  1.9616  0.2322
17137TIP3   OH272825   2.669   5.557   0.104  0.5070 -0.2624 -0.1916
17137TIP3    H172826   2.658   5.649   0.080 -0.5955 -0.3518 -0.0961
17137TIP3    H272827   2.612   5.510   0.043  0.4769 -0.8118  0.2554
17138TIP3   OH272828   3.329   2.486  13.089 -0.0492  0.1155  0.0541
17138TIP3    H172829   3.333   2.581  13.084  0.4066  0.1297  0.5523
17138TIP3    H272830   3.414   2.457  13.055 -0.7523 -0.1905 -1.5589
17139TIP3   OH272831   5.779   1.800  11.975  0.3057 -0.2091  0.3091
17139TIP3    H172832   5.826   1.852  12.040  1.0378  0.4353 -0.7150
17139TIP3    H272833   5.833   1.722  11.963 -0.5249 -1.0004  1.4529
17140TIP3   OH272834   3.325   5.293  10.949  0.0360 -0.4644  0.8772
17140TIP3    H172835   3.372   5.333  10.876 -0.4876  0.3818  0.9817
17140TIP3    H272836   3.267   5.229  10.908  0.1500 -0.3852  0.5947
17141TIP3   OH272837   3.072   0.280   5.475  0.2102 -0.2431  0.1147
17141TIP3    H172838   3.082   0.371   5.450  0.6505 -0.3428 -0.0890
17141TIP3    H272839   3.145   0.263   5.535  0.0014 -0.4004  0.3304
17142TIP3   OH272840   2.595   1.422   2.769  0.5159 -0.3515 -0.2976
17142TIP3    H172841   2.518   1.478   2.755 -1.1626 -2.7211 -1.2003
17142TIP3    H272842   2.625   1.401   2.680  0.4754 -1.6661 -0.0162
17143TIP3   OH272843   5.305   3.674   2.586 -0.0175  0.0212 -0.5506
17143TIP3    H172844   5.223   3.630   2.563  0.1728 -0.3512 -0.5246
17143TIP3    H272845   5.304   3.755   2.535 -0.9504  0.5868  0.3221
17144TIP3   OH272846   4.386   1.944   3.441 -0.2761  0.1301 -0.2361
17144TIP3    H172847   4.445   1.966   3.369 -1.2214 -0.5764 -1.2640
17144TIP3    H272848   4.392   1.849   3.449  0.2546  0.2510  1.0346
17145TIP3   OH272849   5.749   5.060   3.445 -0.4730  0.2551 -0.3460
17145TIP3    H172850   5.662   5.041   3.481 -0.2287 -2.0913 -0.8564
17145TIP3    H272851   5.741   5.044   3.351  0.8926 -1.6789 -0.1866
17146TIP3   OH272852   2.347   2.379  16.967  0.0771  0.1322  0.1427
17146TIP3    H172853   2.318   2.445  17.031  0.2191  0.5719 -0.2420
17146TIP3    H272854   2.442   2.390  16.964 -0.1857  2.8413 -3.0324
17147TIP3   OH272855   0.354   1.230  11.831  0.1364 -0.0814  0.2839
17147TIP3    H172856   0.395   1.310  11.796 -0.6051  0.5116  0.7363
17147TIP3    H272857   0.330   1.253  11.921  0.0414 -0.8669  0.4619
17148TIP3   OH272858   2.054   3.789  15.960  0.2756 -0.9808  0.1033
17148TIP3    H172859   1.962   3.767  15.976  0.3089 -0.1027  1.8178
17148TIP3    H272860   2.101   3.746  16.031  0.7893  1.1213  1.1269
17149TIP3   OH272861   4.643   4.951   4.136 -0.0738 -0.0069 -0.5441
17149TIP3    H172862   4.701   4.992   4.200 -1.2161 -0.6855  0.9983
17149TIP3    H272863   4.623   5.021   4.073 -1.5285  1.7566  1.7018
17150TIP3   OH272864   1.142   5.405  13.242  0.4100 -0.3831 -0.5976
17150TIP3    H172865   1.218   5.371  13.290 -0.6126  0.2859  1.6746
17150TIP3    H272866   1.177   5.477  13.189  1.3108  0.3075  0.8616
17151TIP3   OH272867   0.115   3.241  11.673 -0.1528 -0.4413  0.4806
17151TIP3    H172868   0.034   3.237  11.724  0.5654 -1.5859  1.6036
17151TIP3    H272869   0.172   3.300  11.722  0.1010 -0.5582  0.3289
17152TIP3   OH272870   2.121   5.762  13.461 -0.1357 -0.0929  0.7044
17152TIP3    H172871   2.160   5.850  13.461 -0.4937  0.0678  0.9926
17152TIP3    H272872   2.178   5.711  13.403 -1.2671  0.9359 -1.4641
17153TIP3   OH272873   3.002   1.131  13.850  0.2734 -0.1675 -0.1939
17153TIP3    H172874   3.074   1.158  13.792 -2.0077  1.2523 -2.6007
17153TIP3    H272875   3.018   1.039  13.867  2.5385  0.0536 -0.7748
17154TIP3   OH272876   6.669   1.055  15.533 -0.3128 -0.2508 -0.3802
17154TIP3    H172877   6.622   1.026  15.455  0.4646 -0.5836 -0.7382
17154TIP3    H272878   6.676   0.976  15.587 -2.4086  0.3436  0.8833
17155TIP3   OH272879   0.752   4.268   4.931 -0.1921 -0.2930 -0.2625
17155TIP3    H172880   0.792   4.305   4.852 -0.3836  0.1104 -0.1730
17155TIP3    H272881   0.747   4.341   4.992  1.2608 -0.9299  0.6493
17156TIP3   OH272882   1.716   1.525  15.461 -0.2172  0.6718 -0.1401
17156TIP3    H172883   1.711   1.473  15.542 -0.4624 -0.0490 -0.6081
17156TIP3    H272884   1.801   1.570  15.467  0.1034  0.0391  0.1759
17157TIP3   OH272885   1.688   3.851   2.209  0.3742 -0.3697  0.0209
17157TIP3    H172886   1.717   3.800   2.285  0.7663 -1.2170 -0.6813
17157TIP3    H272887   1.639   3.924   2.247  0.3271 -0.9243  1.0781
17158TIP3   OH272888   2.409   1.655   3.135 -0.1945  0.1832 -0.4157
17158TIP3    H172889   2.324   1.683   3.101  0.5770  2.3929 -0.6759
17158TIP3    H272890   2.391   1.572   3.180 -2.6061  0.9330  0.1271
17159TIP3   OH272891   3.389   5.045   4.304  0.0829 -0.5815 -0.2643
17159TIP3    H172892   3.309   5.013   4.346 -0.7367 -1.0364 -2.0923
17159TIP3    H272893   3.385   5.140   4.313 -0.8464 -0.5796 -0.6595
17160TIP3   OH272894   6.131   0.417   2.792 -0.3599  1.0204 -0.3199
17160TIP3    H172895   6.176   0.453   2.716 -1.0196  0.0783 -1.1989
17160TIP3    H272896   6.038   0.425   2.770 -0.5588  0.8266  0.4346
17161TIP3   OH272897   2.620   6.227   1.761  0.2548 -0.2092  0.2001
17161TIP3    H172898   2.571   6.258   1.685 -1.2885 -1.4984  0.6136
17161TIP3    H272899   2.557   6.230   1.833  0.8698 -1.5867  0.8267
17162TIP3   OH272900   2.812   2.340  14.491 -0.0235 -0.5056  0.4595
17162TIP3    H172901   2.854   2.254  14.487  0.0176 -0.5171  1.0642
17162TIP3    H272902   2.756   2.335  14.568  0.2599  0.1429  0.7064
17163TIP3   OH272903   3.106   2.118   4.479  0.3919 -0.4317  0.0762
17163TIP3    H172904   3.135   2.209   4.476 -1.3874  0.2042  0.6378
17163TIP3    H272905   3.076   2.099   4.390 -2.8116  0.8824  0.7169
17164TIP3   OH272906   2.353   0.271   2.840 -0.0974  0.1739  0.1564
17164TIP3    H172907   2.284   0.332   2.865 -0.6861  0.1331 -1.2634
17164TIP3    H272908   2.388   0.239   2.923 -0.2216  1.9246  0.9243
17165TIP3   OH272909   1.171   0.431  15.315  0.4508  0.2110  0.3696
17165TIP3    H172910   1.177   0.488  15.238 -0.6102 -2.0292 -1.4764
17165TIP3    H272911   1.261   0.411  15.338  0.8178  1.9628  0.5886
17166TIP3   OH272912   6.543   4.461  14.212 -0.1119  0.4379 -0.5924
17166TIP3    H172913   6.542   4.422  14.300 -0.4805 -0.6621 -1.0668
17166TIP3    H272914   6.634   4.452  14.183  0.3482  2.0868  0.2003
17167TIP3   OH272915   2.608   3.722  15.623  0.4556 -0.4641  0.6068
17167TIP3    H172916   2.550   3.798  15.622  0.6879 -0.2800 -0.8191
17167TIP3    H272917   2.649   3.724  15.710 -2.0854 -0.9709  1.9353
17168TIP3   OH272918   3.572   0.767  13.171 -0.2026 -0.0829  0.2056
17168TIP3    H172919   3.661   0.782  13.204  0.1110  0.7177 -0.9241
17168TIP3    H272920   3.582   0.696  13.108 -0.3240  0.1493 -0.0764
17169TIP3   OH272921   2.156   4.053  14.884  0.0455 -0.0536 -0.2166
17169TIP3    H172922   2.161   3.965  14.921  3.3807 -0.0730 -0.4522
17169TIP3    H272923   2.243   4.090  14.897 -1.1208  3.1239 -0.4621
17170TIP3   OH272924   0.644   6.755   5.304  0.2477 -0.5464 -0.1040
17170TIP3    H172925   0.649   6.659   5.309 -0.3783 -0.6150 -0.6215
17170TIP3    H272926   0.572   6.778   5.363 -0.2383 -0.4867 -0.7014
17171TIP3   OH272927   3.306   1.217   5.891  0.0567  0.3359  0.4046
17171TIP3    H172928   3.369   1.163   5.939  0.5869 -0.2372 -0.8799
17171TIP3    H272929   3.289   1.168   5.811 -1.6410  0.7475  0.4764
17172TIP3   OH272930   6.682   4.288  13.394  0.4191 -0.5763  0.6433
17172TIP3    H172931   6.642   4.365  13.353  0.2474 -1.9282 -1.8914
17172TIP3    H272932   6.621   4.265  13.465  0.9815  2.1190  2.1275
17173TIP3   OH272933   4.499   5.289   4.711 -0.0220  0.6453 -0.1912
17173TIP3    H172934   4.412   5.327   4.712 -0.3076  0.0824 -1.2600
17173TIP3    H272935   4.524   5.289   4.618  0.6888 -0.1321 -0.0142
17174TIP3   OH272936   2.019   1.917  12.535 -0.5559 -0.5467 -0.4052
17174TIP3    H172937   2.092   1.940  12.592 -0.0164 -1.9852 -0.4811
17174TIP3    H272938   1.966   1.997  12.531 -1.1857 -0.6659  2.9188
17175TIP3   OH272939   6.132   1.200  14.116 -0.1964 -0.3069 -0.5149
17175TIP3    H172940   6.070   1.206  14.043 -0.9641  1.0572  0.2122
17175TIP3    H272941   6.089   1.245  14.188 -0.4448 -3.4973  1.5232
17176TIP3   OH272942   4.214   1.728  15.564  0.6550  0.0423  0.0376
17176TIP3    H172943   4.207   1.644  15.609  1.3626 -0.1174 -0.1338
17176TIP3    H272944   4.124   1.754  15.548  0.4225 -0.5594  0.3262
17177TIP3   OH272945   5.631   6.263  13.259 -0.3226  0.0194 -0.3395
17177TIP3    H172946   5.724   6.241  13.261  0.1645  1.1331 -3.6434
17177TIP3    H272947   5.623   6.342  13.312  0.5589 -0.2312  0.1807
17178TIP3   OH272948   1.633   3.135  12.512  0.6395  0.1000 -0.0055
17178TIP3    H172949   1.643   3.144  12.607 -0.2256  1.4328 -0.0176
17178TIP3    H272950   1.567   3.067  12.501  2.4129 -1.7638  0.2615
17179TIP3   OH272951   1.797   3.674   1.552  0.1730  0.3733  0.0166
17179TIP3    H172952   1.848   3.603   1.591 -2.7391 -0.7079  2.1651
17179TIP3    H272953   1.738   3.630   1.490 -0.7396  1.0678  0.3733
17180TIP3   OH272954   6.531   3.140  15.010  0.4811 -0.5761 -0.5295
17180TIP3    H172955   6.441   3.135  15.043  0.8702 -0.3118  0.6199
17180TIP3    H272956   6.575   3.203  15.068  1.8889 -2.0729  0.1307
17181TIP3   OH272957   1.129   2.005  14.715  0.0816 -0.4847  0.3818
17181TIP3    H172958   1.082   2.024  14.634 -0.7079  0.0314  0.9436
17181TIP3    H272959   1.154   2.091  14.749 -1.1180 -0.5662  1.5530
17182TIP3   OH272960   3.487   5.904   4.621  0.1076  0.9579 -0.3285
17182TIP3    H172961   3.495   5.873   4.531  0.3676 -1.0079  0.3186
17182TIP3    H272962   3.393   5.908   4.637  0.0248 -1.6761  0.2141
17183TIP3   OH272963   3.325   6.427  15.241  0.4187 -0.5670  0.2579
17183TIP3    H172964   3.281   6.345  15.221 -0.7922 -0.0087  0.4973
17183TIP3    H272965   3.275   6.493  15.193  2.5887 -0.1538 -1.5895
17184TIP3   OH272966   6.221   0.185   5.009 -0.2983 -0.0820  0.1680
17184TIP3    H172967   6.134   0.198   5.048 -1.3109  0.8516 -2.2059
17184TIP3    H272968   6.244   0.272   4.975  0.2829 -0.9003 -1.6476
17185TIP3   OH272969   4.932   3.610   2.231  0.0405  0.2029 -0.2554
17185TIP3    H172970   4.910   3.601   2.324  2.9289  1.4322  0.6601
17185TIP3    H272971   4.858   3.659   2.194  0.1971  2.4995  2.1390
17186TIP3   OH272972   3.003   0.831   3.628 -0.6212 -0.7216  0.9276
17186TIP3    H172973   2.937   0.768   3.601 -2.4744  1.0104  1.2328
17186TIP3    H272974   3.046   0.857   3.546 -0.7723 -1.3324  0.6484
17187TIP3   OH272975   0.206   6.587  11.715  0.6172  0.0256 -0.1446
17187TIP3    H172976   0.163   6.527  11.775 -1.3702 -0.5319 -2.0204
17187TIP3    H272977   0.256   6.646  11.772 -2.4449  0.5771  2.1949
17188TIP3   OH272978   2.802   6.643   2.362  0.4436  0.8061  0.1714
17188TIP3    H172979   2.780   6.550   2.372 -0.7064  1.0507  0.1022
17188TIP3    H272980   2.785   6.662   2.270 -4.1922  2.1828  1.0578
17189TIP3   OH272981   0.886   1.249   0.691  0.5589  0.1865  0.4797
17189TIP3    H172982   0.799   1.288   0.687  0.2257 -0.6271 -1.0415
17189TIP3    H272983   0.940   1.304   0.634  0.4545 -0.6283 -0.4362
17190TIP3   OH272984   1.666   4.665  14.680  0.8423 -0.0321 -0.1985
17190TIP3    H172985   1.577   4.652  14.713  0.6905  0.7089 -0.3216
17190TIP3    H272986   1.656   4.679  14.586  1.1105 -0.1530 -0.2474
17191TIP3   OH272987   0.055   1.550   2.526  0.0519  0.2615  0.2931
17191TIP3    H172988   0.084   1.626   2.577 -2.1730  2.8193 -1.9330
17191TIP3    H272989   0.128   1.532   2.466  0.4153  0.9505  0.5158
17192TIP3   OH272990   6.458   4.665   1.024 -0.7484 -0.4177 -0.1604
17192TIP3    H172991   6.474   4.582   0.979  0.7202 -0.2400 -0.0312
17192TIP3    H272992   6.535   4.676   1.081 -1.0911  0.8593  0.0838
17193TIP3   OH272993   0.391   1.540  15.750 -0.1490  0.0725  0.0700
17193TIP3    H172994   0.385   1.632  15.724 -0.0221  0.2948  0.8081
17193TIP3    H272995   0.484   1.525  15.764 -0.1119 -0.3262 -0.6008
17194TIP3   OH272996   2.675   2.418  12.648 -0.7033  0.4856  0.2106
17194TIP3    H172997   2.614   2.345  12.662  0.8290 -0.8898  0.0639
17194TIP3    H272998   2.710   2.437  12.735  0.5535 -0.5303 -0.0263
17195TIP3   OH272999   2.213   6.387  15.878  0.1996 -0.4893  0.0111
17195TIP3    H173000   2.266   6.330  15.822 -2.1758 -1.9075 -0.9737
17195TIP3    H273001   2.263   6.394  15.959  0.8827 -3.6334 -0.0010
17196TIP3   OH273002   5.216   1.153   4.795 -0.2578  0.5211  0.1619
17196TIP3    H173003   5.196   1.201   4.875  0.0349 -1.4196  1.4784
17196TIP3    H273004   5.310   1.133   4.802  0.4250  2.4728 -1.9521
17197TIP3   OH273005   1.349   0.860  14.129  0.2654 -0.1724  0.4411
17197TIP3    H173006   1.337   0.953  14.109  0.4884 -0.0822  0.7114
17197TIP3    H273007   1.273   0.836  14.181 -0.0611 -0.2784 -0.0812
17198TIP3   OH273008   1.013   3.330  13.815  0.4020  0.1277 -0.0940
17198TIP3    H173009   0.918   3.321  13.823  0.4514  0.3857  0.9301
17198TIP3    H273010   1.030   3.317  13.722 -0.7318  0.9987 -0.4482
17199TIP3   OH273011   5.828   0.026   4.456  0.5697  0.0979  0.1796
17199TIP3    H173012   5.771   0.099   4.477 -0.2563 -0.1043 -1.2346
17199TIP3    H273013   5.778  -0.052   4.481  1.1048 -0.0331  0.8927
17200TIP3   OH273014   1.270   2.467  13.785 -0.1748 -0.3722 -0.1456
17200TIP3    H173015   1.366   2.472  13.778 -0.2367 -0.8356 -1.5724
17200TIP3    H273016   1.248   2.535  13.849  1.1073 -0.2839  0.2411
17201TIP3   OH273017   3.087   2.092   1.231 -0.1593 -0.7459 -0.1988
17201TIP3    H173018   3.121   2.003   1.219 -1.1087 -1.2195  0.4570
17201TIP3    H273019   3.111   2.138   1.151 -0.0431 -1.7269 -0.7425
17202TIP3   OH273020   3.088   3.630   1.492 -0.3082 -0.0761  0.5699
17202TIP3    H173021   3.180   3.656   1.495 -0.6407  1.3465 -0.2948
17202TIP3    H273022   3.042   3.701   1.536 -1.0685 -0.2875  0.1384
17203TIP3   OH273023   5.239   3.704   0.136  0.4027 -0.2389 -0.0244
17203TIP3    H173024   5.160   3.755   0.123  0.1578 -0.6635 -0.2316
17203TIP3    H273025   5.273   3.733   0.221 -0.1864 -0.3324  0.2504
17204TIP3   OH273026   2.689   6.158  16.766  0.0082 -0.0669  0.2438
17204TIP3    H173027   2.652   6.212  16.836  0.1441 -1.2283  1.2455
17204TIP3    H273028   2.782   6.180  16.764 -0.1719  0.6757 -0.2452
17205TIP3   OH273029   4.519   6.097  10.660 -0.0271 -0.2797  0.3430
17205TIP3    H173030   4.475   6.095  10.575 -0.3638 -0.6670  0.5244
17205TIP3    H273031   4.612   6.097  10.639 -0.1054 -1.1106 -0.0127
17206TIP3   OH273032   3.873   4.383  15.198 -0.8237  0.2783 -0.3755
17206TIP3    H173033   3.781   4.389  15.223 -0.7006 -1.1180  0.5425
17206TIP3    H273034   3.876   4.312  15.134 -0.4867  0.8887 -1.0587
17207TIP3   OH273035   2.844   5.859   5.846 -0.0759 -0.0829  0.4364
17207TIP3    H173036   2.887   5.923   5.902  0.5058  0.4768 -0.6296
17207TIP3    H273037   2.768   5.830   5.897  1.5078 -1.1118  2.3655
17208TIP3   OH273038   4.124   3.144  12.170 -0.4398 -0.4057 -0.1095
17208TIP3    H173039   4.094   3.149  12.260  1.6472 -1.2410  0.6790
17208TIP3    H273040   4.162   3.230  12.152 -0.7492 -0.2793 -0.1733
17209TIP3   OH273041   5.421   3.218  13.208  0.2894  0.1791 -0.5385
17209TIP3    H173042   5.369   3.173  13.141  0.7041 -1.1057 -0.0193
17209TIP3    H273043   5.501   3.167  13.215  0.2809  0.3144  0.9007
17210TIP3   OH273044   6.315   4.103  13.372  0.0085 -0.0459 -0.2651
17210TIP3    H173045   6.244   4.051  13.337  0.3608 -0.0913 -0.9220
17210TIP3    H273046   6.389   4.086  13.314  1.1575 -1.5529  1.4994
17211TIP3   OH273047   2.531   1.904  13.329  0.1251 -0.0298  0.1791
17211TIP3    H173048   2.441   1.901  13.297  0.0425 -0.9059  0.4669
17211TIP3    H273049   2.528   1.856  13.412  0.9899 -0.6829 -0.1576
17212TIP3   OH273050   6.517   0.606   2.236 -0.5519 -0.4976 -0.5305
17212TIP3    H173051   6.568   0.544   2.184  1.9511  0.3371  0.7261
17212TIP3    H273052   6.539   0.584   2.327 -2.7404 -0.2491  0.1223
17213TIP3   OH273053   2.334   1.394   3.821  0.6098 -0.1274  0.5327
17213TIP3    H173054   2.251   1.370   3.781  1.6462 -3.1910 -0.0564
17213TIP3    H273055   2.388   1.426   3.749  0.3395  0.7334  0.7058
17214TIP3   OH273056   5.578   5.022   0.534 -0.4389  0.1260  0.7052
17214TIP3    H173057   5.612   4.974   0.459 -0.8443 -1.1690  1.3162
17214TIP3    H273058   5.535   4.955   0.588 -0.5385  1.0862  1.8706
17215TIP3   OH273059   0.809   3.787  15.465 -0.0775  0.0248  0.1915
17215TIP3    H173060   0.845   3.871  15.494 -0.8507 -0.3152  2.2383
17215TIP3    H273061   0.741   3.811  15.402  0.1268  0.9010  0.2862
17216TIP3   OH273062   4.814   5.994  12.977  0.3194 -0.1901 -0.2926
17216TIP3    H173063   4.755   5.956  13.042  0.4149  0.4692  0.1929
17216TIP3    H273064   4.845   6.075  13.017  2.3573 -1.0065 -0.1063
17217TIP3   OH273065   5.959   6.372   6.004  0.5646  0.5168  0.5829
17217TIP3    H173066   6.017   6.441   6.038 -0.0237  1.6595 -0.6302
17217TIP3    H273067   5.961   6.384   5.909  0.9820 -1.6099  0.2626
17218TIP3   OH273068   0.246   3.451   2.862 -0.5760  0.0899  0.4423
17218TIP3    H173069   0.218   3.413   2.779 -1.9161  0.6156  0.6281
17218TIP3    H273070   0.226   3.544   2.854 -2.1093 -0.0617  1.8501
17219TIP3   OH273071   3.604   5.005   2.134 -0.0047  0.2432 -0.0036
17219TIP3    H173072   3.563   4.919   2.131  1.8701 -0.6926 -1.6705
17219TIP3    H273073   3.539   5.062   2.175 -2.1876 -1.4888 -0.8742
17220TIP3   OH273074   0.650   3.173  12.591 -0.3771 -0.1239  0.4182
17220TIP3    H173075   0.740   3.204  12.601 -0.2483 -0.5539  0.6062
17220TIP3    H273076   0.599   3.229  12.650 -0.4019  0.8450 -0.5010
17221TIP3   OH273077   3.022   1.570  13.681  0.2944 -0.2586  0.0652
17221TIP3    H173078   3.032   1.534  13.593 -0.5541 -2.9725  0.9947
17221TIP3    H273079   3.106   1.553  13.724  0.3962  0.2437  0.0758
17222TIP3   OH273080   1.016   3.589   2.862 -0.3648 -0.1393  0.1134
17222TIP3    H173081   1.012   3.672   2.814 -1.3214 -0.3162 -0.1268
17222TIP3    H273082   0.926   3.573   2.891 -0.3578 -1.4895 -0.5260
17223TIP3   OH273083   4.198   3.507   2.760 -0.2286  0.0404 -0.2775
17223TIP3    H173084   4.121   3.564   2.762  0.3328  0.8091  1.7021
17223TIP3    H273085   4.173   3.430   2.811 -0.5506 -0.9761 -1.8897
17224TIP3   OH273086   4.590   3.526  10.679  0.3737  0.0096  0.4680
17224TIP3    H173087   4.605   3.582  10.602 -1.2929 -0.0194  0.0873
17224TIP3    H273088   4.539   3.581  10.739 -1.7211 -1.1773 -0.1123
17225TIP3   OH273089   5.537   5.671   5.392  0.0390 -0.5492  0.4499
17225TIP3    H173090   5.630   5.685   5.378 -0.3109  0.8865 -0.7190
17225TIP3    H273091   5.504   5.755   5.424 -0.9300 -0.8757  0.3613
17226TIP3   OH273092   1.643   5.927  14.466 -0.0878  0.4586 -0.1191
17226TIP3    H173093   1.603   5.843  14.441  1.7418  0.1000 -2.1916
17226TIP3    H273094   1.710   5.903  14.530  1.0262  0.1634 -1.3548
17227TIP3   OH273095   0.551   5.041   6.337  0.4322  0.5451  0.3489
17227TIP3    H173096   0.616   5.098   6.296 -1.1911  1.1148 -1.6075
17227TIP3    H273097   0.468   5.089   6.331 -0.7777 -1.4460 -0.2689
17228TIP3   OH273098   2.058   4.064   5.129 -0.5421  0.0957 -0.4558
17228TIP3    H173099   2.062   4.065   5.034  0.5575  2.2465 -0.4446
17228TIP3    H273100   1.970   4.095   5.150 -1.0137 -1.0061 -0.7423
17229TIP3   OH273101   1.936   1.645  12.027  0.3221  0.1575 -0.2280
17229TIP3    H173102   1.912   1.553  12.035  2.5514 -0.4199  0.5840
17229TIP3    H273103   1.960   1.671  12.116  1.8480  0.8483 -0.7983
17230TIP3   OH273104   2.302   2.776   4.900  0.6070 -0.4724  0.0415
17230TIP3    H173105   2.255   2.739   4.974 -0.2278 -1.9952 -1.1900
17230TIP3    H273106   2.388   2.800   4.935 -0.6665  1.4982  2.1245
17231TIP3   OH273107   2.864   5.607  14.556  0.2195  0.4828 -0.0741
17231TIP3    H173108   2.892   5.575  14.641 -0.5313 -0.7938 -0.2824
17231TIP3    H273109   2.931   5.577  14.495 -0.4526 -0.7237 -0.2605
17232TIP3   OH273110   5.807   4.189  11.725  0.0620  0.3375  0.3896
17232TIP3    H173111   5.891   4.189  11.678 -0.3692 -0.7487 -0.4142
17232TIP3    H273112   5.792   4.282  11.745  2.5287  0.4002  2.5756
17233TIP3   OH273113   0.387   2.504   5.906 -0.7842 -0.0563  0.2979
17233TIP3    H173114   0.325   2.554   5.853 -2.0459  0.3508  2.0673
17233TIP3    H273115   0.410   2.429   5.852 -2.7567 -0.1634 -0.4896
17234TIP3   OH273116   3.714   2.003   2.866  0.2873 -0.0577  0.5962
17234TIP3    H173117   3.682   1.922   2.826  0.3287  0.4157 -0.4513
17234TIP3    H273118   3.638   2.040   2.910 -0.2301  0.2706 -0.5395
17235TIP3   OH273119   3.350   3.919  13.082  0.6802  0.1920 -0.5552
17235TIP3    H173120   3.294   3.899  13.006  0.0919 -0.0169 -0.0756
17235TIP3    H273121   3.363   3.834  13.124  2.1817  0.0785 -1.2089
17236TIP3   OH273122   2.454   0.272   5.955  0.4356  0.0596  0.5864
17236TIP3    H173123   2.437   0.261   6.048  0.3093 -0.3565  0.5143
17236TIP3    H273124   2.410   0.198   5.913 -0.3908  0.7995  0.1052
17237TIP3   OH273125   4.492   5.680  15.015 -0.8537  0.1131 -0.4889
17237TIP3    H173126   4.467   5.767  14.983 -1.3658 -0.3636 -1.4180
17237TIP3    H273127   4.427   5.660  15.082 -0.1267  0.8673  0.4649
17238TIP3   OH273128   1.948   1.809   2.094  0.2073 -0.1491 -0.2394
17238TIP3    H173129   1.921   1.742   2.031 -1.5090  1.5405 -1.4494
17238TIP3    H273130   2.004   1.868   2.044 -2.8099  2.3647 -0.9783
17239TIP3   OH273131   4.921   6.089  12.130 -0.3058 -0.0636 -0.5016
17239TIP3    H173132   4.937   6.018  12.192 -1.4493 -1.3624 -1.6186
17239TIP3    H273133   4.826   6.101  12.130 -0.0759  2.4696  0.6651
17240TIP3   OH273134   6.321   3.983   4.847  0.3664 -0.7108 -0.0923
17240TIP3    H173135   6.379   4.014   4.777 -0.4004  1.0981  0.0175
17240TIP3    H273136   6.338   4.042   4.921 -1.0818 -0.5730  0.1705
17241TIP3   OH273137   1.603   4.761  16.758  0.1403  0.8781  0.1568
17241TIP3    H173138   1.630   4.835  16.705 -0.5729  2.0257  1.3421
17241TIP3    H273139   1.513   4.781  16.784  0.7722  0.8726  2.6063
17242TIP3   OH273140   1.638   3.123  13.709  0.3585  0.2852 -0.1710
17242TIP3    H173141   1.623   3.149  13.800  0.2489 -0.4659  0.0284
17242TIP3    H273142   1.611   3.199  13.658 -0.9306  0.1999  0.3514
17243TIP3   OH273143   4.661   2.006   0.311  0.5679 -0.1158 -0.1097
17243TIP3    H173144   4.737   2.054   0.278  1.4202  0.4151  2.3799
17243TIP3    H273145   4.585   2.057   0.283  0.9507 -1.2177 -3.5623
17244TIP3   OH273146   5.790   1.073  15.734  1.0242 -0.1828 -0.2686
17244TIP3    H173147   5.701   1.051  15.710  0.7856  0.8300 -0.3516
17244TIP3    H273148   5.842   0.998  15.705  0.2982 -0.4790 -0.8322
17245TIP3   OH273149   6.622   5.729  16.913 -0.0832 -0.2027  0.0809
17245TIP3    H173150   6.610   5.722  17.008 -0.6695 -2.3714 -0.0827
17245TIP3    H273151   6.702   5.780  16.902 -1.3711  2.3448  1.6261
17246TIP3   OH273152   0.557   4.939   0.816  0.5515  0.2279 -0.1179
17246TIP3    H173153   0.649   4.934   0.792  0.3375  2.0886 -1.6270
17246TIP3    H273154   0.511   4.892   0.747  0.3945 -2.6234  1.7532
17247TIP3   OH273155   1.729   6.191  13.752 -0.0189 -0.2399 -0.1727
17247TIP3    H173156   1.649   6.187  13.805 -0.7033 -1.1716 -1.2190
17247TIP3    H273157   1.776   6.268  13.785 -1.9543  1.0949 -0.3602
17248TIP3   OH273158   1.205   6.369   5.181  0.4069 -0.1807  0.0298
17248TIP3    H173159   1.122   6.385   5.135  0.3789  1.5072  0.6145
17248TIP3    H273160   1.201   6.277   5.205 -1.2467 -0.1698 -0.0697
17249TIP3   OH273161   0.109   0.161  12.832 -0.2089 -0.7618 -0.4906
17249TIP3    H173162   0.120   0.252  12.859  0.9878 -1.4234  1.4300
17249TIP3    H273163   0.179   0.146  12.768 -0.9966 -0.0893 -1.5237
17250TIP3   OH273164   4.133   0.449   5.100  0.8399 -0.7589  0.1243
17250TIP3    H173165   4.115   0.405   5.183 -0.2213 -1.3487 -0.3935
17250TIP3    H273166   4.155   0.539   5.124 -1.1992 -0.4329  0.9517
17251TIP3   OH273167   6.662   0.261  11.496 -0.4753  0.3555  0.0368
17251TIP3    H173168   6.664   0.171  11.464  0.4643  0.4840 -0.3029
17251TIP3    H273169   6.753   0.290  11.492 -0.9161  1.7467 -1.0864
17252TIP3   OH273170   4.673   3.355  15.687  0.3587 -0.2590  0.2534
17252TIP3    H173171   4.591   3.305  15.685 -0.2746  0.6952 -2.9221
17252TIP3    H273172   4.741   3.289  15.670 -0.4484 -0.3230 -3.6944
17253TIP3   OH273173   4.788   2.126   2.217  0.1358 -0.1717 -0.4112
17253TIP3    H173174   4.695   2.123   2.195  0.3212  1.3832 -1.5654
17253TIP3    H273175   4.833   2.126   2.133  1.2257 -1.3003  0.1327
17254TIP3   OH273176   1.901   3.105   2.322  0.1456  0.0026 -0.1040
17254TIP3    H173177   1.929   3.066   2.405 -0.9404 -0.2507  0.1636
17254TIP3    H273178   1.832   3.047   2.290 -1.6371  1.7313  0.3743
17255TIP3   OH273179   6.117   5.008   0.999 -0.5700  0.1173  0.3153
17255TIP3    H173180   6.112   5.103   0.985 -2.7142 -0.1009 -0.7603
17255TIP3    H273181   6.073   4.970   0.923 -1.4955 -1.6770  1.6694
17256TIP3   OH273182   4.311   1.499   3.626  0.0972 -0.1930 -0.1807
17256TIP3    H173183   4.372   1.542   3.566 -0.3235  0.4204 -0.1788
17256TIP3    H273184   4.225   1.515   3.588 -0.1586  0.0425  0.4873
17257TIP3   OH273185   6.021   2.885  12.870  0.0289 -0.0411 -0.3547
17257TIP3    H173186   5.995   2.891  12.778  0.9952 -1.2304 -0.7370
17257TIP3    H273187   6.008   2.793  12.893 -0.3380  0.2691  0.7563
17258TIP3   OH273188   0.193   0.626  11.041 -0.6669 -0.7149 -0.1427
17258TIP3    H173189   0.263   0.634  11.106 -1.7163 -0.4978  1.0289
17258TIP3    H273190   0.139   0.704  11.055 -0.0875  0.1443 -2.3747
17259TIP3   OH273191   2.279   1.641   3.511  0.1325  0.2775 -0.0902
17259TIP3    H173192   2.234   1.557   3.497  0.0185 -0.3010  2.9711
17259TIP3    H273193   2.209   1.706   3.508 -0.3101 -0.1473  0.6257
17260TIP3   OH273194   1.971   4.038  11.292  0.4490  0.4011  0.2605
17260TIP3    H173195   1.985   4.106  11.227 -0.4147 -0.0176 -0.3865
17260TIP3    H273196   2.022   3.963  11.260 -2.6880 -1.0265 -1.9434
17261TIP3   OH273197   6.594   1.090  14.374  0.2508  0.3818 -0.1991
17261TIP3    H173198   6.626   1.031  14.305  0.0042 -0.5048  0.4190
17261TIP3    H273199   6.501   1.067  14.382  0.4093  0.0602  0.8186
17262TIP3   OH273200   0.826   6.220   5.336  0.0698 -0.1017  0.4954
17262TIP3    H173201   0.863   6.149   5.283 -1.1735 -1.0349  0.8505
17262TIP3    H273202   0.816   6.183   5.423 -2.1605 -0.0821  0.3045
17263TIP3   OH273203   2.500   5.732  16.505  0.2723 -0.6420  0.0947
17263TIP3    H173204   2.592   5.751  16.486  0.7179 -2.8880 -0.2780
17263TIP3    H273205   2.503   5.667  16.575 -1.0973  0.1380  0.9150
17264TIP3   OH273206   1.985   6.065   2.960  0.3266 -0.0704  0.3221
17264TIP3    H173207   2.050   6.021   3.015 -1.6139 -2.8683  0.5911
17264TIP3    H273208   1.934   6.118   3.022  0.8122  0.2050  0.4941
17265TIP3   OH273209   2.888   3.264  15.381  0.1560  0.5705 -0.6278
17265TIP3    H173210   2.976   3.227  15.371  0.4193 -0.0435  2.7533
17265TIP3    H273211   2.900   3.358  15.367  1.0175  0.2979 -1.8299
17266TIP3   OH273212   2.952   0.746   3.322  0.4897  0.4595  0.0331
17266TIP3    H173213   2.866   0.747   3.366  0.0121 -1.5010 -0.7170
17266TIP3    H273214   2.948   0.819   3.261  0.4555  2.1016  1.8745
17267TIP3   OH273215   5.797   5.112  12.812  0.6532 -0.4571  0.2202
17267TIP3    H173216   5.886   5.101  12.846  1.0476  1.9411  0.1449
17267TIP3    H273217   5.802   5.189  12.755 -1.3105 -0.7408 -0.4097
17268TIP3   OH273218   3.661   0.221  12.550  0.4679  0.5109  0.3999
17268TIP3    H173219   3.569   0.198  12.558  0.4984  0.7360  1.5040
17268TIP3    H273220   3.675   0.230  12.456 -0.2082 -1.2316  0.0909
17269TIP3   OH273221   2.607   5.955  10.993  0.7409 -0.4817  0.0194
17269TIP3    H173222   2.569   5.925  10.911  1.7703 -1.2385 -0.2072
17269TIP3    H273223   2.671   5.887  11.016  0.2159 -0.4797  1.6480
17270TIP3   OH273224   0.409   0.499   3.013  0.2429  0.2717 -0.3720
17270TIP3    H173225   0.442   0.447   2.940 -0.0821 -0.8221  0.2242
17270TIP3    H273226   0.368   0.576   2.972  2.3305  1.0068 -1.1708
17271TIP3   OH273227   0.991   4.446  14.028  0.7826  0.2756 -0.1058
17271TIP3    H173228   1.060   4.507  14.053  0.1302  0.2476  2.0153
17271TIP3    H273229   0.922   4.461  14.094 -1.0036 -0.0649 -1.8172
17272TIP3   OH273230   0.277   1.819   3.872  0.1492 -0.1462 -0.5905
17272TIP3    H173231   0.231   1.757   3.928 -0.0988  0.7316  0.1933
17272TIP3    H273232   0.208   1.870   3.830  0.3653  0.0713 -0.6856
17273TIP3   OH273233   3.975   0.139  13.451 -0.4829  0.0714  0.4251
17273TIP3    H173234   3.933   0.064  13.408 -1.6839 -0.2271  2.0134
17273TIP3    H273235   3.990   0.202  13.380 -0.9480 -1.0054 -0.6704
17274TIP3   OH273236   2.341   6.400   1.700  0.2585 -0.3041 -0.2914
17274TIP3    H173237   2.383   6.380   1.617 -0.4114 -1.2215 -0.4186
17274TIP3    H273238   2.255   6.358   1.695 -0.8277  1.7740 -0.1578
17275TIP3   OH273239   3.966   2.175  10.587 -0.0150 -0.6657  0.5404
17275TIP3    H173240   4.018   2.169  10.667  0.1446  2.7829  0.8434
17275TIP3    H273241   4.030   2.176  10.516  0.1619  0.4527  0.6997
17276TIP3   OH273242   3.381   3.557   1.746  0.0837  0.1547  0.2369
17276TIP3    H173243   3.455   3.618   1.751 -0.3552  0.6908  0.3768
17276TIP3    H273244   3.363   3.533   1.837  0.7085 -0.7560  0.1314
17277TIP3   OH273245   1.470   2.080   0.238  0.4695  0.2820 -0.0953
17277TIP3    H173246   1.448   2.156   0.293 -0.0868  0.7341 -0.9103
17277TIP3    H273247   1.437   2.104   0.151 -0.1331 -1.0863 -0.2707
17278TIP3   OH273248   3.879   2.806  15.337  0.1027 -0.4334  0.1805
17278TIP3    H173249   3.925   2.856  15.405 -2.2981  0.5361  1.1828
17278TIP3    H273250   3.948   2.781  15.275  2.4311 -1.5806  3.0343
17279TIP3   OH273251   5.696   0.155  12.128 -0.4593 -0.0645  0.3142
17279TIP3    H173252   5.609   0.188  12.153 -1.5279 -0.5133 -2.4845
17279TIP3    H273253   5.721   0.210  12.054  0.4118 -1.6850 -0.6358
17280TIP3   OH273254   3.955   6.663   0.097 -0.1784  0.4880  0.4190
17280TIP3    H173255   3.914   6.579   0.116  0.0681  0.4003  0.5613
17280TIP3    H273256   4.016   6.645   0.025 -1.7128  0.9808 -1.0806
17281TIP3   OH273257   5.362   6.252   2.996  0.0276 -0.0521 -0.4407
17281TIP3    H173258   5.396   6.188   3.058 -0.4036 -1.2311 -1.3910
17281TIP3    H273259   5.293   6.205   2.949 -0.0380  0.9931 -1.4220
17282TIP3   OH273260   0.388   3.333  16.316  0.3430  0.6144  0.3969
17282TIP3    H173261   0.427   3.369  16.237  1.2580 -0.8674  0.1282
17282TIP3    H273262   0.449   3.356  16.386  0.7913 -0.1400  0.2665
17283TIP3   OH273263   4.889   5.780  11.962 -0.4231  0.4255  0.3127
17283TIP3    H173264   4.921   5.766  11.872 -1.4743 -1.1966  0.1379
17283TIP3    H273265   4.803   5.822  11.950  0.1398  1.7089  0.6464
17284TIP3   OH273266   5.043   0.520  16.891  0.3326 -0.0484 -0.5169
17284TIP3    H173267   5.138   0.532  16.887  0.4173 -0.0550  0.9360
17284TIP3    H273268   5.007   0.591  16.839  1.0971  0.9574  0.2915
17285TIP3   OH273269   4.605   6.376   4.385 -0.3549 -0.3786 -0.0177
17285TIP3    H173270   4.576   6.428   4.310 -0.4766 -0.1438  0.1923
17285TIP3    H273271   4.541   6.394   4.453 -2.0532 -2.9763 -0.7909
17286TIP3   OH273272   3.824   4.055  12.082 -0.6334 -0.2592  0.1678
17286TIP3    H173273   3.740   4.096  12.101 -0.9432 -1.5579  1.7082
17286TIP3    H273274   3.805   3.994  12.011 -0.6674  0.4694 -0.4675
17287TIP3   OH273275   6.638   5.656  13.217  0.1417  0.1855 -0.4332
17287TIP3    H173276   6.559   5.666  13.164  0.9737 -1.7503 -2.1653
17287TIP3    H273277   6.634   5.566  13.249  1.4824  0.1531 -0.2998
17288TIP3   OH273278   0.828   1.380  16.067  0.0667 -0.2756  0.8021
17288TIP3    H173279   0.832   1.297  16.115  1.1201 -0.3587  0.5944
17288TIP3    H273280   0.920   1.402  16.050 -0.2128  0.8519  0.7098
17289TIP3   OH273281   5.403   6.299  16.187 -0.1091  0.3366 -0.3865
17289TIP3    H173282   5.356   6.317  16.106  0.4825 -0.0349 -0.8205
17289TIP3    H273283   5.457   6.377  16.202  0.5632 -0.0169 -0.9161
17290TIP3   OH273284   4.175   1.764  11.135  0.2846 -0.1954  0.2722
17290TIP3    H173285   4.238   1.835  11.146  1.8595 -1.5756  0.6415
17290TIP3    H273286   4.162   1.758  11.040  0.6053  0.1962  0.2018
17291TIP3   OH273287   0.988   3.832  16.038  0.1749  0.7441  0.3360
17291TIP3    H173288   1.060   3.802  15.982 -0.2592  0.2010  0.0613
17291TIP3    H273289   1.023   3.826  16.127  0.3020 -0.0200  0.2427
17292TIP3   OH273290   2.088   4.421   0.809 -0.2358 -0.3169  0.1362
17292TIP3    H173291   2.084   4.517   0.805  1.5811 -0.2223 -0.1268
17292TIP3    H273292   2.112   4.394   0.720 -1.4540 -1.0972  0.0161
17293TIP3   OH273293   5.949   0.581   2.366  0.1322  0.4446 -0.3331
17293TIP3    H173294   5.927   0.629   2.286  1.5180  0.8219 -0.5103
17293TIP3    H273295   6.024   0.526   2.341 -1.1390 -1.5529 -0.0317
17294TIP3   OH273296   5.414   0.907  15.888  0.3513  0.2310 -0.0013
17294TIP3    H173297   5.473   0.849  15.937  0.8496 -0.4200 -1.3174
17294TIP3    H273298   5.466   0.934  15.812 -0.9344 -0.0820 -1.0156
17295TIP3   OH273299   4.778   3.870   5.934 -0.3122  0.2216 -0.6043
17295TIP3    H173300   4.687   3.857   5.959 -0.0136  1.2101  1.1645
17295TIP3    H273301   4.820   3.785   5.950 -1.0825 -0.5548 -2.4337
17296TIP3   OH273302   4.383   1.184   4.897 -0.0829  0.3270  0.2439
17296TIP3    H173303   4.469   1.166   4.860 -0.6465 -1.8708 -0.1406
17296TIP3    H273304   4.322   1.135   4.843 -1.7150  2.3445  0.1065
17297TIP3   OH273305   5.567   3.759  14.680  0.3131  0.1508  0.7477
17297TIP3    H173306   5.574   3.732  14.588  2.6760 -0.3016  1.0140
17297TIP3    H273307   5.474   3.778  14.691 -0.2796 -1.0959 -1.3741
17298TIP3   OH273308   6.393   4.351   2.837  0.4815  0.1526 -0.0566
17298TIP3    H173309   6.404   4.271   2.785  1.3912 -0.4140  0.9689
17298TIP3    H273310   6.394   4.421   2.773  1.0497 -0.5683 -0.8600
17299TIP3   OH273311   6.383   1.473   1.905  0.0580  0.0175 -0.2720
17299TIP3    H173312   6.425   1.500   1.987 -0.3012  1.8037 -0.6390
17299TIP3    H273313   6.393   1.378   1.904  0.7416  0.0238  1.4713
17300TIP3   OH273314   4.577   1.255  15.654 -0.6625  0.1326 -0.2942
17300TIP3    H173315   4.510   1.301  15.604 -0.2716  0.1863 -0.7805
17300TIP3    H273316   4.632   1.325  15.690 -0.5547  0.0735 -0.3437
17301TIP3   OH273317   1.025   5.897  16.574 -0.8131 -0.3712 -0.1027
17301TIP3    H173318   0.969   5.956  16.624  0.0862  3.1846 -2.8641
17301TIP3    H273319   1.114   5.929  16.590  0.0307 -2.6938  0.2700
17302TIP3   OH273320   6.449   2.075   0.610  0.4299  0.5338 -0.7491
17302TIP3    H173321   6.381   2.008   0.617 -1.0691  2.0869  0.9857
17302TIP3    H273322   6.419   2.132   0.538  0.4146  0.6657 -0.6394
17303TIP3   OH273323   5.968   3.869   1.506  0.0739 -0.0171  0.1191
17303TIP3    H173324   5.918   3.915   1.440  0.4751 -2.1448 -1.7833
17303TIP3    H273325   6.057   3.866   1.471  1.1591  1.8515  2.4452
17304TIP3   OH273326   3.591   1.347  14.176 -0.2977  0.3909 -0.1675
17304TIP3    H173327   3.643   1.320  14.251 -0.6811  0.0362 -0.0193
17304TIP3    H273328   3.501   1.350  14.210 -0.4543  0.3577 -0.5754
17305TIP3   OH273329   2.574   2.234  11.518  0.4343  0.2670  0.4059
17305TIP3    H173330   2.621   2.151  11.520 -0.4929 -0.2977 -0.4370
17305TIP3    H273331   2.629   2.292  11.464  1.7497  0.6638  2.0734
17306TIP3   OH273332   4.509   2.908   1.520 -0.5045  0.2954  0.2307
17306TIP3    H173333   4.438   2.930   1.580 -0.9586 -0.9824  0.1878
17306TIP3    H273334   4.589   2.924   1.571 -0.8627  0.0864  0.8668
17307TIP3   OH273335   2.923   0.648   1.647  0.5640 -0.9628  1.0970
17307TIP3    H173336   2.835   0.680   1.628  0.6635 -1.4146 -0.2577
17307TIP3    H273337   2.971   0.726   1.673  0.3838 -0.2313 -0.5791
17308TIP3   OH273338   0.268   2.519  14.118  0.4892  0.1803  0.3904
17308TIP3    H173339   0.329   2.482  14.182  0.5370  0.5804  0.5791
17308TIP3    H273340   0.211   2.446  14.094 -1.3971  0.6330  3.0335
17309TIP3   OH273341   3.944   4.124   4.268  0.5142 -0.5649 -0.3839
17309TIP3    H173342   3.881   4.059   4.299 -0.3762  0.5067  0.1813
17309TIP3    H273343   3.897   4.172   4.200  0.8725 -0.0541 -0.2834
17310TIP3   OH273344   2.474   0.391   1.163 -0.3150 -0.6041  0.1632
17310TIP3    H173345   2.476   0.411   1.257  3.2917 -2.9936  0.8022
17310TIP3    H273346   2.430   0.306   1.158  0.9173 -1.2625 -0.0064
17311TIP3   OH273347   2.045   1.153   6.045 -0.1057  0.8783 -0.3051
17311TIP3    H173348   1.950   1.159   6.056 -0.0383 -0.0621  1.0146
17311TIP3    H273349   2.079   1.231   6.091 -0.2917  2.3429 -2.5105
17312TIP3   OH273350   1.660   5.581   6.199  0.0224  0.4687  0.1501
17312TIP3    H173351   1.596   5.509   6.196  0.5659  0.0051 -0.6114
17312TIP3    H273352   1.742   5.541   6.172  1.0857  0.6132  2.9026
17313TIP3   OH273353   1.124   2.526   5.541  0.0761  0.2092  0.2618
17313TIP3    H173354   1.179   2.497   5.614 -1.5858  0.5492  1.7202
17313TIP3    H273355   1.181   2.581   5.488  1.8462 -1.5110  0.2646
17314TIP3   OH273356   3.293   4.915   2.394 -0.6902  0.1759  0.1749
17314TIP3    H173357   3.210   4.926   2.439 -0.1411  2.2491  0.7996
17314TIP3    H273358   3.322   5.004   2.374  1.6621 -0.4379  0.5214
17315TIP3   OH273359   1.293   0.360   5.579 -0.0917 -0.4932 -0.2603
17315TIP3    H173360   1.317   0.267   5.583 -0.3509 -0.5197  1.0728
17315TIP3    H273361   1.251   0.378   5.664 -1.7469  0.3826 -1.2119
17316TIP3   OH273362   1.186   2.492  14.796  0.6934  0.4553 -0.4470
17316TIP3    H173363   1.164   2.502  14.704  0.5107 -0.3527 -0.5007
17316TIP3    H273364   1.104   2.508  14.843  0.1775 -1.4795 -0.5842
17317TIP3   OH273365   6.006   0.766   2.778  0.4593  0.0985 -0.4628
17317TIP3    H173366   6.017   0.675   2.807 -1.3852 -0.0323 -0.0246
17317TIP3    H273367   6.052   0.771   2.694 -0.5566 -1.6461 -1.1803
17318TIP3   OH273368   2.434   1.603   0.279  0.3982  0.4718  0.6789
17318TIP3    H173369   2.394   1.517   0.283  0.4062  0.3288 -1.3767
17318TIP3    H273370   2.522   1.591   0.314  1.0984 -0.8361 -1.3841
17319TIP3   OH273371   2.087   2.262   2.627  0.4853  0.2366 -0.3122
17319TIP3    H173372   2.181   2.247   2.614  0.9886  1.7694  1.1380
17319TIP3    H273373   2.083   2.329   2.695 -1.6978 -0.7934  0.6855
17320TIP3   OH273374   1.763   1.039  11.473  0.7170 -0.2994  0.0729
17320TIP3    H173375   1.810   1.022  11.554  0.9044 -1.4806 -0.2628
17320TIP3    H273376   1.780   1.131  11.453  0.5683  0.0395  1.4232
17321TIP3   OH273377   2.004   6.198  11.433  0.2702  0.4265  0.2173
17321TIP3    H173378   2.087   6.182  11.388  0.3615 -0.2228  0.6036
17321TIP3    H273379   1.985   6.115  11.478 -0.9842  0.2997 -0.5028
17322TIP3   OH273380   4.612   1.739  10.939 -0.3861 -0.7602  0.0428
17322TIP3    H173381   4.675   1.795  10.893 -0.4266  1.3317  2.2911
17322TIP3    H273382   4.569   1.799  11.001 -0.8652 -3.1797  2.2157
17323TIP3   OH273383   5.505   1.851  15.224 -0.2355 -0.0354  0.3287
17323TIP3    H173384   5.561   1.886  15.294  0.0087  2.4733 -0.9869
17323TIP3    H273385   5.431   1.911  15.220 -0.8143 -0.7807 -0.8240
17324TIP3   OH273386   4.494   4.367  11.327 -0.3295 -0.0055  0.1763
17324TIP3    H173387   4.507   4.310  11.251  0.6264 -1.0323  1.0758
17324TIP3    H273388   4.423   4.326  11.376 -1.7659  1.2972 -0.7060
17325TIP3   OH273389   2.718   2.326  15.913  0.2452 -0.2053  0.1326
17325TIP3    H173390   2.719   2.269  15.836  1.0392  1.0727 -0.8561
17325TIP3    H273391   2.626   2.353  15.922  0.4047  1.1051 -1.5691
17326TIP3   OH273392   2.944   5.475  16.080  0.5313  0.0466 -0.3441
17326TIP3    H173393   2.854   5.505  16.070  0.6339  0.5520  0.1836
17326TIP3    H273394   2.986   5.499  15.998  0.8989  2.4508  0.4766
17327TIP3   OH273395   1.459   3.126   4.128  0.0582  0.5632 -0.4250
17327TIP3    H173396   1.520   3.153   4.060  2.6083  1.6808  2.1221
17327TIP3    H273397   1.489   3.040   4.156 -0.5119  0.4280 -0.1996
17328TIP3   OH273398   6.607   3.755   2.074  0.3234  0.0538  0.4517
17328TIP3    H173399   6.633   3.824   2.134  0.6615  2.7390 -2.4864
17328TIP3    H273400   6.682   3.696   2.071  1.6196  1.6238  0.3517
17329TIP3   OH273401   6.030   0.259  11.051  0.4546 -0.4453  0.3638
17329TIP3    H173402   6.073   0.312  11.119  0.8451  0.2421 -0.4024
17329TIP3    H273403   6.048   0.169  11.077  0.9603 -0.1910  0.9495
17330TIP3   OH273404   0.936   6.682  13.189  0.4205 -0.4343  0.1441
17330TIP3    H173405   1.005   6.638  13.140  1.3626  1.3726 -0.2735
17330TIP3    H273406   0.927   6.631  13.270  0.5829 -2.0368 -0.8118
17331TIP3   OH273407   0.913   5.952  12.825  0.2036  0.4776  0.1260
17331TIP3    H173408   0.821   5.929  12.828  0.2440  0.4372  1.8703
17331TIP3    H273409   0.946   5.911  12.745 -1.4774  1.2938 -1.0324
17332TIP3   OH273410   0.615   4.915  16.953  0.0935 -0.8060 -0.1043
17332TIP3    H173411   0.664   4.837  16.979  1.5468  0.2164  0.3709
17332TIP3    H273412   0.645   4.983  17.013  0.0821  0.5134 -1.5242
17333TIP3   OH273413   5.663   2.358   5.240  0.4591  0.0162 -0.0089
17333TIP3    H173414   5.600   2.414   5.194  0.9699  0.7951  0.2057
17333TIP3    H273415   5.695   2.298   5.173 -0.8729 -0.7238  0.0018
17334TIP3   OH273416   4.244   6.066  12.150 -0.3858 -0.1265 -0.0023
17334TIP3    H173417   4.313   6.076  12.084 -1.7982 -1.4759 -1.7833
17334TIP3    H273418   4.189   6.144  12.141  0.7165  0.8591  1.2928
17335TIP3   OH273419   6.034   3.953   4.815  0.3714  0.3852  0.0706
17335TIP3    H173420   6.127   3.948   4.840 -0.0653 -0.1344  1.7451
17335TIP3    H273421   5.987   3.938   4.897 -1.2065  0.4764 -0.7841
17336TIP3   OH273422   2.484   2.555   3.929 -0.2867 -0.2562  0.3700
17336TIP3    H173423   2.426   2.556   4.004 -0.6788 -0.6540  0.0791
17336TIP3    H273424   2.477   2.643   3.891 -0.7339 -0.3180  0.3102
17337TIP3   OH273425   1.122   3.444   1.042 -0.4935 -0.2683 -0.0329
17337TIP3    H173426   1.072   3.366   1.066 -1.9901  0.2939 -1.1968
17337TIP3    H273427   1.057   3.514   1.034  0.9224  1.4079  2.0081
17338TIP3   OH273428   3.023   6.693   5.980  0.0471  0.2359 -0.0693
17338TIP3    H173429   3.049   6.752   6.052 -0.8604 -1.9907  2.2423
17338TIP3    H273430   3.088   6.624   5.982  1.1576  1.0882 -2.8202
17339TIP3   OH273431   2.897   2.828   3.521  0.2129 -0.1582  0.4195
17339TIP3    H173432   2.862   2.799   3.605 -1.4979 -0.8172 -0.4597
17339TIP3    H273433   2.831   2.801   3.457  1.8672 -0.4842 -1.2551
17340TIP3   OH273434   5.985   2.015   5.715 -0.8484  0.3646  0.0126
17340TIP3    H173435   5.918   1.949   5.699 -3.4163  2.7427  0.1887
17340TIP3    H273436   5.937   2.097   5.726  2.1813  2.5191 -1.1665
17341TIP3   OH273437   4.844   5.107   2.293  0.3410  0.4744  0.1553
17341TIP3    H173438   4.801   5.022   2.288  3.0952 -1.0220 -0.1748
17341TIP3    H273439   4.793   5.163   2.235 -1.7353 -0.8293  0.6404
17342TIP3   OH273440   6.755   5.975  10.397  0.5374  0.5695  0.8486
17342TIP3    H173441   6.744   5.887  10.432  0.3586  0.8271  1.4690
17342TIP3    H273442   6.841   5.975  10.356  0.4387  0.0413  0.6336
17343TIP3   OH273443   2.832   4.175   1.062  0.1483  0.2476 -0.0908
17343TIP3    H173444   2.758   4.224   1.026 -0.6059 -0.7728  0.0096
17343TIP3    H273445   2.874   4.235   1.123 -1.6491  0.3039  1.1788
17344TIP3   OH273446   0.331   1.427  10.839  0.2046 -0.1369 -0.3762
17344TIP3    H173447   0.322   1.332  10.839  2.0646 -0.4166  2.0229
17344TIP3    H273448   0.423   1.443  10.858  0.3932  2.2068 -2.6916
17345TIP3   OH273449   4.936   3.497   1.009 -0.4007  0.0436 -0.4777
17345TIP3    H173450   4.898   3.412   1.032  1.5701 -0.8919 -0.4696
17345TIP3    H273451   4.888   3.560   1.062  0.0427 -1.4005  1.7601
17346TIP3   OH273452   4.297   6.385  14.902  0.3935 -0.1235 -0.1110
17346TIP3    H173453   4.322   6.407  14.992  1.7167 -0.3321 -0.4155
17346TIP3    H273454   4.231   6.317  14.911  1.6701 -1.2920  0.6823
17347TIP3   OH273455   0.841   2.463  16.669  0.2015  0.5152  0.0652
17347TIP3    H173456   0.887   2.438  16.589  0.8840 -0.4850  0.7334
17347TIP3    H273457   0.901   2.525  16.712  2.4866 -2.8465  2.3106
17348TIP3   OH273458   4.607   2.378  11.620  0.2797  0.3385 -0.0255
17348TIP3    H173459   4.545   2.402  11.551 -1.3727  1.3174  1.7134
17348TIP3    H273460   4.682   2.436  11.606 -0.1564  0.7316 -0.8139
17349TIP3   OH273461   5.604   0.286  11.364  0.3944 -0.2821 -0.3540
17349TIP3    H173462   5.520   0.304  11.407  0.4538 -0.2091 -0.2661
17349TIP3    H273463   5.665   0.275  11.437  0.2856 -1.2319 -0.3918
17350TIP3   OH273464   6.795   0.438   4.697  0.1881 -0.2132  0.5293
17350TIP3    H173465   6.862   0.488   4.743 -0.7222  0.7872  0.8256
17350TIP3    H273466   6.724   0.501   4.682 -2.2406 -1.9829  3.3831
17351TIP3   OH273467   0.085   5.816   3.880 -0.4128  0.3041  0.1737
17351TIP3    H173468   0.126   5.817   3.967 -0.7549  1.0071  0.3365
17351TIP3    H273469  -0.003   5.851   3.896 -0.4736  0.4423 -0.4665
17352TIP3   OH273470   4.101   4.742  15.670 -0.4193  0.6790 -0.5001
17352TIP3    H173471   4.148   4.682  15.728  1.0144  1.9726 -0.2607
17352TIP3    H273472   4.071   4.812  15.728  0.4044  1.6193 -1.1862
17353TIP3   OH273473   3.439   0.842   4.529 -0.4764 -0.0561  0.3092
17353TIP3    H173474   3.443   0.802   4.615  2.0585 -0.1235  0.2332
17353TIP3    H273475   3.458   0.935   4.545 -0.3436 -0.0054 -0.1125
17354TIP3   OH273476   4.759   2.553  13.633  0.0614 -0.2255 -0.3448
17354TIP3    H173477   4.668   2.568  13.660 -0.3247 -0.5792 -1.3933
17354TIP3    H273478   4.761   2.463  13.602  1.3991 -1.1010  2.0188
17355TIP3   OH273479   5.506   2.202  11.238  0.4147 -0.4956 -0.4303
17355TIP3    H173480   5.412   2.217  11.239  0.4386  0.0274 -2.3695
17355TIP3    H273481   5.544   2.289  11.251  0.6573 -0.7192  0.4565
17356TIP3   OH273482   6.019   2.074  15.007 -0.4695  0.2259  0.3799
17356TIP3    H173483   6.102   2.066  14.960 -0.9128 -0.9197 -0.2481
17356TIP3    H273484   5.956   2.101  14.940 -0.7735  0.2923  0.6890
17357TIP3   OH273485   6.404   0.529   3.666  0.3047  0.0941 -0.1173
17357TIP3    H173486   6.338   0.529   3.597  0.2391 -0.4636 -0.0594
17357TIP3    H273487   6.360   0.571   3.741  0.3465  0.6146 -0.3804
17358TIP3   OH273488   3.623   1.487  11.639 -0.5730  0.2006 -0.1155
17358TIP3    H173489   3.615   1.401  11.681 -1.6912  0.4245  0.1648
17358TIP3    H273490   3.654   1.468  11.550  1.2450 -0.3199  0.5816
17359TIP3   OH273491   2.062   5.424  16.334  0.1451  0.3124  0.0508
17359TIP3    H173492   2.067   5.369  16.256 -0.9914 -0.4694  0.5123
17359TIP3    H273493   2.058   5.514  16.299  3.1394  0.2749 -0.6817
17360TIP3   OH273494   4.590   1.281  13.567  0.3555  0.3986 -0.2400
17360TIP3    H173495   4.576   1.374  13.583 -3.6276 -0.6062  4.6222
17360TIP3    H273496   4.645   1.252  13.639 -1.0305 -1.3712  0.1900
17361TIP3   OH273497   5.837   4.671   0.552 -0.4602 -0.6178  0.0435
17361TIP3    H173498   5.909   4.623   0.592 -0.3951 -0.0851  0.5862
17361TIP3    H273499   5.879   4.742   0.504 -0.5835 -0.7811 -0.3104
17362TIP3   OH273500   6.619   1.347   0.785 -0.0212  0.3812 -0.0084
17362TIP3    H173501   6.593   1.258   0.764 -0.2862  0.4024  0.2220
17362TIP3    H273502   6.584   1.363   0.872  0.2568  0.6190  0.0631
17363TIP3   OH273503   4.921   2.576   0.940  0.3627 -0.8886 -0.3178
17363TIP3    H173504   5.003   2.528   0.926 -0.2356 -2.1671  0.4151
17363TIP3    H273505   4.878   2.575   0.854  2.3151  2.2831 -1.5149
17364TIP3   OH273506   6.499   6.497   1.452 -0.6546  0.2393 -0.2619
17364TIP3    H173507   6.453   6.561   1.506 -1.1442  0.6375 -1.1251
17364TIP3    H273508   6.518   6.544   1.371 -0.4815 -0.5306 -0.6764
17365TIP3   OH273509   4.803   6.691   2.998 -0.2254  0.6242 -0.1194
17365TIP3    H173510   4.844   6.778   3.000  0.2704  0.4311  2.8882
17365TIP3    H273511   4.716   6.705   3.037  0.4111 -0.3850  1.8167
17366TIP3   OH273512   0.382   5.995   2.222  0.2575 -0.0298  0.0756
17366TIP3    H173513   0.461   6.046   2.203  0.4257 -0.0132  0.8203
17366TIP3    H273514   0.362   5.951   2.139  0.2645  1.0232 -0.4951
17367TIP3   OH273515   1.823   4.962  13.816  0.3268 -0.2727  0.1300
17367TIP3    H173516   1.880   4.970  13.740  0.2534 -1.4259 -0.0545
17367TIP3    H273517   1.740   4.928  13.780 -0.0638  0.2004  0.5728
17368TIP3   OH273518   5.005   0.324   4.117 -0.4604  0.3599  0.0147
17368TIP3    H173519   5.090   0.285   4.140 -0.7389  0.7239  1.7447
17368TIP3    H273520   4.987   0.386   4.187 -0.1185  3.5983 -2.5349
17369TIP3   OH273521   0.637   0.243   1.509  0.4681 -0.3201  0.0428
17369TIP3    H173522   0.583   0.321   1.493  1.3795  0.0135 -1.7234
17369TIP3    H273523   0.718   0.276   1.547  0.1170 -0.6378  1.1006
17370TIP3   OH273524   3.390   4.180  15.394 -0.4246 -0.6592  0.3075
17370TIP3    H173525   3.435   4.238  15.455  0.3412 -0.5643 -0.3275
17370TIP3    H273526   3.370   4.101  15.445  0.6086 -0.7620  0.5572
17371TIP3   OH273527   3.299   4.461  12.537  0.0756  0.4710 -0.3544
17371TIP3    H173528   3.278   4.537  12.592 -0.9723  0.7302 -1.0717
17371TIP3    H273529   3.362   4.411  12.588  0.4602  1.6076  0.3233
17372TIP3   OH273530   2.260   3.777  13.984 -0.0626 -1.0636 -0.8865
17372TIP3    H173531   2.307   3.816  13.910 -0.1678 -0.3595 -0.5824
17372TIP3    H273532   2.171   3.763  13.951 -0.3450  0.0458 -0.6355
17373TIP3   OH273533   0.258   6.421   3.934  0.6940  0.0507 -0.2432
17373TIP3    H173534   0.201   6.390   4.004  0.8106  0.3385 -0.0211
17373TIP3    H273535   0.210   6.494   3.895 -0.1017 -1.0681 -1.4965
17374TIP3   OH273536   2.145   1.093  16.466  0.1259  0.1441  0.5858
17374TIP3    H173537   2.231   1.058  16.490  0.2769 -2.5095 -3.0453
17374TIP3    H273538   2.163   1.157  16.396 -0.8154 -0.4175 -0.1973
17375TIP3   OH273539   0.642   3.044  16.850  0.2569  0.6311  0.0422
17375TIP3    H173540   0.563   3.018  16.803  0.8792  1.0440 -1.2585
17375TIP3    H273541   0.656   3.135  16.825  1.8179  0.2096 -0.6909
17376TIP3   OH273542   3.042   2.770   3.976  0.8188 -0.9967 -0.4604
17376TIP3    H173543   2.974   2.784   3.910 -0.3897  2.8814  1.3302
17376TIP3    H273544   3.116   2.821   3.945  0.1899  0.9828  1.1136
17377TIP3   OH273545   0.399   2.791  16.470 -0.1890  0.0444 -0.5027
17377TIP3    H173546   0.430   2.881  16.457 -1.3946  0.8198  1.6157
17377TIP3    H273547   0.321   2.785  16.415 -0.7890  0.7143  0.2498
17378TIP3   OH273548   0.666   4.134   0.330 -0.3115 -0.0083 -0.5679
17378TIP3    H173549   0.692   4.212   0.379  0.0795 -0.1289 -0.5801
17378TIP3    H273550   0.678   4.158   0.238  2.1395 -0.8684 -0.5239
17379TIP3   OH273551   6.562   4.801   3.219  0.7671 -0.0580  0.1031
17379TIP3    H173552   6.568   4.873   3.156  0.8288 -0.1608 -0.0091
17379TIP3    H273553   6.468   4.786   3.228  0.7514  0.0817  0.1792
17380TIP3   OH273554   4.573   5.702  13.345 -0.0458 -0.7385  0.3399
17380TIP3    H173555   4.636   5.648  13.392 -0.0275 -0.4799  0.6157
17380TIP3    H273556   4.623   5.742  13.275 -0.3951 -2.3486 -0.9053
17381TIP3   OH273557   2.597   0.936  15.188  0.1543 -0.2403  0.3581
17381TIP3    H173558   2.679   0.985  15.181 -0.2288  0.1616 -2.4185
17381TIP3    H273559   2.530   0.997  15.157 -0.9173 -1.1801  0.7585
17382TIP3   OH273560   0.020   4.681  15.560  0.3774  0.6670  0.5480
17382TIP3    H173561   0.037   4.679  15.654  0.1924 -0.2018  0.5756
17382TIP3    H273562  -0.075   4.669  15.553  0.5136 -0.3179  0.2312
17383TIP3   OH273563   3.750   3.122   2.240  0.3432 -0.4160 -0.0210
17383TIP3    H173564   3.684   3.157   2.300 -0.0697  1.1039 -1.2868
17383TIP3    H273565   3.722   3.032   2.224 -1.0410 -0.0238  0.0152
17384TIP3   OH273566   6.495   0.617  12.756  0.0793  0.2169  0.1941
17384TIP3    H173567   6.413   0.660  12.733 -0.3141 -0.2966  0.5943
17384TIP3    H273568   6.469   0.548  12.817  0.7278 -0.3999 -0.2170
17385TIP3   OH273569   5.344   3.443  14.183  0.2208  0.1501 -0.5342
17385TIP3    H173570   5.360   3.349  14.174 -1.4471 -0.3062  0.6879
17385TIP3    H273571   5.313   3.454  14.273  1.5690  2.0854 -0.2248
17386TIP3   OH273572   4.234   0.130   1.711 -0.7569  0.1123 -0.2648
17386TIP3    H173573   4.312   0.163   1.756 -0.2887  0.3255 -1.2063
17386TIP3    H273574   4.164   0.142   1.774 -0.1762  0.7272  0.2872
17387TIP3   OH273575   4.282   2.863   1.664 -0.4893  0.0564  0.0199
17387TIP3    H173576   4.277   2.770   1.640  1.9237  0.3423 -1.9760
17387TIP3    H273577   4.316   2.862   1.753  1.8316 -1.0433 -0.7979
17388TIP3   OH273578   1.136   6.173  12.307 -0.1576  0.6110 -0.4588
17388TIP3    H173579   1.113   6.265  12.294 -0.6605  0.7126  0.9899
17388TIP3    H273580   1.087   6.147  12.385  0.7889 -0.5835 -0.2385
17389TIP3   OH273581   2.592   4.748  14.170 -0.2568 -0.2593 -0.0727
17389TIP3    H173582   2.516   4.724  14.223 -0.3226 -0.8936 -0.4344
17389TIP3    H273583   2.660   4.772  14.233 -0.6421 -0.0444  0.2620
17390TIP3   OH273584   1.980   0.819   1.903 -0.3202 -0.5211  0.4391
17390TIP3    H173585   1.987   0.849   1.993 -0.8527 -0.5756  0.5053
17390TIP3    H273586   1.914   0.749   1.907  0.4083 -1.2461  0.1821
17391TIP3   OH273587   2.902   2.149   2.510  0.1011  0.2277  0.5940
17391TIP3    H173588   2.944   2.227   2.546 -0.7455  0.2319  1.6498
17391TIP3    H273589   2.925   2.149   2.417  0.1089  1.7397  0.5756
17392TIP3   OH273590   5.482   0.227  16.077 -0.2154  0.0551  0.3410
17392TIP3    H173591   5.475   0.279  16.157 -0.0976  1.1261 -0.3323
17392TIP3    H273592   5.478   0.136  16.107 -0.8959  0.4444  1.4917
17393TIP3   OH273593   1.041   2.464  16.239 -0.0929 -0.2329 -0.2554
17393TIP3    H173594   1.089   2.506  16.168 -1.5405  3.2171  0.5937
17393TIP3    H273595   0.987   2.397  16.197  0.2433  0.6517 -2.1703
17394TIP3   OH273596   5.791   5.961  11.696 -0.4672  0.1031  0.1768
17394TIP3    H173597   5.771   5.869  11.679  2.3624 -1.0271  2.0648
17394TIP3    H273598   5.880   5.972  11.664  0.2562  1.3661  2.3828
17395TIP3   OH273599   1.121   3.726  16.281  0.1153  0.3164  0.1179
17395TIP3    H173600   1.149   3.806  16.325 -0.2072  0.7990 -0.5376
17395TIP3    H273601   1.042   3.700  16.329 -0.1419  0.7480 -0.0612
17396TIP3   OH273602   3.620   2.114   2.193  0.1841  0.3650 -0.7919
17396TIP3    H173603   3.582   2.192   2.153 -0.4455 -0.4251 -1.8088
17396TIP3    H273604   3.582   2.041   2.144  0.9140 -0.5773 -0.0117
17397TIP3   OH273605   4.656   1.243  16.504 -0.3532  0.1698 -0.3208
17397TIP3    H173606   4.618   1.325  16.473 -3.9148 -1.2693 -0.1838
17397TIP3    H273607   4.640   1.243  16.598 -1.7530 -1.2821 -0.5304
17398TIP3   OH273608   5.369   6.258  14.062  0.1229  0.2965  0.7516
17398TIP3    H173609   5.337   6.347  14.047 -0.2441 -0.0669 -0.7788
17398TIP3    H273610   5.408   6.261  14.149  1.9104  2.4956 -0.0213
17399TIP3   OH273611   1.612   5.884  12.621  0.9562  0.6934 -0.6611
17399TIP3    H173612   1.614   5.813  12.686 -0.8785  0.2300 -1.0457
17399TIP3    H273613   1.523   5.882  12.587  1.3719  2.1003 -1.9207
17400TIP3   OH273614   0.144   2.605  11.197 -0.2371  0.3581 -0.7068
17400TIP3    H173615   0.120   2.552  11.273  1.0764  1.7623  0.7390
17400TIP3    H273616   0.174   2.541  11.132 -0.2197 -0.7782  0.3924
17401TIP3   OH273617   2.931   0.185  16.023  0.0648  0.5024 -0.7679
17401TIP3    H173618   2.957   0.234  15.945  1.5184  2.9317  1.0752
17401TIP3    H273619   3.010   0.185  16.078 -0.9516 -1.0076  0.7843
17402TIP3   OH273620   4.921   2.339  15.074 -0.0504 -0.0453  0.0443
17402TIP3    H173621   5.003   2.376  15.042  0.5360 -0.9654  0.4656
17402TIP3    H273622   4.934   2.326  15.168 -0.3414 -1.0399 -0.0363
17403TIP3   OH273623   4.176   3.962  11.593 -0.0113  0.5830  0.1246
17403TIP3    H173624   4.118   3.908  11.539 -2.9000  0.2342  3.2837
17403TIP3    H273625   4.261   3.957  11.548 -1.2839 -2.5679 -2.3527
17404TIP3   OH273626   6.136   4.087  13.584  0.5436 -0.0592  0.3255
17404TIP3    H173627   6.219   4.109  13.542  1.4501 -1.4617  1.2823
17404TIP3    H273628   6.074   4.077  13.512  1.4116  0.2017 -0.4751
17405TIP3   OH273629   2.614   3.769   1.779  0.0273  0.1398 -0.5058
17405TIP3    H173630   2.708   3.786   1.776 -0.0666  1.0076  0.9201
17405TIP3    H273631   2.576   3.848   1.817 -1.0967 -0.8746  0.5468
17406TIP3   OH273632   0.475   6.133  15.926 -0.4746  0.3820  0.1154
17406TIP3    H173633   0.434   6.110  15.843  0.0924  1.3846 -0.4782
17406TIP3    H273634   0.442   6.221  15.945 -0.6265  0.1421  0.9718
17407TIP3   OH273635   0.195   6.647   2.093 -0.4749 -0.1407  0.1229
17407TIP3    H173636   0.290   6.630   2.094 -0.5108 -0.3722 -0.1115
17407TIP3    H273637   0.178   6.677   2.004 -0.9344 -2.0070 -0.4627
17408TIP3   OH273638   4.582   5.011   0.917 -0.1555 -0.2945  0.3771
17408TIP3    H173639   4.536   4.949   0.861 -0.1608  0.6989 -0.7443
17408TIP3    H273640   4.660   4.963   0.946  0.7042 -0.3427 -1.7953
17409TIP3   OH273641   5.938   4.947  13.652  0.2626 -0.1162  0.2229
17409TIP3    H173642   5.853   4.982  13.624 -1.1425 -3.4294 -0.1154
17409TIP3    H273643   5.990   4.942  13.571 -0.5233 -1.2721 -0.2389
17410TIP3   OH273644   3.716   6.071   2.179  0.4818  0.1364  0.2021
17410TIP3    H173645   3.775   6.147   2.184  2.1276 -1.0835  0.3585
17410TIP3    H273646   3.689   6.055   2.270  1.0905 -0.1555  0.3385
17411TIP3   OH273647   3.314   6.351   3.275  0.2518 -0.1461 -0.0562
17411TIP3    H173648   3.359   6.435   3.266  0.1081 -0.1521 -0.8965
17411TIP3    H273649   3.384   6.287   3.291  0.3486  0.1438  0.7450
17412TIP3   OH273650   5.941   1.629  11.605 -0.5272 -0.7791  0.3241
17412TIP3    H173651   5.966   1.540  11.627  0.1207 -1.2092 -1.9214
17412TIP3    H273652   5.989   1.684  11.667  0.6671 -1.9005  0.4318
17413TIP3   OH273653   0.110   2.547  10.764 -0.2680  0.4437  0.3244
17413TIP3    H173654   0.087   2.631  10.803 -0.3148  1.2173 -1.2879
17413TIP3    H273655   0.194   2.562  10.721 -0.4137 -0.2397 -0.2298
17414TIP3   OH273656   4.005   6.059   1.299 -0.0939  0.2967  0.1861
17414TIP3    H173657   3.916   6.032   1.324  0.4057 -0.9784  0.6450
17414TIP3    H273658   4.061   6.026   1.369  0.9274 -0.2990 -0.8756
17415TIP3   OH273659   0.611   0.536   5.160 -0.4743  0.7611  0.4168
17415TIP3    H173660   0.573   0.489   5.234 -0.1464  1.2917  0.9336
17415TIP3    H273661   0.690   0.487   5.139 -2.2503 -1.4096 -1.8156
17416TIP3   OH273662   0.151   0.192   5.874 -0.2828 -0.0869 -0.4426
17416TIP3    H173663   0.162   0.219   5.965  0.2504 -0.1001 -0.4998
17416TIP3    H273664   0.202   0.111   5.867  1.3679  0.9599 -1.2382
17417TIP3   OH273665   2.857   1.683  11.227  0.0129  0.0456  0.5319
17417TIP3    H173666   2.893   1.610  11.277  0.5185 -0.0916 -0.0249
17417TIP3    H273667   2.885   1.761  11.275  2.6852  0.0518 -0.8339
17418TIP3   OH273668   4.750   2.478   1.910 -0.4242  0.8912 -0.1349
17418TIP3    H173669   4.705   2.516   1.985  2.5198 -0.0793  2.3407
17418TIP3    H273670   4.815   2.544   1.885  0.7580 -0.0471  0.3452
17419TIP3   OH273671   4.712   6.698   2.114  0.0921  0.3583 -0.1370
17419TIP3    H173672   4.639   6.638   2.127 -0.2979  1.1340  1.5480
17419TIP3    H273673   4.760   6.695   2.197  1.4596  0.5477 -0.8923
17420TIP3   OH273674   1.034   5.541   2.043 -0.1339  0.1739  0.3811
17420TIP3    H173675   1.033   5.636   2.036  1.3937  0.1463 -0.6612
17420TIP3    H273676   1.101   5.523   2.110  1.6431 -0.1948 -1.3987
17421TIP3   OH273677   0.742   3.471  10.340  0.6545  0.0391  1.0352
17421TIP3    H173678   0.704   3.523  10.411  1.4344  0.7544  0.9426
17421TIP3    H273679   0.826   3.440  10.375  0.7617 -0.1121  0.6547
17422TIP3   OH273680   5.150   3.129  12.073 -0.2643  0.1486  0.3001
17422TIP3    H173681   5.223   3.187  12.050  0.1072 -0.6086 -0.5150
17422TIP3    H273682   5.143   3.069  11.998 -2.0735  0.5342  0.1020
17423TIP3   OH273683   5.979   1.257  12.944  0.8295  0.1331  0.3246
17423TIP3    H173684   5.959   1.284  12.854  0.2638 -2.4783 -0.4151
17423TIP3    H273685   5.899   1.276  12.993  1.5800  2.8197  0.6923
17424TIP3   OH273686   0.220   2.078  13.546  0.0163  0.3026 -0.1709
17424TIP3    H173687   0.233   2.132  13.468  0.2765  0.6259  0.0926
17424TIP3    H273688   0.128   2.053  13.543  0.2011 -0.3463 -1.0073
17425TIP3   OH273689   4.343   1.880   0.513  0.2747 -0.4116  0.0316
17425TIP3    H173690   4.305   1.796   0.486  0.8617 -0.1495 -1.7463
17425TIP3    H273691   4.302   1.944   0.456 -0.3248  0.5802  1.5180
17426TIP3   OH273692   1.534   2.349   4.581 -0.0415  0.4747  0.2801
17426TIP3    H173693   1.611   2.297   4.602 -0.4677  0.0496  0.8158
17426TIP3    H273694   1.492   2.302   4.509 -0.1621  0.3396  0.4378
17427TIP3   OH273695   6.294   3.159   2.512  0.2436 -0.1840  0.2072
17427TIP3    H173696   6.261   3.070   2.498  2.1128 -0.9262  0.1817
17427TIP3    H273697   6.342   3.154   2.595  2.8227 -0.0055 -1.1729
17428TIP3   OH273698   2.204   6.656  16.435 -0.0698  0.6916 -0.1100
17428TIP3    H173699   2.170   6.726  16.380 -0.6573  1.1042  0.7635
17428TIP3    H273700   2.193   6.687  16.524 -1.8371 -1.1511  0.3859
17429TIP3   OH273701   4.195   6.738  16.093 -0.0157  0.0396  0.7652
17429TIP3    H173702   4.138   6.811  16.117 -2.7379 -1.5374 -0.4559
17429TIP3    H273703   4.220   6.756  16.002 -0.6428 -0.4544  0.4826
17430TIP3   OH273704   1.782   0.062  12.267  0.9107 -0.2297 -0.2946
17430TIP3    H173705   1.718   0.025  12.327  1.9072 -0.7200  0.4994
17430TIP3    H273706   1.826   0.130  12.318 -2.2353  3.7001 -2.2895
17431TIP3   OH273707   1.561   1.817  12.244  0.2343  0.0284 -0.2191
17431TIP3    H173708   1.536   1.909  12.241 -0.8531 -0.2055  0.9065
17431TIP3    H273709   1.610   1.808  12.325 -1.3614 -0.7383  0.7216
17432TIP3   OH273710   6.438   0.351   3.341  0.0798 -0.7519  0.1030
17432TIP3    H173711   6.484   0.387   3.265 -1.1902 -0.1663 -0.4297
17432TIP3    H273712   6.506   0.337   3.406  0.9443  0.5629 -0.4721
17433TIP3   OH273713   3.599   1.542   0.455  0.4012  0.7569  0.0841
17433TIP3    H173714   3.541   1.476   0.491  1.1933 -0.6937 -1.1810
17433TIP3    H273715   3.640   1.583   0.532  0.4596 -0.7547  0.8974
17434TIP3   OH273716   2.524   3.379   5.389  0.2018  0.2729  0.1448
17434TIP3    H173717   2.551   3.395   5.480 -2.3308  1.8780  0.7120
17434TIP3    H273718   2.587   3.315   5.357  0.4443 -1.3831  3.4587
17435TIP3   OH273719   0.801   4.525  14.608 -0.1284 -0.0906 -0.4971
17435TIP3    H173720   0.879   4.478  14.578  0.6994  2.2013 -2.2151
17435TIP3    H273721   0.816   4.541  14.701  1.8710  0.9525 -0.9416
17436TIP3   OH273722   0.491   3.930   0.111 -0.0101 -0.2171 -0.3927
17436TIP3    H173723   0.512   3.889   0.195 -1.7674  1.5218  1.0013
17436TIP3    H273724   0.564   3.991   0.096  0.7060 -1.0952 -0.5555
17437TIP3   OH273725   5.756   5.103   0.854 -0.2716 -0.2699  0.0981
17437TIP3    H173726   5.667   5.074   0.877 -0.9231  0.7193 -1.0614
17437TIP3    H273727   5.745   5.195   0.828  0.8407 -0.5539 -1.5247
17438TIP3   OH273728   1.729   2.365  14.812  0.3336  0.0331  0.0227
17438TIP3    H173729   1.766   2.278  14.798  0.0083  0.0289 -0.8942
17438TIP3    H273730   1.644   2.349  14.853 -0.0313 -0.1262 -0.7801
17439TIP3   OH273731   6.061   0.630   3.100 -0.6454 -0.1259  0.4379
17439TIP3    H173732   6.003   0.605   3.028 -0.4059 -0.9285  0.5158
17439TIP3    H273733   6.005   0.626   3.178 -0.3714 -1.4583  0.5925
17440TIP3   OH273734   0.494   3.005  15.435 -0.5267  0.2927 -0.7005
17440TIP3    H173735   0.504   2.924  15.384 -0.0229  1.1319 -1.9771
17440TIP3    H273736   0.409   3.040  15.409 -0.7674  0.1666 -0.1106
17441TIP3   OH273737   2.293   2.933   3.271  0.1428  0.0148 -0.1344
17441TIP3    H173738   2.203   2.947   3.297  0.9886  1.0131  2.6174
17441TIP3    H273739   2.321   3.016   3.232  0.0407 -0.1269 -0.5173
17442TIP3   OH273740   6.430   5.954  13.357  0.3510  0.5534 -0.2368
17442TIP3    H173741   6.341   5.950  13.392 -0.2246 -0.1551 -1.6936
17442TIP3    H273742   6.485   5.927  13.430 -0.4400  2.5401  1.1858
17443TIP3   OH273743   0.449   4.156  15.456 -0.5849  0.4114 -0.1283
17443TIP3    H173744   0.488   4.107  15.528  0.6151 -0.5951 -1.3964
17443TIP3    H273745   0.373   4.200  15.494 -1.3667 -1.9316  1.2298
17444TIP3   OH273746   3.244   4.991   4.960 -0.4368  0.2806  0.2169
17444TIP3    H173747   3.159   4.998   5.004 -0.3729 -0.7287  0.5289
17444TIP3    H273748   3.305   5.037   5.018 -0.4110 -0.7675  1.0472
17445TIP3   OH273749   0.370   1.586  12.287 -0.0498 -0.3882  0.6007
17445TIP3    H173750   0.440   1.581  12.352  0.8245  0.1055 -0.2702
17445TIP3    H273751   0.315   1.659  12.315 -0.4991 -1.0636  1.5409
17446TIP3   OH273752   3.852   6.311   2.265  0.0064 -0.0462  0.2526
17446TIP3    H173753   3.761   6.339   2.259  0.3349  0.8771 -0.7781
17446TIP3    H273754   3.895   6.380   2.317 -0.4153 -1.9693  3.4251
17447TIP3   OH273755   0.368   0.071   1.943  0.6613 -0.4990 -0.0167
17447TIP3    H173756   0.368   0.148   1.886  0.3911 -1.3481 -1.2178
17447TIP3    H273757   0.324   0.100   2.023  1.2319  0.7836 -0.1490
17448TIP3   OH273758   4.509   2.745   2.384  0.3080 -0.3837 -0.2419
17448TIP3    H173759   4.468   2.810   2.441 -0.1835 -0.4947 -0.4544
17448TIP3    H273760   4.437   2.684   2.363  0.8875 -1.3112  0.4119
17449TIP3   OH273761   1.430   4.852  16.096  0.3845 -0.0689  0.5474
17449TIP3    H173762   1.372   4.877  16.024 -2.7385 -3.0042  1.7642
17449TIP3    H273763   1.484   4.782  16.061  0.8589  0.3896  0.3439
17450TIP3   OH273764   3.000   3.992  17.027  0.5221  0.0495 -0.6731
17450TIP3    H173765   2.909   3.962  17.019  0.4024  0.4228 -0.7272
17450TIP3    H273766   2.998   4.081  16.993  1.4274 -0.8465 -3.3740
17451TIP3   OH273767   5.229   1.938  14.218 -0.6827 -0.2186  0.5166
17451TIP3    H173768   5.158   1.930  14.155 -0.5840  0.2251  0.3495
17451TIP3    H273769   5.186   1.956  14.302 -0.7040  1.6505  0.1349
17452TIP3   OH273770   2.065   6.353  16.927 -0.7416  0.0536 -0.6889
17452TIP3    H173771   2.023   6.387  17.007  1.0231  0.3887  0.1464
17452TIP3    H273772   2.076   6.430  16.871 -2.4344 -0.2654 -1.5016
17453TIP3   OH273773   0.355   6.373  13.209 -0.1733  0.2171 -0.0584
17453TIP3    H173774   0.266   6.343  13.188 -0.9646  1.7055  1.0381
17453TIP3    H273775   0.353   6.392  13.302  1.8183 -1.3089  0.3785
17454TIP3   OH273776   4.528   4.398   0.454  0.1030  0.7626 -0.0941
17454TIP3    H173777   4.568   4.366   0.373  0.9297  0.4764  0.4146
17454TIP3    H273778   4.559   4.488   0.463 -0.5781  1.0424 -0.4644
17455TIP3   OH273779   4.104   1.427  14.996  0.0398  0.3953 -0.3318
17455TIP3    H173780   4.094   1.412  14.902 -1.5523  1.0121 -0.2902
17455TIP3    H273781   4.140   1.344  15.030 -1.5380 -0.6989 -1.1754
17456TIP3   OH273782   4.388   5.477  11.600  0.4709 -0.2623  0.0510
17456TIP3    H173783   4.425   5.536  11.534  1.1180 -1.1945 -0.4322
17456TIP3    H273784   4.300   5.457  11.568  0.8908 -0.9463 -0.6924
17457TIP3   OH273785   2.475   5.015  14.135 -0.0928 -0.4586  0.7517
17457TIP3    H173786   2.552   5.062  14.167  1.2952 -0.0136 -2.7937
17457TIP3    H273787   2.503   4.923  14.133  0.1648 -0.3666 -0.0175
17458TIP3   OH273788   4.972   3.290  13.461  0.1071  0.2573  0.0215
17458TIP3    H173789   5.053   3.307  13.509 -1.1072  2.0385  1.5823
17458TIP3    H273790   4.999   3.283  13.369  2.0540  0.4423  0.5469
17459TIP3   OH273791   4.152   4.867  12.831  0.1996 -0.2506 -0.2160
17459TIP3    H173792   4.238   4.859  12.873  0.4046 -2.1542 -0.8801
17459TIP3    H273793   4.089   4.847  12.900  0.3084  0.6495  0.1502
17460TIP3   OH273794   3.296   3.861   3.431 -0.0609 -0.5611 -0.6057
17460TIP3    H173795   3.376   3.873   3.482 -1.0099 -0.8935  1.0201
17460TIP3    H273796   3.324   3.814   3.352  1.4427  0.0010 -0.4324
17461TIP3   OH273797   2.371   1.043   4.448  0.2112  0.4658  0.2957
17461TIP3    H173798   2.443   0.995   4.488  1.7508  1.7498 -0.8127
17461TIP3    H273799   2.413   1.116   4.402 -1.6273  0.2172 -1.9581
17462TIP3   OH273800   5.986   4.390  13.132 -0.2341  0.0319 -0.5011
17462TIP3    H173801   6.058   4.418  13.189 -0.9917  0.4056  0.3000
17462TIP3    H273802   5.943   4.321  13.181 -0.5478 -0.0489 -0.8900
17463TIP3   OH273803   5.881   2.484  12.312  0.3304  0.2537 -0.7031
17463TIP3    H173804   5.818   2.463  12.242  0.0592  1.4033 -0.8166
17463TIP3    H273805   5.838   2.453  12.392  1.1540 -2.1838 -1.1212
17464TIP3   OH273806   5.202   0.786  13.474  0.5624 -0.3738  0.4030
17464TIP3    H173807   5.209   0.736  13.556  2.3570  0.4196  0.7686
17464TIP3    H273808   5.272   0.751  13.419 -0.4333 -0.6828 -0.6955
17465TIP3   OH273809   0.522   4.787   3.701  0.2895  0.0219  0.6014
17465TIP3    H173810   0.608   4.808   3.739  0.1736  1.4055  0.1631
17465TIP3    H273811   0.507   4.857   3.637 -0.3453 -1.2300 -0.6693
17466TIP3   OH273812   0.365   4.261   4.372  0.2689  0.3281 -0.0538
17466TIP3    H173813   0.302   4.196   4.341  1.1961 -0.3666 -0.5257
17466TIP3    H273814   0.328   4.294   4.454 -0.2052 -0.8257  0.2058
17467TIP3   OH273815   3.622   3.247   2.466  0.1006  0.4575  0.5603
17467TIP3    H173816   3.629   3.341   2.481  0.4748  0.5806 -0.3747
17467TIP3    H273817   3.641   3.208   2.552  0.7050  1.2021  0.7755
17468TIP3   OH273818   3.684   5.889   4.280  0.0029 -0.2901  0.2311
17468TIP3    H173819   3.685   5.971   4.329 -1.1865  0.6708 -1.2728
17468TIP3    H273820   3.612   5.839   4.319  1.5322 -1.2293  2.0044
17469TIP3   OH273821   1.083   5.814   0.416 -0.2223  0.8397 -0.0199
17469TIP3    H173822   1.079   5.724   0.448  0.7442  1.2571  1.3401
17469TIP3    H273823   1.146   5.811   0.344 -0.0275  0.4704  0.1609
17470TIP3   OH273824   5.740   4.528   1.911 -0.3457 -0.6245 -0.4485
17470TIP3    H173825   5.655   4.485   1.902 -0.3170 -0.2417 -3.3711
17470TIP3    H273826   5.801   4.456   1.930 -1.1229 -1.0216  0.7067
17471TIP3   OH273827   2.018   2.731   3.564  0.5455 -0.2927 -0.7003
17471TIP3    H173828   2.042   2.757   3.652  0.5272 -1.4902 -0.3205
17471TIP3    H273829   1.995   2.812   3.520 -0.3973  0.2177  0.6845
17472TIP3   OH273830   4.620   5.187  13.596  0.0932  0.4940  0.2111
17472TIP3    H173831   4.626   5.271  13.641 -0.9175  1.9687 -2.1994
17472TIP3    H273832   4.683   5.194  13.524 -1.3232  0.0011 -1.1333
17473TIP3   OH273833   0.360   0.675  11.243  0.1262  0.2839 -0.2019
17473TIP3    H173834   0.439   0.728  11.231  2.1250 -1.9077  2.0141
17473TIP3    H273835   0.325   0.704  11.327 -0.4831  0.1434 -0.4087
17474TIP3   OH273836   4.551   1.520  13.848 -0.4198 -0.0934  0.8075
17474TIP3    H173837   4.628   1.471  13.876 -1.8012 -3.2075 -0.3359
17474TIP3    H273838   4.562   1.606  13.888  2.1119 -1.3416  3.2292
17475TIP3   OH273839   0.680   2.102   2.376  0.0828  0.0361 -0.2727
17475TIP3    H173840   0.590   2.079   2.355 -0.3026  0.9145  0.3664
17475TIP3    H273841   0.686   2.090   2.471  1.0209 -1.2704 -0.4638
17476TIP3   OH273842   5.561   5.609   1.262  0.0945 -0.1298  0.2726
17476TIP3    H173843   5.652   5.619   1.288 -0.1705 -0.3546  1.3507
17476TIP3    H273844   5.535   5.697   1.233 -0.0864  0.6316  2.5278
17477TIP3   OH273845   1.973   6.739   2.599 -0.2231  0.4856 -0.5216
17477TIP3    H173846   2.011   6.826   2.606  0.3398  0.1880  0.1938
17477TIP3    H273847   1.951   6.714   2.689 -0.6279 -0.0067 -0.7449
17478TIP3   OH273848   3.752   1.721   3.444 -0.2523 -0.2977 -0.7641
17478TIP3    H173849   3.679   1.762   3.491 -1.1517 -0.4649 -1.9450
17478TIP3    H273850   3.714   1.641   3.408  0.7483 -0.7911 -0.7246
17479TIP3   OH273851   1.257   5.262   6.518  0.0103 -0.4476  0.1656
17479TIP3    H173852   1.180   5.285   6.571  0.0600 -0.8399  0.4084
17479TIP3    H273853   1.258   5.166   6.517  0.3456 -0.4425 -0.0603
17480TIP3   OH273854   1.734   4.443   5.760  0.3792 -0.1918 -0.4444
17480TIP3    H173855   1.789   4.417   5.686 -1.1954 -0.8478 -1.4417
17480TIP3    H273856   1.650   4.398   5.744 -0.1287 -0.0132  1.5278
17481TIP3   OH273857   6.652   0.217  16.929  0.0357 -0.0844  0.1369
17481TIP3    H173858   6.742   0.218  16.962 -0.3292 -0.4758  1.1846
17481TIP3    H273859   6.612   0.142  16.972 -0.9596  0.4182  0.1125
17482TIP3   OH273860   2.127   2.412  15.164 -0.2826  0.3206  0.5805
17482TIP3    H173861   2.073   2.351  15.114  0.0079 -0.8144  1.6125
17482TIP3    H273862   2.182   2.357  15.219  0.5275  1.5040  1.0091
17483TIP3   OH273863   0.065   2.360   0.898  0.3433  0.1245 -0.1620
17483TIP3    H173864   0.081   2.324   0.985 -1.5487  1.5091  0.8295
17483TIP3    H273865   0.144   2.410   0.878  1.2409 -1.0586  0.2529
17484TIP3   OH273866   4.019   4.592  13.230 -0.0138 -0.1436  0.1564
17484TIP3    H173867   4.038   4.550  13.313 -1.0917 -1.0300 -0.0141
17484TIP3    H273868   4.066   4.675  13.233  0.0535 -0.2113  1.5998
17485TIP3   OH273869   1.074   6.121   3.558  0.2727  0.3702  0.2329
17485TIP3    H173870   1.099   6.156   3.643  1.1758  1.8044 -0.5974
17485TIP3    H273871   1.020   6.189   3.518 -1.4771 -0.9194  0.2317
17486TIP3   OH273872   1.546   4.186   3.288 -0.0979  0.2563  0.0459
17486TIP3    H173873   1.491   4.193   3.209  0.2589 -0.3191 -0.2634
17486TIP3    H273874   1.539   4.094   3.313 -3.3950  1.1096  3.0433
17487TIP3   OH273875   0.120   1.182  13.495 -0.4767  0.2161  0.5402
17487TIP3    H173876   0.177   1.189  13.418 -2.2484  2.6993 -0.7152
17487TIP3    H273877   0.057   1.113  13.472 -1.2396  1.2121 -0.4935
17488TIP3   OH273878   0.772   4.904   5.100  0.1464  0.3600 -0.5390
17488TIP3    H173879   0.799   4.834   5.041  1.2298 -0.3609  0.7585
17488TIP3    H273880   0.759   4.980   5.042 -1.9184 -1.0495 -2.1047
17489TIP3   OH273881   1.470   6.432  16.322  0.1807 -0.2061  0.0553
17489TIP3    H173882   1.425   6.370  16.266  1.5317  0.0775 -1.4336
17489TIP3    H273883   1.402   6.470  16.377 -1.4249  0.2959 -2.1631
17490TIP3   OH273884   4.702   4.141  15.513  0.8255 -0.6997 -0.5215
17490TIP3    H173885   4.626   4.191  15.483  0.3353 -1.3707 -0.4208
17490TIP3    H273886   4.776   4.181  15.468  0.3210 -0.5223 -1.2158
17491TIP3   OH273887   5.300   3.647  14.458 -0.0993  0.0375  0.4271
17491TIP3    H173888   5.309   3.600  14.540  1.1453  0.3786  0.4934
17491TIP3    H273889   5.220   3.611  14.419  0.2268 -1.3497  0.9769
17492TIP3   OH273890   0.183   6.157   2.346 -0.4206  0.3733 -0.4845
17492TIP3    H173891   0.104   6.179   2.297 -0.4952 -0.0265 -0.5468
17492TIP3    H273892   0.227   6.091   2.293  0.2199  0.9611 -0.6978
17493TIP3   OH273893   2.006   4.291   2.843 -0.1329  0.4564  0.5888
17493TIP3    H173894   2.029   4.313   2.933  2.4049  0.3283  0.0395
17493TIP3    H273895   1.990   4.375   2.800  2.4795  0.8649  0.2654
17494TIP3   OH273896   2.846   5.244   1.877 -0.5370  0.3182 -0.0302
17494TIP3    H173897   2.822   5.210   1.963 -0.0500  1.9026  0.7666
17494TIP3    H273898   2.906   5.316   1.895 -2.7283  2.6770 -1.5131
17495TIP3   OH273899   3.625   3.372   1.736 -0.1357 -0.2444  0.0938
17495TIP3    H173900   3.700   3.325   1.773 -0.2861 -1.5244 -1.1601
17495TIP3    H273901   3.548   3.324   1.768 -0.4840  1.1697  1.5308
17496TIP3   OH273902   2.110   0.753  16.737  1.1638  0.6417  0.0159
17496TIP3    H173903   2.197   0.793  16.737  0.8221  1.5962  2.9094
17496TIP3    H273904   2.104   0.708  16.821 -1.7008  1.9922  0.6684
17497TIP3   OH273905   6.471   6.402  14.424 -0.1458 -0.5091 -0.1537
17497TIP3    H173906   6.520   6.333  14.469  1.0143 -1.4611 -2.6840
17497TIP3    H273907   6.411   6.355  14.367 -1.1943  0.6443 -0.0516
17498TIP3   OH273908   1.859   4.609   2.218 -0.3342  0.9376  0.4022
17498TIP3    H173909   1.950   4.606   2.189  0.2428  1.5821  1.9958
17498TIP3    H273910   1.817   4.535   2.174  1.1738  0.1003  0.2979
17499TIP3   OH273911   0.927   4.670   1.660  0.4377 -0.4534 -0.3227
17499TIP3    H173912   0.990   4.626   1.717  2.5602  0.2218 -2.0519
17499TIP3    H273913   0.969   4.674   1.575 -1.1596  1.7138 -1.1073
17500TIP3   OH273914   6.306   0.410  12.547 -0.0594 -0.1177 -1.0346
17500TIP3    H173915   6.342   0.498  12.536 -2.5233  1.1467  0.0663
17500TIP3    H273916   6.239   0.420  12.615 -0.9452 -2.6972 -1.4147
17501TIP3   OH273917   5.697   0.431  13.304 -0.0581 -0.0558 -0.3319
17501TIP3    H173918   5.760   0.499  13.282 -0.5084  1.0649  1.5814
17501TIP3    H273919   5.749   0.351  13.313  0.6529  0.2600 -1.4870
17502TIP3   OH273920   4.348   6.198  13.407 -0.0032 -0.0367 -0.2630
17502TIP3    H173921   4.420   6.255  13.433 -0.9543  1.3673 -0.5927
17502TIP3    H273922   4.288   6.199  13.482  0.7625 -2.0697  0.4617
17503TIP3   OH273923   5.210   6.750  13.634 -0.5963 -0.2188  0.2127
17503TIP3    H173924   5.221   6.761  13.729  0.0991  0.1426  0.0989
17503TIP3    H273925   5.126   6.706  13.625  0.6185 -2.9670  1.1634
17504TIP3   OH273926   6.254   2.014  15.871 -0.1675 -0.1976  0.1935
17504TIP3    H173927   6.217   1.938  15.916  0.3806 -1.3865 -1.2744
17504TIP3    H273928   6.342   1.987  15.847 -0.4905  0.3033 -1.7096
17505TIP3   OH273929   3.132   3.302  16.813 -0.0645  0.2324  0.2975
17505TIP3    H173930   3.156   3.395  16.819 -1.6697  0.9616 -2.7028
17505TIP3    H273931   3.198   3.263  16.756 -0.8877  0.1755 -0.6348
17506TIP3   OH273932   4.496   1.450  16.946 -0.5996  0.0996 -0.3944
17506TIP3    H173933   4.537   1.454  17.032 -0.1117  1.6067 -0.6648
17506TIP3    H273934   4.419   1.395  16.958  2.0529 -3.9593 -0.1238
17507TIP3   OH273935   6.350   5.262  15.693 -0.6850  0.2380  0.1837
17507TIP3    H173936   6.426   5.216  15.659 -1.1714 -0.7637  0.4284
17507TIP3    H273937   6.378   5.354  15.698 -0.0537  0.1480 -1.2836
17508TIP3   OH273938   6.189   5.117   2.624  0.9321 -0.1232 -0.8077
17508TIP3    H173939   6.261   5.109   2.687  0.3411 -0.9572 -0.2090
17508TIP3    H273940   6.146   5.199   2.648 -0.1577 -1.1180  0.8624
17509TIP3   OH273941   4.117   2.460  16.596 -0.3966 -0.3755  0.3258
17509TIP3    H173942   4.108   2.516  16.519 -1.0608 -1.6804 -0.5866
17509TIP3    H273943   4.211   2.457  16.613 -0.2345 -0.1284 -0.4807
17510TIP3   OH273944   5.223   5.449  10.907  0.2261  0.2510  0.2329
17510TIP3    H173945   5.180   5.533  10.922  0.6789  0.4502  0.4566
17510TIP3    H273946   5.273   5.434  10.987 -0.5561 -0.6716  0.5654
17511TIP3   OH273947   1.276   0.986  15.092  0.3702 -0.1791  0.3932
17511TIP3    H173948   1.232   1.050  15.148 -0.1798 -0.8073  0.6944
17511TIP3    H273949   1.366   0.985  15.123  0.4718  0.6843  0.1621
17512TIP3   OH273950   2.167   4.045  12.527  0.1789  0.1255  0.4522
17512TIP3    H173951   2.197   4.131  12.497  0.0169 -0.2091 -0.7288
17512TIP3    H273952   2.091   4.063  12.582  0.6325  0.7841  0.8743
17513TIP3   OH273953   6.443   3.043   4.618  0.3662  0.2027 -0.2664
17513TIP3    H173954   6.409   2.974   4.675 -0.5976  0.8834  0.0136
17513TIP3    H273955   6.533   3.056   4.646  0.7520 -1.3567 -0.7316
17514TIP3   OH273956   3.972   4.947  12.307 -0.0183 -0.1906 -0.5523
17514TIP3    H173957   3.940   4.996  12.382  1.0373 -1.9958  1.1705
17514TIP3    H273958   4.065   4.935  12.324  0.0236 -1.6096 -1.5617
17515TIP3   OH273959   2.476   2.385   0.727 -0.1933 -0.1823 -0.0377
17515TIP3    H173960   2.482   2.339   0.810 -1.1511 -1.0051 -0.4074
17515TIP3    H273961   2.557   2.436   0.721 -0.6822  0.9321  1.9979
17516TIP3   OH273962   3.040   4.217  13.306  0.1705  0.6186 -0.5248
17516TIP3    H173963   3.029   4.171  13.223 -1.6401 -1.7355  0.9020
17516TIP3    H273964   3.119   4.179  13.344 -0.0156  0.4027 -0.3597
17517TIP3   OH273965   3.497   1.925  14.278 -0.2788  0.1096  1.0028
17517TIP3    H173966   3.424   1.954  14.223  1.3519  1.2612 -0.6797
17517TIP3    H273967   3.517   1.837  14.247 -1.2222 -0.4027  1.7999
17518TIP3   OH273968   6.433   1.465  15.731  0.1631 -0.4674 -0.2894
17518TIP3    H173969   6.495   1.536  15.750  1.2733 -1.3218 -0.6304
17518TIP3    H273970   6.468   1.390  15.778 -1.5025 -0.6019  0.8271
17519TIP3   OH273971   2.718   5.159  15.507  0.1035 -0.2591  0.3346
17519TIP3    H173972   2.789   5.095  15.495  0.3479  0.2889 -1.5378
17519TIP3    H273973   2.762   5.244  15.503 -0.2255  0.0807  2.7402
17520TIP3   OH273974   3.787   5.937   6.540  0.0504 -0.0796  0.0606
17520TIP3    H173975   3.694   5.945   6.563 -0.1535  0.1146 -0.7800
17520TIP3    H273976   3.813   5.851   6.573  0.5074  1.1671  3.4001
17521TIP3   OH273977   4.865   2.521  16.663  0.7487 -0.1321 -0.0752
17521TIP3    H173978   4.886   2.459  16.592  0.1206  0.0321 -0.4150
17521TIP3    H273979   4.776   2.550  16.643  0.8592  0.5150  0.3535
17522TIP3   OH273980   0.020   2.489  13.486  0.2866 -0.3164  0.7641
17522TIP3    H173981  -0.066   2.454  13.510 -1.4794  2.4450 -1.0203
17522TIP3    H273982   0.058   2.421  13.430 -0.7725 -1.5221  1.4467
17523TIP3   OH273983   3.865   6.375  16.213 -0.6186  0.1152  0.6875
17523TIP3    H173984   3.863   6.343  16.303 -0.5640  1.0879  1.0413
17523TIP3    H273985   3.882   6.468  16.221 -0.2260  0.1436 -0.3518
17524TIP3   OH273986   4.790   3.755   1.533  0.2515  0.1067  0.0437
17524TIP3    H173987   4.746   3.675   1.506  2.5157 -1.5652  1.0158
17524TIP3    H273988   4.731   3.794   1.598 -1.6531  0.1777 -1.6163
17525TIP3   OH273989   0.472   0.317   0.936 -0.2122  0.1084 -0.5683
17525TIP3    H173990   0.524   0.371   0.877  0.9825 -0.5252 -0.1146
17525TIP3    H273991   0.520   0.317   1.019 -1.2031 -0.0616  0.0357
17526TIP3   OH273992   1.701   1.867  15.926  0.2334  0.3731 -0.3606
17526TIP3    H173993   1.643   1.931  15.966  0.2020  0.4378 -0.5094
17526TIP3    H273994   1.789   1.904  15.939  0.3295 -0.1851  0.7170
17527TIP3   OH273995   1.029   3.980   5.123  0.1233  0.4247 -0.0463
17527TIP3    H173996   0.946   3.944   5.153 -1.2500  1.1492 -2.6710
17527TIP3    H273997   1.072   3.907   5.079  1.1659 -0.0851  1.7478
17528TIP3   OH273998   1.399   1.362   3.725  0.0698 -0.2757  0.8551
17528TIP3    H173999   1.446   1.410   3.793  1.5599 -2.0254  1.1387
17528TIP3    H274000   1.319   1.333   3.768 -1.8057  3.2820  0.1837
17529TIP3   OH274001   3.528   4.325  15.599  0.1269 -0.6555  0.0659
17529TIP3    H174002   3.582   4.284  15.667 -0.0798  0.9516  1.2523
17529TIP3    H274003   3.454   4.362  15.647  0.4003  1.2399 -0.9186
17530TIP3   OH274004   2.976   5.678   1.086  0.0612 -0.1898  0.3260
17530TIP3    H174005   2.956   5.733   1.162  3.0109 -0.3688  1.3604
17530TIP3    H274006   3.048   5.622   1.115  0.4856 -1.1169 -2.2402
17531TIP3   OH274007   0.354   6.302   1.020  0.0027 -0.0873 -0.1192
17531TIP3    H174008   0.350   6.209   1.045 -1.2565 -0.8293 -2.7203
17531TIP3    H274009   0.262   6.331   1.023  0.4840  1.4122  1.6100
17532TIP3   OH274010   2.872   5.795  12.615  0.2788  0.1217  0.4077
17532TIP3    H174011   2.941   5.854  12.583  0.4299 -0.6015 -0.6663
17532TIP3    H274012   2.792   5.830  12.576 -0.5196  2.6452  3.8663
17533TIP3   OH274013   5.924   6.720   2.848 -0.0988  0.0035 -0.6858
17533TIP3    H174014   6.000   6.771   2.817  3.2057 -2.8969  1.7996
17533TIP3    H274015   5.898   6.764   2.929 -0.7611  0.6454 -1.2273
17534TIP3   OH274016   0.910   5.689  10.504 -0.2844  0.2679 -0.5236
17534TIP3    H174017   0.879   5.600  10.486 -0.9456  0.1404  1.0734
17534TIP3    H274018   0.854   5.745  10.450 -0.0813 -0.2454 -1.2911
17535TIP3   OH274019   3.800   4.497  14.123 -0.2454 -0.6943 -0.1243
17535TIP3    H174020   3.838   4.486  14.210  1.8716 -1.8463 -1.1033
17535TIP3    H274021   3.747   4.419  14.109  1.1344 -1.5698 -0.6361
17536TIP3   OH274022   6.494   5.041   0.721 -0.1027  0.0772  0.6843
17536TIP3    H174023   6.515   5.025   0.813  0.0067 -0.4000  0.5818
17536TIP3    H274024   6.501   4.955   0.680 -0.6892  0.1887  0.3323
17537TIP3   OH274025   0.457   3.821   4.048  0.3096 -0.2066 -0.2308
17537TIP3    H174026   0.515   3.809   3.972  0.1679 -0.4447 -0.3034
17537TIP3    H274027   0.447   3.733   4.084 -0.7516 -0.3282 -0.7710
17538TIP3   OH274028   6.166   5.197  14.941 -0.0524  0.7377  0.0161
17538TIP3    H174029   6.117   5.257  14.886  0.0334  1.1379  0.3686
17538TIP3    H274030   6.134   5.110  14.917  0.2094  0.8800 -0.8850
17539TIP3   OH274031   2.862   0.574   2.088  0.1362  0.3094 -0.6050
17539TIP3    H174032   2.853   0.648   2.148 -2.2350 -1.5836  1.5539
17539TIP3    H274033   2.772   0.550   2.066  0.8637 -1.5560 -1.7550
17540TIP3   OH274034   4.622   0.764   4.236  0.7245  0.5829  0.2627
17540TIP3    H174035   4.533   0.763   4.270  1.1239  1.1628  1.4166
17540TIP3    H274036   4.617   0.812   4.154 -0.2904 -0.8651 -0.5638
17541TIP3   OH274037   0.529   2.509   3.464 -0.0215  0.7179  0.5560
17541TIP3    H174038   0.583   2.499   3.385  1.5485 -0.0025  1.6632
17541TIP3    H274039   0.523   2.603   3.478  1.3204  0.8210  0.6087
17542TIP3   OH274040   4.656   6.474   2.835  0.0043 -0.0462  0.5270
17542TIP3    H174041   4.588   6.496   2.771  1.3280  0.2108 -0.8240
17542TIP3    H274042   4.694   6.558   2.860 -0.4893 -0.1464  1.6679
17543TIP3   OH274043   0.862   2.151  14.282  0.0449  0.1900 -0.0459
17543TIP3    H174044   0.796   2.100  14.330 -0.3764  0.0670 -0.7355
17543TIP3    H274045   0.865   2.111  14.195  0.9792  0.2497 -0.0524
17544TIP3   OH274046   5.396   0.044   2.494  0.2040  0.1404  0.0616
17544TIP3    H174047   5.395  -0.032   2.553  1.6045 -0.6167 -0.8355
17544TIP3    H274048   5.370   0.118   2.550  2.8611 -0.2746  2.0327
17545TIP3   OH274049   1.876   5.120   4.722  0.0324  0.4560 -0.4545
17545TIP3    H174050   1.859   5.028   4.739  1.3709  0.0083 -1.3538
17545TIP3    H274051   1.955   5.139   4.774 -0.7606  1.3679  0.4669
17546TIP3   OH274052   3.695   6.785  16.038 -0.7206  0.2353  0.1483
17546TIP3    H174053   3.721   6.724  15.970  0.3502  0.2863  0.4849
17546TIP3    H274054   3.654   6.857  15.991 -0.8220 -0.1469 -0.3615
17547TIP3   OH274055   0.286   4.852  15.195 -0.1887  0.2466 -0.3086
17547TIP3    H174056   0.198   4.839  15.228  0.1716  1.3436  1.1748
17547TIP3    H274057   0.330   4.768  15.207 -0.4095  0.3042  0.9871
17548TIP3   OH274058   6.114   0.505  12.221 -0.2364  0.5783  0.2650
17548TIP3    H174059   6.130   0.585  12.270  3.2335  1.0211 -1.2480
17548TIP3    H274060   6.086   0.441  12.287 -0.2798  2.2975  1.9877
17549TIP3   OH274061   3.156   2.930   5.780 -0.5247  0.6697 -0.7211
17549TIP3    H174062   3.108   2.852   5.809  2.2434 -0.8856  0.1032
17549TIP3    H274063   3.132   2.997   5.844 -0.2592 -0.5950  0.7972
17550TIP3   OH274064   0.099   0.499  14.395 -0.5888  0.1166  0.4115
17550TIP3    H174065   0.084   0.585  14.355 -1.0004  0.1301  0.5907
17550TIP3    H274066   0.022   0.448  14.371 -0.8849  0.1541  1.2597
17551TIP3   OH274067   4.551   6.401   3.328  0.3444 -0.4158  0.6311
17551TIP3    H174068   4.503   6.456   3.389 -0.5429 -0.8259  0.3104
17551TIP3    H274069   4.643   6.421   3.346  0.0648  1.9245 -0.1419
17552TIP3   OH274070   3.965   2.085  15.537  0.2651 -0.2374 -0.3196
17552TIP3    H174071   3.981   1.992  15.519  2.6590 -0.0127  0.2688
17552TIP3    H274072   3.875   2.100  15.508  0.0903 -2.5363 -1.1928
17553TIP3   OH274073   3.908   2.585  14.466  0.3430 -0.2799 -0.3452
17553TIP3    H174074   3.934   2.600  14.557  0.4853 -0.3785 -0.3689
17553TIP3    H274075   3.897   2.673  14.430  1.8088 -0.1914 -0.6643
17554TIP3   OH274076   3.769   3.975   1.650  0.8793 -0.3763  0.1032
17554TIP3    H174077   3.807   4.059   1.675  1.3367 -0.6525  0.3708
17554TIP3    H274078   3.839   3.932   1.600  0.9601 -0.9254  0.6715
17555TIP3   OH274079   3.794   1.282   4.727  0.0604 -0.8306  0.4072
17555TIP3    H174080   3.795   1.206   4.670 -3.5143 -2.3589  2.0546
17555TIP3    H274081   3.875   1.276   4.777  1.0886 -2.0376 -1.3266
17556TIP3   OH274082   5.402   1.162   1.441 -0.6305  0.3371 -0.2951
17556TIP3    H174083   5.361   1.226   1.383 -0.0358  2.1811  1.2372
17556TIP3    H274084   5.349   1.165   1.521 -0.8489 -1.4347 -0.3341
17557TIP3   OH274085   3.542   2.784  15.778 -0.1631  0.0342 -0.1302
17557TIP3    H174086   3.549   2.700  15.823  2.2368 -1.4031 -2.8275
17557TIP3    H274087   3.526   2.761  15.686 -0.2505  2.5777 -0.8443
17558TIP3   OH274088   3.755   3.915  15.987 -0.1422  0.5384 -0.2938
17558TIP3    H174089   3.716   4.000  16.008  0.5378  0.3933  1.7322
17558TIP3    H274090   3.848   3.934  15.974 -0.0209  0.1326 -0.0267
17559TIP3   OH274091   5.325   5.961   4.468 -1.1940  0.0124 -0.3564
17559TIP3    H174092   5.417   5.935   4.463 -0.8639  0.5947  1.7235
17559TIP3    H274093   5.286   5.899   4.529 -1.5585  1.2706  0.7318
17560TIP3   OH274094   4.033   6.141   4.362  0.0718 -0.2695 -0.2741
17560TIP3    H174095   4.084   6.065   4.337  0.8146  0.2070 -0.2319
17560TIP3    H274096   4.092   6.215   4.350 -0.6102  0.2942 -0.2360
17561TIP3   OH274097   4.395   3.482   1.323  0.0145 -0.8149 -0.3623
17561TIP3    H174098   4.425   3.451   1.238 -0.2067  2.3994 -1.7656
17561TIP3    H274099   4.300   3.488   1.315  0.0503  0.2025 -0.1827
17562TIP3   OH274100   1.716   0.907   0.102 -0.4729  0.4671 -0.2111
17562TIP3    H174101   1.810   0.895   0.110 -0.7075 -0.3355  1.9612
17562TIP3    H274102   1.684   0.825   0.064 -0.5808 -0.5223  1.8972
17563TIP3   OH274103   1.187   1.871   2.340  0.2913 -0.4475 -0.5118
17563TIP3    H174104   1.192   1.792   2.394 -0.3395  0.7442  1.3989
17563TIP3    H274105   1.095   1.897   2.345  0.7321  1.0945 -0.0326
17564TIP3   OH274106   0.518   3.648   1.386  0.1624  0.4768 -0.3736
17564TIP3    H174107   0.480   3.594   1.455  0.7406 -1.9727 -1.8137
17564TIP3    H274108   0.612   3.647   1.403  0.0831  2.4545  0.4584
17565TIP3   OH274109   0.652   0.001   2.235  0.2224 -0.7320 -0.4513
17565TIP3    H174110   0.724  -0.061   2.247 -0.5423 -1.4104  0.8656
17565TIP3    H274111   0.694   0.087   2.233  1.0674 -1.1138  0.2127
17566TIP3   OH274112   3.294   6.716   2.098  0.1467 -0.2425 -0.2128
17566TIP3    H174113   3.366   6.724   2.160  0.3832  0.8431 -0.5953
17566TIP3    H274114   3.305   6.790   2.039 -2.0963  0.8356  0.5710
17567TIP3   OH274115   5.910   5.269   0.312  0.1223  0.0845 -0.1197
17567TIP3    H174116   5.998   5.267   0.275  1.1611  2.1927  1.9571
17567TIP3    H274117   5.914   5.208   0.386  0.3769  1.2846  0.9011
17568TIP3   OH274118   2.094   1.914  15.329  0.1168  0.8007  0.1473
17568TIP3    H174119   2.161   1.888  15.392  1.2866 -1.4953 -1.8493
17568TIP3    H274120   2.023   1.949  15.382  0.5295 -2.0364  2.8655
17569TIP3   OH274121   4.389   5.377  11.918 -0.3582 -0.4042 -0.5860
17569TIP3    H174122   4.400   5.469  11.896  0.7789  0.5086  3.1197
17569TIP3    H274123   4.441   5.330  11.853  2.3048  1.9159 -0.2919
17570TIP3   OH274124   5.309   5.914  15.107  0.3130  0.3619 -0.1365
17570TIP3    H174125   5.352   5.834  15.138 -3.3996 -1.1918  1.6739
17570TIP3    H274126   5.339   5.924  15.017  1.5601 -2.5826 -0.1764
17571TIP3   OH274127   4.222   0.497   3.803 -0.0876  0.4435  0.0327
17571TIP3    H174128   4.202   0.403   3.810 -1.5320  0.7924  1.2159
17571TIP3    H274129   4.303   0.507   3.853 -0.3241 -0.0752  0.5404
17572TIP3   OH274130   5.958   2.898   0.315 -0.6260 -0.2494 -0.1942
17572TIP3    H174131   5.923   2.814   0.345 -4.5982  1.0022 -0.8301
17572TIP3    H274132   5.959   2.953   0.393 -1.6987  0.1954 -0.4847
17573TIP3   OH274133   4.790   4.495   2.821  0.2089 -0.7046  0.2872
17573TIP3    H174134   4.846   4.424   2.852  0.4042 -0.2137  1.0967
17573TIP3    H274135   4.716   4.450   2.780  0.9009 -1.3636 -0.2864
17574TIP3   OH274136   6.113   1.780  13.600  0.6604 -0.6551 -0.4959
17574TIP3    H174137   6.083   1.796  13.511  0.4393  2.8857  0.0988
17574TIP3    H274138   6.080   1.692  13.621 -1.7559 -0.4329 -2.8895
17575TIP3   OH274139   2.912   6.808   0.534 -0.4235  0.3386  0.1478
17575TIP3    H174140   2.959   6.872   0.588 -0.5567  1.4631 -1.0198
17575TIP3    H274141   2.972   6.788   0.463 -0.9767  0.3445 -0.3276
17576TIP3   OH274142   1.441   1.256   1.028  0.2502  0.2626 -1.1091
17576TIP3    H174143   1.495   1.207   0.966 -1.0710 -2.0461 -0.5135
17576TIP3    H274144   1.406   1.191   1.088 -2.6586  1.7073 -1.0309
17577TIP3   OH274145   2.882   2.652  11.445 -0.2514 -0.0813  0.1775
17577TIP3    H174146   2.923   2.667  11.530  0.8668  0.6198 -0.4577
17577TIP3    H274147   2.952   2.669  11.381 -1.7061  1.9963 -0.9824
17578TIP3   OH274148   0.407   0.473   0.137 -0.9880 -0.5336  0.0350
17578TIP3    H174149   0.413   0.379   0.154  0.5439 -0.7853 -1.4943
17578TIP3    H274150   0.497   0.505   0.147 -1.2573  0.5241 -0.6863
17579TIP3   OH274151   0.303   3.778  13.154 -0.9483 -0.0036 -0.6918
17579TIP3    H174152   0.389   3.810  13.128 -0.5488 -0.9220 -0.5393
17579TIP3    H274153   0.310   3.683  13.148 -1.3151 -0.1838  1.2935
17580TIP3   OH274154   4.686   3.722  16.547 -0.2226 -0.4645  0.1550
17580TIP3    H174155   4.767   3.680  16.517  1.0438  1.3104  0.8946
17580TIP3    H274156   4.619   3.691  16.486  1.1832 -1.2588 -1.0569
17581TIP3   OH274157   6.082   1.992   4.309  0.0939 -0.1023 -0.4945
17581TIP3    H174158   6.032   2.068   4.338 -0.2660 -0.2794 -0.6412
17581TIP3    H274159   6.078   1.931   4.384 -1.4983 -0.8822 -1.1648
17582TIP3   OH274160   1.412   6.268  16.686 -0.7004 -0.3222 -0.2344
17582TIP3    H174161   1.352   6.260  16.761 -0.2431 -2.0975 -0.0026
17582TIP3    H274162   1.480   6.203  16.703  0.9395  1.1461 -0.8480
17583TIP3   OH274163   0.129   5.304   0.696  0.1542 -0.2891  0.2376
17583TIP3    H174164   0.034   5.310   0.709  0.0520  0.7550 -0.8007
17583TIP3    H274165   0.146   5.358   0.618  1.4102 -1.7008 -0.5137
17584TIP3   OH274166   0.116   4.215  13.675  0.8307 -0.2365  0.3971
17584TIP3    H174167   0.065   4.134  13.667 -1.0030  0.9632 -0.8212
17584TIP3    H274168   0.086   4.269  13.602  2.1896  1.4776  1.0436
17585TIP3   OH274169   4.686   3.657   5.563 -0.1166 -0.0776  0.1971
17585TIP3    H174170   4.638   3.605   5.498 -1.2873  0.8133  0.3162
17585TIP3    H274171   4.648   3.632   5.647 -0.2478  0.5169  0.3148
17586TIP3   OH274172   4.837   5.614  15.946 -0.4968 -0.5037  0.3291
17586TIP3    H174173   4.783   5.687  15.975 -0.1474 -0.0343 -0.1827
17586TIP3    H274174   4.796   5.585  15.865 -0.6800 -0.9313  0.5703
17587TIP3   OH274175   4.327   4.989  14.597  0.1809 -0.0313  0.4126
17587TIP3    H174176   4.332   4.968  14.504  1.4571  1.0906  0.1965
17587TIP3    H274177   4.281   5.074  14.601  1.0927  0.4673  0.6918
17588TIP3   OH274178   1.800   5.545  16.528  0.1572 -1.0130  0.1538
17588TIP3    H174179   1.808   5.623  16.474 -1.2702 -0.8140  0.1748
17588TIP3    H274180   1.714   5.509  16.506  0.3601 -2.0031  0.8841
17589TIP3   OH274181   2.665   3.363  16.827  0.3688 -0.4732 -0.5439
17589TIP3    H174182   2.690   3.301  16.895  0.5325  0.1088 -0.0622
17589TIP3    H274183   2.744   3.377  16.776  0.0673 -1.4470 -1.2973
17590TIP3   OH274184   0.682   3.399  15.865  0.6913 -0.2245 -0.2758
17590TIP3    H174185   0.623   3.474  15.875  1.8455  0.4789  2.5250
17590TIP3    H274186   0.624   3.324  15.852 -0.5705  0.9233 -1.6266
17591TIP3   OH274187   3.684   3.893  14.128 -0.0699 -0.2697 -0.2945
17591TIP3    H174188   3.751   3.957  14.152 -1.0383  0.4836  0.4731
17591TIP3    H274189   3.650   3.925  14.045 -0.2857 -0.0074 -0.1038
17592TIP3   OH274190   5.016   6.259  11.329  0.3552  0.2177 -0.1411
17592TIP3    H174191   4.978   6.176  11.358 -0.3514  0.1457 -1.1993
17592TIP3    H274192   5.095   6.270  11.382  1.0634 -1.6695 -0.7302
17593TIP3   OH274193   6.188   2.342  14.102  0.3363  0.5426 -0.7709
17593TIP3    H174194   6.156   2.266  14.053  0.7904 -1.3472  1.6534
17593TIP3    H274195   6.110   2.396  14.116 -0.4251 -0.5005 -0.8509
17594TIP3   OH274196   6.078   6.817   1.129  0.8384 -0.0924 -0.4929
17594TIP3    H174197   6.154   6.866   1.097  1.8571 -1.1738  0.1927
17594TIP3    H274198   6.096   6.800   1.221 -0.3888 -0.1085 -0.2325
17595TIP3   OH274199   0.376   0.124  16.340 -0.0074  0.2800  0.0026
17595TIP3    H174200   0.364   0.085  16.427 -2.2606 -0.7584 -0.6965
17595TIP3    H274201   0.471   0.134  16.331  0.3356 -0.3652  2.2265
17596TIP3   OH274202   4.719   3.933   1.729 -0.7457 -0.3227  0.3454
17596TIP3    H174203   4.814   3.940   1.713 -0.3876 -1.4445  1.8248
17596TIP3    H274204   4.696   4.017   1.769 -0.2253 -0.3182  0.6543
17597TIP3   OH274205   4.847   1.997   3.852  0.5116 -0.6776 -0.1637
17597TIP3    H174206   4.794   1.983   3.930  0.3122  1.7579  0.2297
17597TIP3    H274207   4.933   2.021   3.885  0.1696  1.3543 -0.5794
17598TIP3   OH274208   1.983   3.705  13.869 -0.1612 -0.2478  0.3471
17598TIP3    H174209   1.924   3.661  13.930 -1.9764 -0.5828 -1.5414
17598TIP3    H274210   2.006   3.638  13.805  1.5013  0.1632  0.4791
17599TIP3   OH274211   5.981   3.485  16.761 -0.5028  0.0836 -0.3385
17599TIP3    H174212   6.063   3.449  16.728  0.1958  1.6409 -0.3685
17599TIP3    H274213   5.996   3.499  16.854 -0.6217  0.6626 -0.4023
17600TIP3   OH274214   6.139   2.186  12.560  0.5129 -0.1740 -0.2132
17600TIP3    H174215   6.213   2.231  12.602 -0.0685  0.0570  0.5833
17600TIP3    H274216   6.066   2.247  12.567  0.3401 -0.2227 -1.3888
17601TIP3   OH274217   2.102   1.886   3.549  0.3338 -0.1795 -0.1421
17601TIP3    H174218   2.135   1.864   3.636 -0.5910 -0.2297  0.2079
17601TIP3    H274219   2.019   1.931   3.566 -0.5260 -1.3600 -1.0235
17602TIP3   OH274220   2.303   1.406   2.123 -0.4175 -0.0482  0.4958
17602TIP3    H174221   2.275   1.497   2.119 -3.2049 -0.8221 -0.4073
17602TIP3    H274222   2.288   1.373   2.034  2.0688 -1.0322  0.3676
17603TIP3   OH274223   2.569   2.268  11.156  0.2740  0.2547  0.3743
17603TIP3    H174224   2.524   2.298  11.077 -3.4587 -0.6720  1.9380
17603TIP3    H274225   2.575   2.345  11.212  0.3063  0.3043  0.3020
17604TIP3   OH274226   5.781   1.928   2.913 -0.0256  0.3013  0.5970
17604TIP3    H174227   5.788   1.881   2.830  0.9274  1.6257 -0.1263
17604TIP3    H274228   5.816   1.868   2.978  0.9684 -0.0844 -0.2622
17605TIP3   OH274229   6.153   5.731  16.615 -0.1070 -0.1622 -0.1395
17605TIP3    H174230   6.210   5.738  16.692  1.1355 -1.1571 -0.9278
17605TIP3    H274231   6.158   5.639  16.590  0.3096  0.3305 -1.9933
17606TIP3   OH274232   5.111   3.243  14.647  0.8084 -0.9640 -0.2747
17606TIP3    H174233   5.114   3.256  14.742  0.6595 -2.1880 -0.0863
17606TIP3    H274234   5.029   3.196  14.632  0.4168 -0.0483 -1.1186
17607TIP3   OH274235   1.932   0.012   6.240  0.3401 -0.6185 -0.3552
17607TIP3    H174236   1.993  -0.021   6.306 -0.9642  0.2755  1.3956
17607TIP3    H274237   1.847   0.014   6.285 -0.3298  1.4451 -1.5903
17608TIP3   OH274238   3.363   3.075   6.706 -0.1736 -0.5407  0.3163
17608TIP3    H174239   3.368   3.021   6.627 -1.0948  1.4728 -1.1902
17608TIP3    H274240   3.401   3.020   6.774  3.0269 -1.4263 -1.9690
17609TIP3   OH274241   6.204   4.905   0.592 -0.6530  0.2363  0.8591
17609TIP3    H174242   6.279   4.853   0.619  1.0890  3.0740  1.9246
17609TIP3    H274243   6.147   4.908   0.669 -0.3480  0.5619  1.0748
17610TIP3   OH274244   0.694   3.710   3.734 -0.6796  0.3070 -0.4873
17610TIP3    H174245   0.705   3.799   3.701 -1.1474 -0.0536 -1.6445
17610TIP3    H274246   0.703   3.718   3.829  1.5602  1.2518 -0.7155
17611TIP3   OH274247   1.904   2.137   4.164 -0.5380  0.1293  0.4956
17611TIP3    H174248   1.851   2.057   4.163 -0.4563  0.0701 -0.7884
17611TIP3    H274249   1.983   2.113   4.213 -0.9221 -0.2932  0.9206
17612TIP3   OH274250   4.270   3.152  15.006 -0.2820 -0.7307 -0.4693
17612TIP3    H174251   4.319   3.211  15.063 -4.0389  1.9721  0.3739
17612TIP3    H274252   4.314   3.157  14.921  0.5537  2.0660  0.0406
17613TIP3   OH274253   0.023   5.364  13.181 -0.0909  0.2679 -0.2138
17613TIP3    H174254  -0.023   5.280  13.188 -0.0087  0.1558 -0.9675
17613TIP3    H274255   0.018   5.401  13.269 -1.2620  0.0728 -0.1870
17614TIP3   OH274256   1.842   6.011   5.404 -1.1512 -0.4660 -0.0585
17614TIP3    H174257   1.893   5.933   5.384  2.3308  1.6644 -0.2008
17614TIP3    H274258   1.767   5.979   5.454  0.3095 -3.8079  0.2034
17615TIP3   OH274259   5.706   2.582  16.059  0.0047  0.0047 -0.3129
17615TIP3    H174260   5.656   2.574  15.978 -0.0783 -1.6786 -0.1338
17615TIP3    H274261   5.797   2.589  16.030 -0.0955  0.2844 -0.5677
17616TIP3   OH274262   4.889   3.055   4.024 -0.2033 -0.1021 -0.6608
17616TIP3    H174263   4.837   3.057   4.104  1.6199 -0.7270  0.6191
17616TIP3    H274264   4.909   3.147   4.006 -0.7206  0.0514 -0.4530
17617TIP3   OH274265   6.281   6.649   5.607 -0.0787  0.5153  0.0189
17617TIP3    H174266   6.217   6.718   5.590 -0.8461 -0.1173  0.2742
17617TIP3    H274267   6.358   6.695   5.640 -0.7530  1.2111  0.6624
17618TIP3   OH274268   4.415   4.787   4.991  0.2849 -0.4361 -0.3343
17618TIP3    H174269   4.437   4.873   5.026  1.3754 -0.5361 -0.7225
17618TIP3    H274270   4.445   4.725   5.057  0.6983 -0.5577 -0.6301
17619TIP3   OH274271   0.073   3.094   1.280  0.3893  0.0982 -0.4781
17619TIP3    H174272   0.026   3.110   1.198 -0.4933 -0.3759 -0.0759
17619TIP3    H274273   0.139   3.028   1.258  0.6506  0.5132 -0.9665
17620TIP3   OH274274   5.594   3.790   6.521  0.1053  0.0658 -0.5145
17620TIP3    H174275   5.602   3.885   6.514  0.0827 -0.0099 -1.7260
17620TIP3    H274276   5.503   3.775   6.547  0.6330  0.4334  1.7790
17621TIP3   OH274277   0.753   0.385   4.430  0.7163 -0.2693  0.3151
17621TIP3    H174278   0.828   0.365   4.374 -0.6111 -1.9703 -0.9478
17621TIP3    H274279   0.685   0.322   4.404 -0.5450 -0.0091  2.6912
17622TIP3   OH274280   6.194   0.854  12.358 -0.4071 -0.4249 -0.0003
17622TIP3    H174281   6.120   0.865  12.418 -1.2071  0.1992 -1.0738
17622TIP3    H274282   6.164   0.890  12.275  1.1548 -0.0595 -0.4419
17623TIP3   OH274283   5.987   1.163  11.784  0.1868 -0.2065  0.3003
17623TIP3    H174284   5.981   1.078  11.741  0.0311 -0.5136  0.9052
17623TIP3    H274285   5.984   1.142  11.878 -0.0623  0.4777  0.4515
17624TIP3   OH274286   4.495   4.785  15.276  0.1187 -0.8778  0.4380
17624TIP3    H174287   4.574   4.805  15.226 -0.0342 -1.2397  0.0552
17624TIP3    H274288   4.519   4.804  15.367  0.6569 -1.0169  0.3263
17625TIP3   OH274289   2.221   6.239   1.005  0.7906 -0.7974 -0.3620
17625TIP3    H174290   2.291   6.265   1.064 -0.1914 -0.4966  0.7081
17625TIP3    H274291   2.229   6.298   0.930 -1.0544  2.4433  1.7517
17626TIP3   OH274292   0.552   5.059   4.224 -0.1824 -0.2096 -0.3102
17626TIP3    H174293   0.512   4.989   4.172 -1.4955  0.6461 -0.4893
17626TIP3    H274294   0.511   5.139   4.193 -1.1690  0.3338  2.1548
17627TIP3   OH274295   1.073   3.011  13.324 -0.4007  0.4735  0.0147
17627TIP3    H174296   1.158   3.040  13.290 -0.5768 -1.6744 -2.5768
17627TIP3    H274297   1.095   2.962  13.403  0.7280  0.4281 -0.3011
17628TIP3   OH274298   3.626   1.373  11.354  0.3604 -0.6447 -0.2213
17628TIP3    H174299   3.634   1.279  11.343  0.5195 -0.5778 -0.7046
17628TIP3    H274300   3.689   1.410  11.292  0.6501 -0.2323  0.3141
17629TIP3   OH274301   1.301   5.125   3.973 -0.6320 -0.2932  0.0897
17629TIP3    H174302   1.313   5.084   3.887 -1.5243 -1.3710  0.4561
17629TIP3    H274303   1.367   5.085   4.029  0.9196  1.4401 -0.3777
17630TIP3   OH274304   1.565   4.139  14.982  0.8682 -0.1091 -0.4466
17630TIP3    H174305   1.494   4.144  14.917  1.9075  2.4827 -1.5265
17630TIP3    H274306   1.636   4.094  14.937  0.7933 -0.3752 -0.2963
17631TIP3   OH274307   1.644   1.403  10.467 -0.3618  0.4028 -0.3619
17631TIP3    H174308   1.577   1.366  10.524  0.3308 -0.5058 -0.1191
17631TIP3    H274309   1.688   1.468  10.522 -0.8178  0.7621 -0.4160
17632TIP3   OH274310   5.656   3.063  13.563  0.0585 -0.3775  0.1433
17632TIP3    H174311   5.658   3.032  13.653  0.7065 -0.4999  0.0927
17632TIP3    H274312   5.698   3.149  13.567 -2.7104  1.0612  0.4785
17633TIP3   OH274313   5.025   0.321   4.975 -0.0660  0.6134  0.6251
17633TIP3    H174314   4.982   0.269   4.909 -2.4662  0.0523  2.5008
17633TIP3    H274315   5.005   0.412   4.951 -0.5837  0.4314  0.3563
17634TIP3   OH274316   4.481   4.244  11.067 -0.4267  0.0399  0.3740
17634TIP3    H174317   4.433   4.320  11.037 -0.6554 -0.3024 -0.1457
17634TIP3    H274318   4.502   4.196  10.987 -2.0571 -1.4992  0.8129
17635TIP3   OH274319   1.004   6.716   5.416  0.3725  0.3580 -0.1416
17635TIP3    H174320   0.967   6.773   5.483  0.8669  2.3283 -1.4604
17635TIP3    H274321   0.939   6.716   5.346  0.7228 -0.0952 -0.4770
17636TIP3   OH274322   5.710   2.840   0.192 -0.1437 -0.0076  0.1627
17636TIP3    H174323   5.792   2.864   0.236  0.3302  0.9242 -1.1496
17636TIP3    H274324   5.647   2.907   0.219  0.1346  0.5375 -0.4976
17637TIP3   OH274325   1.742   3.750  14.827 -0.1817  0.9329  0.2352
17637TIP3    H174326   1.699   3.777  14.908 -1.4969  2.3627 -0.8729
17637TIP3    H274327   1.676   3.766  14.759  1.5501  1.6356 -1.3526
17638TIP3   OH274328   5.135   2.356   1.575 -0.2578 -0.4968 -0.8016
17638TIP3    H174329   5.045   2.355   1.542  0.2132 -2.0508 -2.1409
17638TIP3    H274330   5.132   2.301   1.653 -0.9442  1.5493  0.7297
17639TIP3   OH274331   4.984   5.870   2.093 -0.3656 -0.2729  0.1061
17639TIP3    H174332   4.922   5.943   2.086 -0.4178 -0.2534  0.6761
17639TIP3    H274333   4.972   5.837   2.182  0.3983 -0.3034  0.2083
17640TIP3   OH274334   2.650   0.358   1.590 -0.3852 -0.2154  0.0649
17640TIP3    H174335   2.647   0.262   1.588  1.1883 -0.2818 -0.2449
17640TIP3    H274336   2.566   0.385   1.553 -0.0012 -1.4970 -1.8747
17641TIP3   OH274337   2.056   2.709   2.644 -0.1247 -0.0421  0.1633
17641TIP3    H174338   1.991   2.643   2.670  0.9643 -0.8622  0.9193
17641TIP3    H274339   2.112   2.718   2.721  1.9048 -0.9214 -1.1178
17642TIP3   OH274340   3.344   4.353  16.509 -0.5228 -0.3869 -0.7626
17642TIP3    H174341   3.339   4.312  16.595 -3.6651 -1.3827 -1.3115
17642TIP3    H274342   3.374   4.442  16.528  0.1545 -0.9692  1.1811
17643TIP3   OH274343   6.694   3.185   4.765 -0.2559 -0.1789 -0.4824
17643TIP3    H174344   6.700   3.239   4.844 -0.5938  1.2265 -1.3801
17643TIP3    H274345   6.737   3.237   4.697 -0.5136 -1.0837 -1.3685
17644TIP3   OH274346   0.893   4.506   5.844  0.0870 -0.4737  0.2897
17644TIP3    H174347   0.982   4.476   5.862 -0.7282 -1.3733  3.7560
17644TIP3    H274348   0.847   4.427   5.816  0.1941 -0.1678 -0.7741
17645TIP3   OH274349   1.491   0.468   4.287 -0.0117 -0.0321 -0.2746
17645TIP3    H174350   1.461   0.441   4.374  1.6918  0.0699  0.3887
17645TIP3    H274351   1.582   0.442   4.284 -0.1535 -0.4367 -2.2406
17646TIP3   OH274352   0.294   2.467  12.398  0.1900  0.1930  0.5139
17646TIP3    H174353   0.255   2.543  12.442 -1.3998 -0.9167  1.1394
17646TIP3    H274354   0.365   2.503  12.345 -0.4759  2.0947  0.8417
17647TIP3   OH274355   2.462   0.910   4.082 -0.3366  0.5860  0.0684
17647TIP3    H174356   2.535   0.914   4.144 -1.7441 -2.0088  2.1107
17647TIP3    H274357   2.398   0.972   4.117 -0.2674  0.7385 -0.0725
17648TIP3   OH274358   0.060   0.037  12.562  0.0984 -0.3069 -0.0641
17648TIP3    H174359   0.004  -0.041  12.568  1.0451 -0.9717  0.4067
17648TIP3    H274360  -0.001   0.110  12.552 -0.8918 -0.9485  1.0298
17649TIP3   OH274361   3.349   5.976  12.518 -0.3151 -0.0903 -0.0282
17649TIP3    H174362   3.380   5.947  12.604 -0.7319  1.3746  0.6384
17649TIP3    H274363   3.428   5.975  12.463 -0.1117 -1.3692  0.2501
17650TIP3   OH274364   2.040   2.713  15.599  0.2949  0.5802 -0.6306
17650TIP3    H174365   2.072   2.701  15.510 -1.6478  1.6827 -1.5469
17650TIP3    H274366   1.971   2.779  15.591 -1.8364 -1.2542  1.2544
17651TIP3   OH274367   0.084   1.685  15.092  0.0569 -0.2041  0.2327
17651TIP3    H174368   0.064   1.778  15.085 -0.2876 -0.3199 -0.4219
17651TIP3    H274369   0.022   1.651  15.156  0.5988  0.1306  0.9453
17652TIP3   OH274370   5.878   4.495   3.596 -0.6344 -0.9205 -0.5432
17652TIP3    H174371   5.863   4.452   3.512 -1.7237 -1.2144 -0.2235
17652TIP3    H274372   5.973   4.497   3.606 -0.5102 -4.2452 -0.0864
17653TIP3   OH274373   1.917   1.258   5.702 -0.2206  0.4730  0.1317
17653TIP3    H174374   1.846   1.216   5.654 -1.2873  0.6020  1.5452
17653TIP3    H274375   1.875   1.330   5.749  1.3591  2.4777 -1.3331
17654TIP3   OH274376   4.969   0.607   3.022  0.3199 -0.0144  0.3012
17654TIP3    H174377   4.938   0.551   2.952  0.9729  0.0021 -0.0066
17654TIP3    H274378   4.982   0.548   3.097 -2.0060  0.2271  0.9542
17655TIP3   OH274379   3.973   2.828  14.359 -0.4612 -0.0629 -0.0522
17655TIP3    H174380   4.012   2.819  14.446  1.4162 -1.7350 -0.9911
17655TIP3    H274381   3.980   2.922  14.339  2.2280 -0.1134  0.2702
17656TIP3   OH274382   5.123   5.646   6.257  0.3029  0.0012 -0.0590
17656TIP3    H174383   5.039   5.625   6.217  0.1086 -0.9914  0.8181
17656TIP3    H274384   5.157   5.562   6.287 -0.1957  0.7429  3.0193
17657TIP3   OH274385   5.781   0.214   4.818 -0.4751 -0.1048 -0.2800
17657TIP3    H174386   5.810   0.236   4.906 -0.1710  3.1330 -1.0286
17657TIP3    H274387   5.860   0.224   4.764 -0.4260 -2.9426 -0.9074
17658TIP3   OH274388   5.383   6.053   6.071  0.0900  0.9301  0.1500
17658TIP3    H174389   5.454   6.059   6.134 -1.0530  0.1808  1.5694
17658TIP3    H274390   5.427   6.043   5.986  1.6709  0.6019  0.9714
17659TIP3   OH274391   3.804   6.667  16.484  0.1291 -0.1002 -0.3233
17659TIP3    H174392   3.739   6.720  16.531  0.3606 -0.3491  0.2758
17659TIP3    H274393   3.760   6.584  16.469  1.1482 -1.2114  2.3364
17660TIP3   OH274394   4.884   0.568  16.249  0.6292  0.7051 -0.8251
17660TIP3    H174395   4.889   0.591  16.342 -1.6503 -0.3071 -0.3909
17660TIP3    H274396   4.932   0.485  16.242 -0.2808  0.1143 -0.2631
17661TIP3   OH274397   5.894   4.494   1.455 -0.2795 -0.2328 -0.0805
17661TIP3    H174398   5.969   4.539   1.494 -0.0500  0.6759 -1.4701
17661TIP3    H274399   5.916   4.489   1.362 -1.1947 -1.5071 -0.2472
17662TIP3   OH274400   5.578   0.272   6.512 -0.3589  0.0412 -0.7358
17662TIP3    H174401   5.602   0.311   6.428 -1.2607 -0.2923 -1.1563
17662TIP3    H274402   5.494   0.313   6.534  0.5937  1.3067  0.7845
17663TIP3   OH274403   2.354   2.107   2.625  0.5845  0.2843 -0.4043
17663TIP3    H174404   2.353   2.076   2.535  1.1958  2.1755 -1.0919
17663TIP3    H274405   2.445   2.128   2.644  0.2430  1.4351  0.0867
17664TIP3   OH274406   5.997   1.374  11.632 -0.2818 -0.8352  0.1398
17664TIP3    H174407   5.933   1.338  11.570 -0.7121 -0.8828  0.6037
17664TIP3    H274408   5.990   1.317  11.708  1.2168 -1.6155 -0.2692
17665TIP3   OH274409   5.609   0.628  11.974  0.2892 -0.4327 -0.1013
17665TIP3    H174410   5.570   0.547  11.940  0.2168  0.1068 -1.3619
17665TIP3    H274411   5.700   0.604  11.993 -0.3995 -1.5174  2.2171
17666TIP3   OH274412   4.290   2.565  12.588  0.5553 -0.4674 -0.5677
17666TIP3    H174413   4.360   2.620  12.552  1.8879 -1.3929  0.5028
17666TIP3    H274414   4.228   2.554  12.515  0.6410  1.7500 -1.0416
17667TIP3   OH274415   3.474   1.681  16.438 -0.4875  0.5883  0.7243
17667TIP3    H174416   3.514   1.595  16.427 -0.6763  0.5528  0.2836
17667TIP3    H274417   3.380   1.666  16.424 -0.7258  0.5903  2.1856
17668TIP3   OH274418   6.556   5.757  12.355  0.1574  0.2852 -0.0142
17668TIP3    H174419   6.464   5.783  12.346  0.3863  1.4340  0.6981
17668TIP3    H274420   6.592   5.766  12.267  0.0926  2.0144  0.0868
17669TIP3   OH274421   1.993   0.848   0.144 -0.4355 -0.2557 -0.4239
17669TIP3    H174422   2.063   0.800   0.188 -1.4572 -2.0904 -0.7042
17669TIP3    H274423   2.038   0.909   0.085  0.9322 -1.6432 -0.8605
17670TIP3   OH274424   6.778   3.224   5.044 -0.1934  0.1731 -0.0678
17670TIP3    H174425   6.759   3.271   5.125  1.6165 -0.1361  0.5940
17670TIP3    H274426   6.771   3.131   5.068  0.2609  0.0821 -0.2725
17671TIP3   OH274427   6.166   1.372   0.328 -0.0784 -0.1887  0.1742
17671TIP3    H174428   6.144   1.365   0.236  2.2692  1.4244 -0.6004
17671TIP3    H274429   6.193   1.283   0.353  1.8554 -0.1461 -1.4990
17672TIP3   OH274430   0.012   4.448  14.192 -0.1023 -0.2150 -0.2906
17672TIP3    H174431   0.060   4.422  14.113  0.8199 -0.0365  0.1969
17672TIP3    H274432   0.078   4.489  14.247 -0.9645  0.6235  0.1360
17673TIP3   OH274433   1.676   4.015  11.991 -0.1268  0.0364  0.4269
17673TIP3    H174434   1.633   3.952  12.049 -1.2691 -0.0559 -0.4811
17673TIP3    H274435   1.739   3.963  11.941  0.4505  0.0134  1.1756
17674TIP3   OH274436   2.973   3.192   0.556 -0.1797  0.5081 -0.0695
17674TIP3    H174437   2.898   3.133   0.555  2.6386 -3.5362  1.1246
17674TIP3    H274438   3.001   3.194   0.648  0.8577  2.4666 -0.3602
17675TIP3   OH274439   2.944   4.830   2.239 -0.0597 -0.0815 -0.3668
17675TIP3    H174440   2.857   4.790   2.245  0.4032 -1.0025  0.5280
17675TIP3    H274441   3.003   4.765   2.277  1.0683  0.4098 -1.2262
17676TIP3   OH274442   5.654   4.553  16.560  0.5195  0.3563  0.2126
17676TIP3    H174443   5.630   4.633  16.608 -0.3794  0.2932 -0.1085
17676TIP3    H274444   5.616   4.482  16.612  0.7400  0.1831  0.1369
17677TIP3   OH274445   0.933   6.562  11.245 -0.0846  0.0121  0.0592
17677TIP3    H174446   0.974   6.528  11.324  0.2814 -1.0306 -0.5537
17677TIP3    H274447   0.865   6.621  11.276  0.1164 -0.3065  1.1428
17678TIP3   OH274448   4.368   4.422  13.898 -0.0613  0.1379  0.4055
17678TIP3    H174449   4.299   4.448  13.959  0.3632  0.0306  0.9387
17678TIP3    H274450   4.383   4.499  13.844 -0.4525  0.2276  0.4213
17679TIP3   OH274451   1.488   0.390  13.512 -0.1474  0.7787  0.4535
17679TIP3    H174452   1.509   0.466  13.566 -0.4332  0.8914  0.4084
17679TIP3    H274453   1.530   0.409  13.428 -0.5791  1.0923  0.3029
17680TIP3   OH274454   5.021   5.098  13.257 -0.4117  0.5105  0.2943
17680TIP3    H174455   5.098   5.140  13.294 -0.8809  0.0171  1.8759
17680TIP3    H274456   5.034   5.104  13.162  1.6284  0.2986  0.5351
17681TIP3   OH274457   4.773   0.054  11.518 -0.3342  0.0586 -0.4578
17681TIP3    H174458   4.731  -0.030  11.537  2.6431 -1.1647  1.3730
17681TIP3    H274459   4.819   0.039  11.436  0.4058 -0.2447 -0.0029
17682TIP3   OH274460   6.182   2.746   2.901  0.1071  0.7081  0.1310
17682TIP3    H174461   6.270   2.728   2.868 -0.9717 -1.6818 -1.7270
17682TIP3    H274462   6.187   2.727   2.995  1.2191 -1.0988 -0.2492
17683TIP3   OH274463   1.811   0.849   1.099  0.2878 -0.3900 -0.0507
17683TIP3    H174464   1.818   0.853   1.195  1.2164  1.1048 -0.1449
17683TIP3    H274465   1.816   0.756   1.078  1.4043 -0.6515  1.2681
17684TIP3   OH274466   3.435   2.064  12.642 -0.3538 -0.0593 -0.5489
17684TIP3    H174467   3.434   2.139  12.583 -2.7389 -0.8472 -1.6463
17684TIP3    H274468   3.473   1.993  12.591 -0.4215 -0.2053 -0.4006
17685TIP3   OH274469   3.506   5.446   3.941  0.8133  0.4970 -0.0588
17685TIP3    H174470   3.468   5.446   4.029  2.2278 -0.3976  0.5800
17685TIP3    H274471   3.521   5.538   3.921 -0.7399  0.8077  0.0543
17686TIP3   OH274472   5.658   5.343   1.646 -0.7636 -0.4154  0.3327
17686TIP3    H174473   5.687   5.310   1.562  0.0919 -2.4352  1.3667
17686TIP3    H274474   5.738   5.355   1.697 -1.0502  2.9208  0.2160
17687TIP3   OH274475   1.634   0.494  14.146  0.8167  0.1679  0.2731
17687TIP3    H174476   1.630   0.584  14.177  0.9603  1.3292 -2.7689
17687TIP3    H274477   1.727   0.474  14.141  0.8437  0.5000 -0.6933
17688TIP3   OH274478   5.220   2.910   6.462  0.1423 -0.5611  0.1920
17688TIP3    H174479   5.261   2.986   6.421  0.5272 -0.5569  0.5821
17688TIP3    H274480   5.272   2.835   6.433  1.4096 -0.4050  1.9161
17689TIP3   OH274481   1.001   3.089  12.638 -0.2735  0.0081  0.2378
17689TIP3    H174482   0.934   3.049  12.693  0.6713 -0.5311  1.0177
17689TIP3    H274483   0.982   3.057  12.550 -2.3935  1.6499  0.0016
17690TIP3   OH274484   5.289   0.999  15.087 -0.7858  0.6639  0.1484
17690TIP3    H174485   5.343   1.053  15.029  0.0178 -0.5231 -0.2542
17690TIP3    H274486   5.321   0.909  15.072 -0.1109  0.3735  2.8733
17691TIP3   OH274487   2.086   0.798  16.195 -0.1912 -0.0532  0.2111
17691TIP3    H174488   2.043   0.756  16.121 -0.7207  1.9308 -0.6526
17691TIP3    H274489   2.023   0.864  16.225  0.8334  0.5240  1.1500
17692TIP3   OH274490   0.099   0.676  10.438 -0.2224  0.3840 -0.1049
17692TIP3    H174491   0.068   0.715  10.357 -2.7712 -0.6594  0.2912
17692TIP3    H274492   0.089   0.745  10.504 -2.3762 -0.0669  0.1175
17693TIP3   OH274493   0.365   3.132  14.779 -0.3088  0.5361 -0.1929
17693TIP3    H174494   0.280   3.093  14.798  0.9008 -2.8171 -1.0736
17693TIP3    H274495   0.427   3.082  14.832  1.4186  0.9755 -1.7190
17694TIP3   OH274496   6.326   1.750   3.065 -0.0154  0.1857 -0.0537
17694TIP3    H174497   6.348   1.665   3.027  2.0086  1.2238 -1.3370
17694TIP3    H274498   6.248   1.778   3.017  0.1469 -0.3182 -0.6257
17695TIP3   OH274499   1.474   4.464  11.179  0.2958 -0.1933  0.2397
17695TIP3    H174500   1.512   4.405  11.244  0.1847  0.3615  0.8222
17695TIP3    H274501   1.473   4.414  11.098  3.1989  0.1156 -0.0668
17696TIP3   OH274502   6.518   4.280   1.652  0.3178  0.2556 -0.1311
17696TIP3    H174503   6.486   4.370   1.645  1.4946  0.6171 -1.1552
17696TIP3    H274504   6.442   4.226   1.630 -0.0556  1.0401 -0.8361
17697TIP3   OH274505   1.451   5.280   3.239 -0.2116 -0.8415  0.2318
17697TIP3    H174506   1.515   5.346   3.265 -0.4309 -0.6951  0.4056
17697TIP3    H274507   1.400   5.323   3.170  0.4233 -1.2564 -0.5140
17698TIP3   OH274508   1.254   5.786   1.015 -0.0245 -0.0394 -0.3910
17698TIP3    H174509   1.182   5.817   1.071 -0.1850 -1.4638  0.2269
17698TIP3    H274510   1.222   5.704   0.978  0.6990  0.0906 -1.3500
17699TIP3   OH274511   6.263   1.210  11.024 -0.5574  0.5381  0.4190
17699TIP3    H174512   6.270   1.207  10.928  2.2051  0.5489  0.5457
17699TIP3    H274513   6.212   1.290  11.041  0.5700  1.6368 -1.0397
17700TIP3   OH274514   1.116   1.600  16.625  0.3592  0.0779  0.0812
17700TIP3    H174515   1.069   1.655  16.562  0.7120  0.8504  0.4807
17700TIP3    H274516   1.077   1.514  16.615 -2.5840  1.0746  1.7604
17701TIP3   OH274517   1.288   2.697   5.399  0.1199  0.0988  0.5063
17701TIP3    H174518   1.263   2.743   5.319  1.2053 -0.6582 -0.3036
17701TIP3    H274519   1.279   2.762   5.468 -1.2270  0.6618 -0.1504
17702TIP3   OH274520   0.106   2.877   3.776 -0.1869  0.6048 -0.6441
17702TIP3    H174521   0.018   2.903   3.752 -0.3470 -0.5411 -1.3945
17702TIP3    H274522   0.114   2.787   3.743  1.2589  0.6980 -0.6070
17703TIP3   OH274523   2.637   1.243  16.174  0.1145  0.2738 -0.5048
17703TIP3    H174524   2.698   1.168  16.174  1.1508  1.0754  0.8060
17703TIP3    H274525   2.646   1.281  16.261 -2.0997  0.6006 -0.3505
17704TIP3   OH274526   1.763   4.335  16.720  0.0391 -0.0249 -0.2019
17704TIP3    H174527   1.810   4.322  16.803  0.5631 -0.6675 -0.5905
17704TIP3    H274528   1.707   4.258  16.712  0.9379 -0.6148 -1.0579
17705TIP3   OH274529   1.997   4.099   4.086 -0.0015  0.3111 -0.0254
17705TIP3    H174530   2.084   4.065   4.106 -0.4931 -0.9555  0.0648
17705TIP3    H274531   2.007   4.195   4.089  0.7615  0.2379  2.8543
17706TIP3   OH274532   5.524   2.810   5.143  0.2141 -0.3433 -0.2119
17706TIP3    H174533   5.585   2.743   5.113  2.8593  1.6190  0.3714
17706TIP3    H274534   5.498   2.857   5.064  2.4981  1.1154 -0.1792
17707TIP3   OH274535   2.745   5.659   3.789  0.4720  1.0358  0.0336
17707TIP3    H174536   2.676   5.632   3.728  0.7943 -0.3501  0.2353
17707TIP3    H274537   2.792   5.578   3.808 -0.4413  1.1219  3.1511
17708TIP3   OH274538   5.864   3.420  11.438  0.3451  0.0051  0.0012
17708TIP3    H174539   5.901   3.335  11.414  0.7356 -0.0949  0.9374
17708TIP3    H274540   5.920   3.452  11.508 -0.2050  0.7261  0.1201
17709TIP3   OH274541   2.940   5.503   0.203 -0.2474 -0.1193 -0.0237
17709TIP3    H174542   2.949   5.417   0.244 -0.0776 -0.7231 -1.2921
17709TIP3    H274543   2.846   5.509   0.183  0.0198 -0.8600 -1.6689
17710TIP3   OH274544   3.209   0.736  15.019 -0.2500 -0.2858 -0.0404
17710TIP3    H174545   3.166   0.786  14.949  0.3918  1.1287  0.5324
17710TIP3    H274546   3.142   0.728  15.087 -1.3989 -2.9958 -1.3256
17711TIP3   OH274547   1.914   1.655  16.960  0.3731 -0.8391  0.4043
17711TIP3    H174548   1.996   1.702  16.978 -0.8111  0.1026  4.3320
17711TIP3    H274549   1.859   1.720  16.915  0.5743 -0.2429  1.0002
17712TIP3   OH274550   3.072   1.174   1.572 -0.6522  0.3105 -0.5634
17712TIP3    H174551   3.067   1.216   1.658  0.9742 -0.0100 -0.2664
17712TIP3    H274552   3.042   1.241   1.511  0.5297  1.4310  0.0340
17713TIP3   OH274553   3.106   6.689  11.227  0.5211  0.2068 -0.4537
17713TIP3    H174554   3.111   6.785  11.224 -0.9837  0.4328  1.8880
17713TIP3    H274555   3.138   6.661  11.141 -1.9248  2.9237 -2.4531
17714TIP3   OH274556   1.090   0.604  12.929 -0.0641  0.2310  0.4015
17714TIP3    H174557   1.101   0.699  12.927  0.5305  0.1706 -2.3210
17714TIP3    H274558   1.078   0.579  12.837 -2.4292 -2.1042  1.2229
17715TIP3   OH274559   6.522   4.753   4.539  0.2321 -0.0777  0.1898
17715TIP3    H174560   6.555   4.688   4.477  1.3398  0.9637 -0.3504
17715TIP3    H274561   6.433   4.723   4.560  0.8229 -1.9211  0.2181
17716TIP3   OH274562   4.314   5.211   1.701 -0.0073  0.5105  0.3418
17716TIP3    H174563   4.369   5.228   1.777 -0.4850 -0.3332  0.8950
17716TIP3    H274564   4.258   5.289   1.693 -0.8734  0.0507  1.6770
17717TIP3   OH274565   5.567   3.503  11.820 -0.1507  0.0190 -0.3583
17717TIP3    H174566   5.532   3.476  11.735 -0.6670 -0.3989 -0.0261
17717TIP3    H274567   5.543   3.595  11.828  0.2012  0.1504 -0.8106
17718TIP3   OH274568   0.915   3.938  10.738 -0.4349 -0.1031 -0.3325
17718TIP3    H174569   0.952   4.023  10.714 -1.8538 -0.0302 -2.4927
17718TIP3    H274570   0.821   3.948  10.726 -0.8243 -1.4545  1.2194
17719TIP3   OH274571   2.388   1.862  12.135 -0.0566  0.5292  0.1360
17719TIP3    H174572   2.451   1.867  12.207  0.4654  0.5419 -0.3171
17719TIP3    H274573   2.382   1.768  12.114  1.2740  0.6837 -1.0831
17720TIP3   OH274574   4.236   5.595   5.107  0.0010 -0.0541 -0.2185
17720TIP3    H174575   4.320   5.551   5.099 -0.0294 -0.3946  1.0684
17720TIP3    H274576   4.185   5.564   5.032  1.0916  0.3549 -1.1488
17721TIP3   OH274577   4.422   5.501  13.254 -0.1486 -0.1139 -0.1583
17721TIP3    H174578   4.384   5.450  13.326  3.9238 -1.4493  1.3727
17721TIP3    H274579   4.449   5.583  13.294  1.9075 -0.7595 -0.0874
17722TIP3   OH274580   1.322   0.427  10.386  0.3923  0.2260 -0.9661
17722TIP3    H174581   1.264   0.502  10.376  2.1328  1.5011 -1.8954
17722TIP3    H274582   1.388   0.454  10.450 -1.2129 -2.0335  1.9285
17723TIP3   OH274583   2.511   4.552  15.678 -0.3128 -0.4295  0.2405
17723TIP3    H174584   2.452   4.548  15.753 -0.3325 -0.0760  0.2446
17723TIP3    H274585   2.595   4.578  15.716 -0.9041  2.3779 -0.1628
17724TIP3   OH274586   0.499   6.661  15.043  0.0134  0.2709 -0.4494
17724TIP3    H174587   0.477   6.754  15.049 -0.0504  0.2441 -0.2397
17724TIP3    H274588   0.477   6.627  15.130  2.6209  0.5919  0.4013
17725TIP3   OH274589   5.180   1.834  12.861  0.5377 -0.3079 -0.0463
17725TIP3    H174590   5.247   1.878  12.808 -0.4044  0.4443 -0.6408
17725TIP3    H274591   5.156   1.757  12.810 -0.1582  0.2588 -0.5881
17726TIP3   OH274592   6.440   6.577   1.193 -0.0880 -0.0486  0.0457
17726TIP3    H174593   6.517   6.527   1.167  0.3221  0.4846  0.2041
17726TIP3    H274594   6.441   6.654   1.135 -0.8827 -0.3695 -0.4086
17727TIP3   OH274595   6.172   2.535   1.609  0.0458  0.1653 -0.3755
17727TIP3    H174596   6.228   2.586   1.551 -1.3214  1.6759 -0.4454
17727TIP3    H274597   6.226   2.519   1.686  1.1061  0.1363 -1.0988
17728TIP3   OH274598   0.411   1.844  16.836 -0.1948 -0.4036  0.0537
17728TIP3    H174599   0.360   1.782  16.783  1.1214  0.6414 -2.6412
17728TIP3    H274600   0.494   1.800  16.851  0.6235  0.4910 -1.5890
17729TIP3   OH274601   2.509   0.033   1.130  0.3078  0.1120  0.0491
17729TIP3    H174602   2.507  -0.047   1.078 -0.3437  0.0738  0.1160
17729TIP3    H274603   2.464   0.098   1.074 -0.5765  0.0209  0.6375
17730TIP3   OH274604   2.171   5.192   2.661 -0.4822 -0.7970  0.7383
17730TIP3    H174605   2.159   5.100   2.639  0.9015 -0.8472  0.1034
17730TIP3    H274606   2.255   5.215   2.623 -0.3892  0.4993  1.6635
17731TIP3   OH274607   1.498   1.056   4.942 -0.4999 -0.0061 -0.5990
17731TIP3    H174608   1.545   1.099   4.871  0.3895 -0.3770 -0.2410
17731TIP3    H274609   1.521   1.106   5.020 -0.3475 -0.4556 -0.3532
17732TIP3   OH274610   3.499   2.980   5.941  0.2478  0.6311 -0.5844
17732TIP3    H174611   3.452   3.013   5.865 -0.7545  0.3035 -0.1348
17732TIP3    H274612   3.590   3.006   5.927 -0.2545  2.3597 -0.8978
17733TIP3   OH274613   2.224   0.572  15.340 -0.4656 -0.2870  0.1958
17733TIP3    H174614   2.262   0.652  15.304 -1.6494  0.2067 -0.0067
17733TIP3    H274615   2.211   0.516  15.263 -2.2937  0.4747 -0.1122
17734TIP3   OH274616   4.160   3.096   5.709  0.7886  0.2768  0.1492
17734TIP3    H174617   4.225   3.027   5.698 -0.0858 -0.4091 -1.0971
17734TIP3    H274618   4.203   3.175   5.677  1.7571  0.3137  1.4727
17735TIP3   OH274619   5.909   1.491   5.034 -0.1658  0.3193  0.0624
17735TIP3    H174620   5.886   1.578   5.068  1.2484  0.9115 -0.4234
17735TIP3    H274621   5.947   1.445   5.109  0.9907  0.8726 -0.1614
17736TIP3   OH274622   5.034   1.656   5.153 -0.0102 -0.0880  0.1644
17736TIP3    H174623   5.089   1.693   5.222  1.4061  0.0379 -1.0019
17736TIP3    H274624   5.005   1.731   5.102  2.5619 -0.4265 -1.9778
17737TIP3   OH274625   1.772   2.859  14.906 -0.0919 -0.4606  0.2903
17737TIP3    H174626   1.762   2.895  14.994  0.4676  0.0897  0.1431
17737TIP3    H274627   1.799   2.768  14.919 -2.5731 -1.1936  0.6705
17738TIP3   OH274628   0.263   6.396  12.643 -0.0590 -0.0216  0.0513
17738TIP3    H174629   0.218   6.449  12.577  2.1465  1.8578 -0.0636
17738TIP3    H274630   0.214   6.412  12.723 -0.4093  0.8763 -0.3251
17739TIP3   OH274631   5.524   3.322  15.062  0.0558 -0.2510 -0.1774
17739TIP3    H174632   5.551   3.240  15.104 -0.6416 -1.0480 -1.2277
17739TIP3    H274633   5.441   3.345  15.104  0.8844  0.6555  1.0385
17740TIP3   OH274634   6.790   5.130  16.786  0.2522 -1.1787 -0.7018
17740TIP3    H174635   6.730   5.136  16.860 -1.7666 -1.8077 -2.1940
17740TIP3    H274636   6.759   5.198  16.725  1.8261 -0.7141 -1.0261
17741TIP3   OH274637   0.668   5.891   2.099  0.4704  0.1763 -0.7839
17741TIP3    H174638   0.624   5.816   2.061 -1.1277 -0.5921  2.2805
17741TIP3    H274639   0.751   5.856   2.133  0.4685  0.1682 -0.7878
17742TIP3   OH274640   5.265   2.443   3.059  0.2634  0.2620  0.2889
17742TIP3    H174641   5.357   2.417   3.051  0.0025 -0.2589 -1.4091
17742TIP3    H274642   5.216   2.363   3.044 -0.4927  0.9347 -1.0075
17743TIP3   OH274643   3.604   6.135   4.391 -0.7790 -0.8746  0.1169
17743TIP3    H174644   3.628   6.221   4.355  2.0119 -1.2393  0.8592
17743TIP3    H274645   3.537   6.154   4.456 -0.8885  0.6284 -0.3916
17744TIP3   OH274646   2.082   3.971   6.285  0.0263  0.0214  0.3563
17744TIP3    H174647   2.092   3.981   6.190  1.7642 -1.3251  0.3504
17744TIP3    H274648   2.089   4.060   6.319  1.6343  0.3193 -0.6371
17745TIP3   OH274649   1.069   6.669  16.645 -0.2172  0.0586 -0.3865
17745TIP3    H174650   1.067   6.689  16.739  0.4600  0.6901 -0.5000
17745TIP3    H274651   1.047   6.752  16.602 -0.4886 -0.2197 -0.7943
17746TIP3   OH274652   4.818   4.565   1.978 -0.4809 -0.3579  0.1555
17746TIP3    H174653   4.875   4.641   1.968 -0.1166 -0.3656  1.8587
17746TIP3    H274654   4.781   4.574   2.066 -1.4446 -1.4740 -0.1094
17747TIP3   OH274655   0.350   6.165  16.502  0.1798  0.4712 -0.0412
17747TIP3    H174656   0.289   6.211  16.443  1.0026  1.1547 -0.3904
17747TIP3    H274657   0.390   6.098  16.447 -1.3071 -0.9755  0.5709
17748TIP3   OH274658   2.386   5.806  12.164 -0.1153  0.1680  0.1443
17748TIP3    H174659   2.347   5.794  12.077 -1.2357 -1.4977  0.8242
17748TIP3    H274660   2.468   5.758  12.160  0.4055  1.0642 -0.3212
17749TIP3   OH274661   1.781   4.141   4.728  0.2946  0.2017 -0.3367
17749TIP3    H174662   1.812   4.199   4.798  1.2659 -0.7870  0.0838
17749TIP3    H274663   1.825   4.058   4.745  0.3941 -0.1189 -2.0202
17750TIP3   OH274664   0.507   6.508   2.427  0.2561  0.3707 -0.2360
17750TIP3    H174665   0.514   6.413   2.440  0.8887  0.2357 -1.4159
17750TIP3    H274666   0.421   6.531   2.462  0.5867 -0.4294  1.1676
17751TIP3   OH274667   4.659   5.346   2.610 -0.0053  0.0640 -0.8560
17751TIP3    H174668   4.754   5.334   2.617  0.0780  0.6200 -1.0145
17751TIP3    H274669   4.646   5.441   2.616 -0.5885 -0.0401 -0.3782
17752TIP3   OH274670   3.425   4.014   2.632  0.5603 -0.1635  0.0902
17752TIP3    H174671   3.491   4.082   2.648  0.6585 -0.5002  1.1788
17752TIP3    H274672   3.341   4.061   2.635  0.7402  0.5551 -2.7891
17753TIP3   OH274673   1.593   2.416   1.402 -0.6434  0.0892 -0.2070
17753TIP3    H174674   1.524   2.443   1.462 -0.1851 -0.8175  0.7516
17753TIP3    H274675   1.564   2.332   1.367 -2.0264  1.6269 -3.1271
17754TIP3   OH274676   5.397   3.960  11.028  0.1236 -0.1697 -0.2313
17754TIP3    H174677   5.437   4.004  10.953  0.0282  0.5060  0.1043
17754TIP3    H274678   5.338   3.896  10.989  0.9242 -0.6138 -0.7314
17755TIP3   OH274679   0.182   3.385   0.464  0.3307  0.7978 -0.5899
17755TIP3    H174680   0.153   3.442   0.394  2.4301  2.2159 -0.4175
17755TIP3    H274681   0.110   3.384   0.527 -0.0582  2.7074 -0.9606
17756TIP3   OH274682   0.270   3.510  15.385  0.1074  0.2698 -0.4403
17756TIP3    H174683   0.318   3.592  15.396 -0.3370  0.3403  1.1730
17756TIP3    H274684   0.222   3.521  15.303 -0.1450  1.7248 -0.1090
17757TIP3   OH274685   2.079   4.886   3.637 -0.3951  0.1175  0.1383
17757TIP3    H174686   1.986   4.902   3.618 -0.9809 -0.8764  1.9344
17757TIP3    H274687   2.117   4.974   3.643 -1.2649  0.5475 -0.3388
17758TIP3   OH274688   0.501   0.237   4.614  0.3036  0.8480  0.0430
17758TIP3    H174689   0.587   0.231   4.656  0.3674  0.5753 -0.1294
17758TIP3    H274690   0.515   0.208   4.524  0.2795  1.9631 -0.3334
17759TIP3   OH274691   1.141   0.867   2.906  0.2361 -0.1016  0.4318
17759TIP3    H174692   1.128   0.958   2.879  0.1825 -0.2118  0.0705
17759TIP3    H274693   1.075   0.851   2.972  0.0650  0.0404  0.2958
17760TIP3   OH274694   5.450   6.415   2.798 -0.8273 -0.5802 -0.5711
17760TIP3    H174695   5.428   6.361   2.874 -1.4498  0.3459 -0.0787
17760TIP3    H274696   5.445   6.356   2.723 -3.9010 -0.6919 -0.3640
17761TIP3   OH274697   6.298   4.541   5.722  0.3210 -0.0571 -0.2727
17761TIP3    H174698   6.313   4.465   5.777  0.4417 -0.6549 -1.0997
17761TIP3    H274699   6.382   4.555   5.678 -0.2919 -0.8121 -1.7601
17762TIP3   OH274700   0.102   3.573  14.877  0.7142 -0.3857 -0.0986
17762TIP3    H174701   0.069   3.662  14.878 -0.9080 -0.9574  0.2071
17762TIP3    H274702   0.176   3.575  14.816  0.2932  1.0128 -0.5893
17763TIP3   OH274703   3.110   4.651   3.586 -0.1137  0.0088 -0.2838
17763TIP3    H174704   3.136   4.700   3.664  0.8115 -0.0223 -0.5658
17763TIP3    H274705   3.166   4.573   3.586 -0.8299 -0.5208 -0.4220
17764TIP3   OH274706   4.064   6.324  14.292  0.2368 -0.2631 -0.3177
17764TIP3    H174707   4.128   6.266  14.250 -0.2734 -2.0524  1.2276
17764TIP3    H274708   4.088   6.321  14.385  0.2612  2.1724 -0.1980
17765TIP3   OH274709   3.347   2.290  11.531 -0.1726 -0.3130 -0.0672
17765TIP3    H174710   3.264   2.337  11.532 -0.2710 -0.4634  1.5686
17765TIP3    H274711   3.412   2.355  11.558 -0.1953 -0.8543  1.4065
17766TIP3   OH274712   3.501   3.799  15.983 -0.3315  0.2410  0.0163
17766TIP3    H174713   3.595   3.811  15.999  0.0344  0.4823 -2.0946
17766TIP3    H274714   3.469   3.885  15.958 -0.9916  0.0099  0.0486
17767TIP3   OH274715   0.839   1.776  14.295 -0.5253 -0.2413 -0.4960
17767TIP3    H174716   0.914   1.824  14.259  0.2312 -1.3168 -0.3978
17767TIP3    H274717   0.772   1.843  14.308  0.0614  0.5823 -1.5345
17768TIP3   OH274718   1.362   1.229   4.490 -0.5719  0.0420  0.3184
17768TIP3    H174719   1.364   1.324   4.487 -0.6364  0.1017  1.7326
17768TIP3    H274720   1.322   1.208   4.574  2.0690 -1.2151  1.4045
17769TIP3   OH274721   3.468   4.895   0.624  0.0406 -0.5628 -0.1344
17769TIP3    H174722   3.559   4.907   0.653  0.6260 -1.2674 -1.5685
17769TIP3    H274723   3.435   4.824   0.680  0.5032 -0.5632  0.1446
17770TIP3   OH274724   4.683   0.627  11.990 -0.7043  0.0486 -0.3836
17770TIP3    H174725   4.716   0.577  12.065 -1.6059  1.9970  1.4229
17770TIP3    H274726   4.642   0.562  11.934  0.4152 -1.5398  0.5570
17771TIP3   OH274727   2.475   0.544  16.190 -0.2344  0.2698 -0.0398
17771TIP3    H174728   2.471   0.615  16.126  1.5794  2.0522  1.6728
17771TIP3    H274729   2.565   0.512  16.186  0.3187  1.2582  2.3324
17772TIP3   OH274730   4.756   2.484   3.597  0.2953 -0.4182  0.1052
17772TIP3    H174731   4.738   2.417   3.662  0.0945 -0.0316  0.4539
17772TIP3    H274732   4.670   2.503   3.559  0.2903 -0.0807  0.2826
17773TIP3   OH274733   1.050   1.946   4.606 -0.1196 -0.4108 -0.9231
17773TIP3    H174734   1.107   1.938   4.683 -1.0750 -0.4385 -0.2117
17773TIP3    H274735   1.040   1.857   4.574 -2.2754 -0.8678  0.8180
17774TIP3   OH274736   4.139   4.210   3.739 -0.2031 -0.4065  0.3766
17774TIP3    H174737   4.069   4.148   3.758  0.2347 -0.4470  2.0171
17774TIP3    H274738   4.185   4.172   3.664 -2.1111 -0.1866 -0.9783
17775TIP3   OH274739   0.391   6.100   0.710  0.0576  0.3320 -0.3415
17775TIP3    H174740   0.362   6.153   0.784 -0.4741  0.1423 -0.4131
17775TIP3    H274741   0.321   6.107   0.645  1.2521  1.9162 -1.5775
17776TIP3   OH274742   5.670   2.627   1.901  0.1699  0.3236 -0.0088
17776TIP3    H174743   5.675   2.665   1.989  0.7452 -1.5874  0.8314
17776TIP3    H274744   5.755   2.647   1.862  1.3667 -1.8552  1.2547
17777TIP3   OH274745   0.208   1.992   0.721 -0.0217 -0.3873 -0.2513
17777TIP3    H174746   0.289   2.042   0.708  0.4806 -1.2502 -0.5448
17777TIP3    H274747   0.211   1.965   0.813  1.4865 -2.8307 -0.9315
17778TIP3   OH274748   0.453   2.980   1.456 -0.0959  0.4002 -0.7769
17778TIP3    H174749   0.379   2.977   1.516  1.3487 -1.5536  1.1110
17778TIP3    H274750   0.444   3.062   1.409 -0.8054  2.6683  2.9254
17779TIP3   OH274751   1.295   0.658  16.768 -0.5508 -0.6179 -0.2592
17779TIP3    H174752   1.226   0.595  16.790 -0.7118 -0.4686 -0.3254
17779TIP3    H274753   1.257   0.711  16.697  0.5613 -2.1534 -2.1100
17780TIP3   OH274754   0.340   0.035   3.707  0.3547  0.6315  0.1631
17780TIP3    H174755   0.312   0.081   3.628 -1.4044  1.9056  1.4566
17780TIP3    H274756   0.436   0.032   3.700  0.3599  2.3327 -1.1536
17781TIP3   OH274757   2.786   1.914  14.579  0.8603 -0.3009 -0.2179
17781TIP3    H174758   2.833   1.832  14.595  0.1512 -0.3501  1.9467
17781TIP3    H274759   2.737   1.930  14.660 -0.5337  1.2758 -1.2972
17782TIP3   OH274760   1.234   3.556  12.041 -0.0433 -0.2876 -0.0409
17782TIP3    H174761   1.243   3.636  11.989 -1.6066  0.2022  0.4018
17782TIP3    H274762   1.151   3.566  12.088  0.4971 -1.4622  1.2576
17783TIP3   OH274763   0.565   2.626   5.540 -0.6622 -0.0248  0.5321
17783TIP3    H174764   0.651   2.592   5.565 -0.2873  0.5427  0.0250
17783TIP3    H274765   0.563   2.619   5.445 -1.7768 -1.4326  0.6284
17784TIP3   OH274766   1.998   3.284   6.348 -0.2803 -0.5130 -0.0552
17784TIP3    H174767   2.004   3.188   6.346  0.5429 -0.4710  0.0443
17784TIP3    H274768   1.952   3.307   6.268  0.1710 -0.9584 -0.4496
17785TIP3   OH274769   0.926   2.121  11.789  0.8428  0.8606 -0.2494
17785TIP3    H174770   0.974   2.080  11.717  4.1257 -0.8978  2.6244
17785TIP3    H274771   0.879   2.049  11.831  0.7069  1.4225  0.5855
17786TIP3   OH274772   0.720   2.540  14.578 -0.0658  0.6552 -0.4229
17786TIP3    H174773   0.779   2.606  14.541  0.0588  0.2312 -0.9749
17786TIP3    H274774   0.672   2.588  14.646  1.2037  0.9029  0.3246
17787TIP3   OH274775   0.388   5.845   0.839  0.6038 -0.3916 -0.6454
17787TIP3    H174776   0.482   5.841   0.825  1.2428  1.5918  2.2094
17787TIP3    H274777   0.367   5.939   0.840 -0.6614 -0.5934  2.3828
17788TIP3   OH274778   4.941   4.004   0.828  0.4361  0.5949 -0.6630
17788TIP3    H174779   4.992   4.022   0.748  1.1179  0.8300 -0.1835
17788TIP3    H274780   4.855   3.977   0.795  0.4789  1.3691 -1.4724
17789TIP3   OH274781   4.428   4.326  13.649 -1.0494 -0.3486 -0.3226
17789TIP3    H174782   4.386   4.349  13.732  0.6105 -0.9471  0.7381
17789TIP3    H274783   4.408   4.234  13.636 -2.5366  0.0996 -1.3773
17790TIP3   OH274784   1.291   4.857   0.958  0.5169  0.2686 -0.1274
17790TIP3    H174785   1.259   4.947   0.962  1.4925  0.5983  0.5040
17790TIP3    H274786   1.271   4.828   0.869  1.5242  1.6120 -0.8153
17791TIP3   OH274787   3.326   4.434   3.471 -0.2400 -0.8003 -0.6283
17791TIP3    H174788   3.389   4.397   3.409 -0.6030 -1.2710 -0.7246
17791TIP3    H274789   3.316   4.366   3.538 -1.2204 -1.0557 -1.0179
17792TIP3   OH274790   0.227   6.554  12.152 -0.3430  0.2999 -0.2633
17792TIP3    H174791   0.280   6.536  12.229 -0.6943 -0.4751 -0.2007
17792TIP3    H274792   0.182   6.637  12.173  0.7279  0.8953 -0.2680
17793TIP3   OH274793   5.440   5.130   1.747 -0.7027 -0.2121  0.2156
17793TIP3    H174794   5.531   5.142   1.719 -0.3398 -1.1442  0.9671
17793TIP3    H274795   5.406   5.064   1.687 -1.4365  1.3690 -1.1932
17794TIP3   OH274796   0.508   2.297   4.009  0.2736  0.0729 -0.4424
17794TIP3    H174797   0.429   2.329   4.053  1.5199  1.0613  1.2152
17794TIP3    H274798   0.484   2.210   3.977 -1.2370 -0.0145  0.7649
17795TIP3   OH274799   0.592   1.707   1.232 -0.4623  0.5600  0.0777
17795TIP3    H174800   0.610   1.735   1.142  1.7977 -0.5986  0.1052
17795TIP3    H274801   0.524   1.639   1.222  0.7574 -0.5634 -0.9443
17796TIP3   OH274802   4.445   4.251   3.513  1.1084 -0.8498 -0.1074
17796TIP3    H174803   4.381   4.318   3.489  1.4094 -0.8782 -1.0264
17796TIP3    H274804   4.411   4.170   3.473  1.5157 -0.9401 -0.2744
17797TIP3   OH274805   5.293   1.391   2.508  0.1321 -0.1865  0.5058
17797TIP3    H174806   5.290   1.476   2.464 -2.7564 -0.7604 -0.6498
17797TIP3    H274807   5.211   1.385   2.556 -1.8187 -3.8125 -2.6953
17798TIP3   OH274808   5.567   6.368   3.548  0.4094  0.0854  0.5060
17798TIP3    H174809   5.535   6.278   3.537  1.9022 -0.4409  0.3118
17798TIP3    H274810   5.660   6.363   3.528  0.1904  2.0473 -1.3571
17799TIP3   OH274811   5.699   0.843   1.153  0.5983 -0.0050 -0.6516
17799TIP3    H174812   5.638   0.884   1.215 -0.0384 -0.4627 -0.9661
17799TIP3    H274813   5.648   0.832   1.073  1.7501  1.6777 -1.6879
17800TIP3   OH274814   6.726   0.872   0.191  0.3258  0.6578  0.1862
17800TIP3    H174815   6.820   0.858   0.200  0.4082 -0.0756 -1.4450
17800TIP3    H274816   6.696   0.799   0.138 -0.9055  1.6830 -0.5880
17801TIP3   OH274817   1.501   4.844   3.629 -0.1269  0.2918  0.3098
17801TIP3    H174818   1.570   4.869   3.567 -0.8220 -1.0624 -1.0936
17801TIP3    H274819   1.543   4.782   3.688 -0.2627 -1.1851 -1.0555
17802TIP3   OH274820   5.784   5.716  10.869  0.1842  0.2305 -0.3179
17802TIP3    H174821   5.706   5.738  10.818  1.8925  2.2491 -2.2660
17802TIP3    H274822   5.822   5.641  10.824  0.3997  0.4762 -0.5459
17803TIP3   OH274823   3.544   1.633   4.434  0.3346  0.1795 -0.6044
17803TIP3    H174824   3.533   1.538   4.446  1.6933 -0.2981 -2.5470
17803TIP3    H274825   3.542   1.669   4.523 -2.6520 -1.3182  0.0395
17804TIP3   OH274826   6.227   3.994  12.147  0.2182 -0.0943  0.1220
17804TIP3    H174827   6.161   4.008  12.080 -1.8988 -1.8515  1.6586
17804TIP3    H274828   6.256   4.081  12.173 -3.5668  1.0056  1.2333
17805TIP3   OH274829   1.007   6.635  11.799 -0.3159  0.5499 -0.2759
17805TIP3    H174830   1.022   6.544  11.776 -0.9085  0.9106 -2.3695
17805TIP3    H274831   0.912   6.645  11.798 -0.2559  1.2002 -0.1315
17806TIP3   OH274832   0.715   2.740  16.058 -0.5752 -0.1024 -0.3956
17806TIP3    H174833   0.745   2.730  16.148  0.1146  0.7313 -0.5272
17806TIP3    H274834   0.621   2.720  16.062  0.0395 -3.6565 -0.1377
17807TIP3   OH274835   3.382   4.788  14.892  0.0878 -0.0352  0.3929
17807TIP3    H174836   3.451   4.838  14.848 -0.7776  1.1970  0.3831
17807TIP3    H274837   3.406   4.791  14.985  0.0382  0.3980  0.3925
17808TIP3   OH274838   5.521   6.324   6.123 -0.1085 -0.1348 -0.5322
17808TIP3    H174839   5.429   6.329   6.149  0.0750 -0.3198  0.1949
17808TIP3    H274840   5.557   6.252   6.174  0.5767  0.3083 -0.3582
17809TIP3   OH274841   5.288   2.175  11.480 -0.8022  0.3828  0.1008
17809TIP3    H174842   5.318   2.237  11.413  0.1518 -0.1371  0.0404
17809TIP3    H274843   5.233   2.113  11.433  0.2521 -0.2652 -0.3174
17810TIP3   OH274844   1.995   2.008   5.024  0.0146  0.3387 -0.3433
17810TIP3    H174845   1.933   1.936   5.039 -1.2732  1.4793  0.0785
17810TIP3    H274846   1.950   2.085   5.059  2.2496  1.0263  1.1768
17811TIP3   OH274847   6.617   4.565  16.453 -0.1328  0.3697  0.2520
17811TIP3    H174848   6.632   4.569  16.547  2.0246  0.3590 -0.0183
17811TIP3    H274849   6.634   4.654  16.422  2.0168 -0.1953 -0.4004
17812TIP3   OH274850   2.558   2.656  13.046 -0.1111  0.2480  0.1680
17812TIP3    H174851   2.532   2.589  12.982  0.9090 -0.3420  0.3318
17812TIP3    H274852   2.536   2.739  13.005  0.2471 -0.1377 -0.8269
17813TIP3   OH274853   0.592   0.118  15.471 -0.5399  0.0430 -0.1973
17813TIP3    H174854   0.557   0.207  15.482  0.7167  0.4092  1.1501
17813TIP3    H274855   0.594   0.105  15.376 -0.5777  1.5245 -0.4257
17814TIP3   OH274856   2.865   3.345  15.891 -0.0988 -0.0666  0.1041
17814TIP3    H174857   2.954   3.333  15.923  0.6567  1.0854 -1.4374
17814TIP3    H274858   2.874   3.405  15.817 -1.9714 -1.1419 -1.0660
17815TIP3   OH274859   2.153   3.219  10.304  0.0195 -0.3210  0.0185
17815TIP3    H174860   2.199   3.289  10.258 -1.9290  0.2084 -1.2755
17815TIP3    H274861   2.105   3.174  10.235  0.2767 -2.1872  1.0169
17816TIP3   OH274862   2.214   3.385   5.487  0.1935 -0.1442  0.3895
17816TIP3    H174863   2.273   3.436   5.431  0.7940  0.7347  1.7575
17816TIP3    H274864   2.247   3.296   5.482  2.2362  0.4493  1.7524
17817TIP3   OH274865   4.336   3.644   3.456  0.1190  0.1677  0.0144
17817TIP3    H174866   4.255   3.694   3.450  0.0071 -0.1620 -2.2169
17817TIP3    H274867   4.326   3.592   3.536 -2.3844 -0.6414 -0.6979
17818TIP3   OH274868   0.410   5.329  14.968  0.7472  0.0329  0.0003
17818TIP3    H174869   0.403   5.423  14.955  1.6774  0.3670  1.5890
17818TIP3    H274870   0.326   5.304  15.006  1.0846  0.5522  1.1441
17819TIP3   OH274871   5.968   1.778  14.723  0.9362 -0.1756  0.4733
17819TIP3    H174872   6.047   1.726  14.737  2.2926  1.5094 -0.5633
17819TIP3    H274873   5.953   1.822  14.806  1.0218 -0.5676  0.7009
17820TIP3   OH274874   2.210   2.332   3.766  0.0343  0.2040  0.3781
17820TIP3    H174875   2.263   2.331   3.687 -1.3986  1.7062 -0.6801
17820TIP3    H274876   2.196   2.425   3.784 -0.7263 -0.1343  1.6537
17821TIP3   OH274877   2.571   0.427  16.711  0.3898  0.0164  0.1598
17821TIP3    H174878   2.486   0.467  16.730  0.1922 -0.7291  0.9323
17821TIP3    H274879   2.558   0.334  16.730  1.8540  0.1362  2.0843
17822TIP3   OH274880   6.473   5.409   0.557  0.0846 -0.6833  0.0102
17822TIP3    H174881   6.432   5.347   0.617  1.1159 -0.1261  1.3420
17822TIP3    H274882   6.465   5.368   0.471 -1.8032 -1.3051  0.4432
17823TIP3   OH274883   4.017   6.461   2.451 -0.2706 -0.2964 -0.6032
17823TIP3    H174884   4.005   6.555   2.435 -0.8040 -0.0938  0.8234
17823TIP3    H274885   4.023   6.453   2.546  0.7545 -1.6142 -0.7434
17824TIP3   OH274886   1.115   0.780  12.504  0.2013  0.1560 -0.3370
17824TIP3    H174887   1.108   0.868  12.539 -0.9865  0.8658 -2.1743
17824TIP3    H274888   1.179   0.787  12.434 -2.2240  0.4500 -2.7014
17825TIP3   OH274889   3.659   3.909   3.384  0.0187 -0.1551  0.1166
17825TIP3    H174890   3.636   3.915   3.477  0.2905 -1.3585  0.2721
17825TIP3    H274891   3.753   3.893   3.383  0.1631  0.6457 -0.4044
17826TIP3   OH274892   6.424   5.961  15.984  0.1145 -0.1194  0.5142
17826TIP3    H174893   6.494   6.010  16.028  1.0588 -1.1878  0.2797
17826TIP3    H274894   6.408   5.887  16.043 -0.0122 -0.4865  0.0176
17827TIP3   OH274895   5.699   2.582   4.578  0.1128  0.4182 -0.1093
17827TIP3    H174896   5.614   2.578   4.621 -0.0592  0.2967 -0.4567
17827TIP3    H274897   5.699   2.507   4.518  0.0274  1.0365 -0.9094
17828TIP3   OH274898   1.638   6.651  11.835  0.3987 -0.1090 -0.8090
17828TIP3    H174899   1.623   6.716  11.904 -0.2067 -1.5951  0.5390
17828TIP3    H274900   1.723   6.613  11.856  0.0706 -0.7858 -0.6666
17829TIP3   OH274901   6.271   5.644  14.339  0.1544  0.6542  0.3838
17829TIP3    H174902   6.295   5.607  14.423 -0.6163  0.6485  0.6119
17829TIP3    H274903   6.344   5.702  14.316  0.3697  0.6537  1.0507
17830TIP3   OH274904   3.441   0.614   4.336 -0.1886 -0.0989  0.5577
17830TIP3    H174905   3.367   0.554   4.329  0.4915 -1.0162  0.9628
17830TIP3    H274906   3.418   0.674   4.406 -0.4373 -0.5404  0.8566
17831TIP3   OH274907   4.623   3.997  12.491  0.2026 -0.3356 -0.0067
17831TIP3    H174908   4.716   4.018  12.485  0.4237 -0.0549  2.8592
17831TIP3    H274909   4.579   4.071  12.449  1.2413  1.0121  1.1654
17832TIP3   OH274910   2.901   0.613  11.000 -0.5027 -0.4346  0.1454
17832TIP3    H174911   2.826   0.618  11.058 -0.5324 -0.9646  0.1579
17832TIP3    H274912   2.876   0.663  10.922 -0.9777 -0.8506  0.0304
17833TIP3   OH274913   2.651   0.655  15.234  0.4904  0.6816  0.3869
17833TIP3    H174914   2.599   0.639  15.313 -2.1370  1.4375 -1.0510
17833TIP3    H274915   2.641   0.748  15.217  0.1055  0.3649 -1.3793
17834TIP3   OH274916   4.602   3.846   4.774 -0.2174  0.3368  0.1676
17834TIP3    H174917   4.649   3.875   4.696 -1.8433 -0.2014 -1.0742
17834TIP3    H274918   4.653   3.772   4.807  2.3299  2.5700  1.6548
17835TIP3   OH274919   3.765   5.833   4.037 -0.7844 -0.1249 -0.0826
17835TIP3    H174920   3.745   5.843   4.130  2.1414  1.9707  0.4597
17835TIP3    H274921   3.855   5.863   4.028 -0.4290 -1.6804 -3.3992
17836TIP3   OH274922   0.451   4.119   4.017 -0.4669 -0.4203  0.3381
17836TIP3    H174923   0.459   4.213   4.034 -1.3487 -0.4610  1.0801
17836TIP3    H274924   0.395   4.113   3.939 -3.4246 -0.3227  2.2662
17837TIP3   OH274925   4.371   1.605  12.793 -0.2872 -0.2825 -0.5507
17837TIP3    H174926   4.382   1.583  12.701  0.1323 -0.2458 -0.5118
17837TIP3    H274927   4.361   1.700  12.793 -0.3222 -0.2860 -0.5592
17838TIP3   OH274928   1.555   1.022   3.459 -0.4541 -0.6825  0.2699
17838TIP3    H174929   1.646   1.044   3.440 -0.5846 -0.6842 -0.3782
17838TIP3    H274930   1.558   0.973   3.541  0.2482 -1.6103 -0.2945
17839TIP3   OH274931   5.048   6.303   5.138  0.0151 -0.9644 -0.1123
17839TIP3    H174932   4.991   6.250   5.193 -1.8366  1.5937  0.6606
17839TIP3    H274933   5.125   6.320   5.193 -1.1130  0.2587  1.1685
17840TIP3   OH274934   3.628   3.554  14.907 -0.0056  0.3171  0.4939
17840TIP3    H174935   3.637   3.647  14.926 -0.0954  0.9373 -2.1039
17840TIP3    H274936   3.715   3.527  14.877  0.0764 -0.5187  1.4260
17841TIP3   OH274937   4.521   3.729   1.767 -0.4921 -0.2883  0.4782
17841TIP3    H174938   4.468   3.734   1.846  0.2340 -0.2009  0.9612
17841TIP3    H274939   4.573   3.809   1.767  1.2812 -1.3962  1.1829
17842TIP3   OH274940   1.056   0.150  11.911 -0.4384 -0.5785  0.2397
17842TIP3    H174941   1.053   0.062  11.949  0.8791 -1.1790 -0.9746
17842TIP3    H274942   0.986   0.150  11.845  0.0299 -0.9687 -0.2624
17843TIP3   OH274943   6.757   3.244   1.995  0.1497  0.5721 -0.1174
17843TIP3    H174944   6.782   3.158   2.030  1.0524 -0.1486 -2.3757
17843TIP3    H274945   6.697   3.280   2.060  0.4399 -1.3872  1.3098
17844TIP3   OH274946   6.278   4.927   1.524  0.2047 -0.6191  0.1500
17844TIP3    H174947   6.344   4.862   1.501  1.5023  1.6929 -3.4015
17844TIP3    H274948   6.217   4.927   1.451 -1.1685  0.4757  1.2293
17845TIP3   OH274949   3.053   4.836   4.160 -0.0598 -0.2623 -0.3040
17845TIP3    H174950   3.021   4.772   4.097 -0.2401 -0.7516  0.2843
17845TIP3    H274951   3.108   4.895   4.108  1.3914 -1.7947 -0.5720
17846TIP3   OH274952   5.944   5.399  12.355 -0.0317 -0.2305  0.0270
17846TIP3    H174953   5.971   5.311  12.326  0.1811  0.1589 -1.0097
17846TIP3    H274954   5.906   5.385  12.441  1.8766 -1.0811  0.8053
17847TIP3   OH274955   0.254   3.546   5.343  0.0210  0.1768  0.4414
17847TIP3    H174956   0.250   3.452   5.325  0.8632  0.3485 -0.7659
17847TIP3    H274957   0.167   3.568   5.377 -1.1049 -0.5504 -1.8115
17848TIP3   OH274958   6.630   6.589  14.778  0.3135  0.1830  0.3486
17848TIP3    H174959   6.611   6.496  14.794  1.7714 -0.0499  0.8915
17848TIP3    H274960   6.578   6.636  14.844 -0.6846 -0.2065 -0.1367
17849TIP3   OH274961   0.632   5.328   5.191 -0.3065  0.2886  0.5264
17849TIP3    H174962   0.688   5.373   5.254  0.4544 -0.0498  0.1026
17849TIP3    H274963   0.676   5.244   5.175 -1.6306 -0.5743  1.2080
17850TIP3   OH274964   2.576   1.361   1.261  0.3102  0.3299 -0.3325
17850TIP3    H174965   2.534   1.276   1.276  1.4873 -0.2617 -0.2391
17850TIP3    H274966   2.515   1.425   1.297  0.3954 -0.6428  1.6751
17851TIP3   OH274967   1.885   6.604  12.466 -0.4667  0.3537 -0.0257
17851TIP3    H174968   1.873   6.649  12.549 -0.5686  0.6716 -0.2101
17851TIP3    H274969   1.924   6.520  12.489 -1.2233  0.1217  0.4056
17852TIP3   OH274970   2.343   4.460   5.007 -0.3628  0.1989 -0.5702
17852TIP3    H174971   2.329   4.453   4.913 -0.6902  0.2832 -0.5274
17852TIP3    H274972   2.431   4.498   5.015  0.6098 -1.8470 -0.8272
17853TIP3   OH274973   4.416   0.396  11.040  0.3682  0.1280 -0.2200
17853TIP3    H174974   4.501   0.440  11.038  0.7059 -0.5071  0.1310
17853TIP3    H274975   4.355   0.462  11.006  1.2189  0.1030 -1.8988
17854TIP3   OH274976   0.890   6.691   2.302  0.0007 -0.2518 -0.1655
17854TIP3    H174977   0.921   6.606   2.269 -0.1446  0.2186 -1.6179
17854TIP3    H274978   0.956   6.753   2.271  0.0187  0.1992  0.7471
17855TIP3   OH274979   4.943   3.816  12.124 -0.2997  0.0321  0.5293
17855TIP3    H174980   4.925   3.901  12.165  0.0097 -0.8356  2.5948
17855TIP3    H274981   5.033   3.824  12.091 -0.7806  0.9696 -0.5832
17856TIP3   OH274982   6.189   1.323  16.289 -0.3653  0.0242 -0.1782
17856TIP3    H174983   6.163   1.323  16.197 -0.8498  0.4117 -0.0454
17856TIP3    H274984   6.187   1.230  16.315 -0.3007 -0.0778 -0.5322
17857TIP3   OH274985   5.904   4.992  11.964 -0.0227 -0.1915 -0.0223
17857TIP3    H174986   5.869   4.925  11.906  0.8198 -2.1692  1.6441
17857TIP3    H274987   5.920   4.947  12.047  0.4133  2.1181  1.2535
17858TIP3   OH274988   1.055   6.513  15.133  0.0004 -0.0456 -0.1879
17858TIP3    H174989   0.977   6.528  15.186  0.0639  0.7293 -0.2941
17858TIP3    H274990   1.120   6.480  15.195 -0.2303 -0.1143  0.0184
17859TIP3   OH274991   1.309   3.236   4.340  0.4802 -0.5094  0.5479
17859TIP3    H174992   1.305   3.321   4.296 -0.3606 -0.9420 -0.2403
17859TIP3    H274993   1.376   3.188   4.293  0.1602 -0.6777  0.2573
17860TIP3   OH274994   2.806   1.361  14.637 -0.5975 -0.1087  0.2719
17860TIP3    H174995   2.723   1.400  14.609 -0.5216 -0.7267 -0.8540
17860TIP3    H274996   2.862   1.365  14.560 -0.3988 -1.8958  0.2765
17861TIP3   OH274997   1.506   2.100  12.132  0.3245  0.9200  0.1157
17861TIP3    H174998   1.475   2.127  12.219 -1.1272  0.1183 -0.1304
17861TIP3    H274999   1.441   2.135  12.071 -0.0706 -0.6828 -0.4282
17862TIP3   OH275000   1.090   5.653   3.667  0.2326 -0.6038  0.3497
17862TIP3    H175001   1.094   5.598   3.745  2.4394 -0.6033  0.3201
17862TIP3    H275002   1.028   5.609   3.609  1.0175 -2.4116  0.8071
17863TIP3   OH275003   1.779   1.326   1.516  0.0537  0.5424 -0.2569
17863TIP3    H175004   1.817   1.292   1.436  0.8760  1.7862 -0.4177
17863TIP3    H275005   1.687   1.342   1.494 -0.3729 -1.4886 -0.1694
17864TIP3   OH275006   4.512   5.055   0.557 -0.5375 -0.1975  0.4261
17864TIP3    H175007   4.503   4.981   0.496 -1.2829 -0.0948  0.4058
17864TIP3    H275008   4.587   5.031   0.612  3.0911  1.5775 -3.1817
17865TIP3   OH275009   2.796   4.521   5.005  0.2002 -0.3160  0.3649
17865TIP3    H175010   2.879   4.568   5.014 -0.7132  1.7465 -1.0000
17865TIP3    H275011   2.821   4.430   4.991  2.1080 -0.2192  2.4473
17866TIP3   OH275012   5.314   6.161  14.508  0.1236  0.2426 -0.0354
17866TIP3    H175013   5.376   6.088  14.497  0.1144  0.5344 -2.8017
17866TIP3    H275014   5.335   6.220  14.436 -2.8302  0.7482 -0.5931
17867TIP3   OH275015   0.551   2.362  13.070 -0.3475  0.6256 -0.0745
17867TIP3    H175016   0.526   2.273  13.096  0.2924  0.3030 -0.5368
17867TIP3    H275017   0.489   2.418  13.116  0.2977  0.0537  1.6003
17868TIP3   OH275018   5.720   0.703   2.488 -0.2440  0.0532  0.3993
17868TIP3    H175019   5.724   0.797   2.504 -0.3684 -0.0875  1.3609
17868TIP3    H275020   5.807   0.680   2.455  0.0767  0.3743  0.9934
17869TIP3   OH275021   4.997   4.089  10.837 -0.1655 -0.2934 -0.4429
17869TIP3    H175022   5.090   4.077  10.822 -0.1534 -0.2754 -0.3812
17869TIP3    H275023   4.990   4.176  10.876 -0.2600 -0.0487 -0.9899
17870TIP3   OH275024   4.667   6.500  11.509 -0.3760 -0.2184 -0.2997
17870TIP3    H175025   4.700   6.473  11.423  0.6816  0.9453 -0.2969
17870TIP3    H275026   4.739   6.483  11.569 -0.8759 -0.4176  0.2537
17871TIP3   OH275027   6.698   0.014  11.358 -0.5779  0.2438 -0.0352
17871TIP3    H175028   6.684  -0.068  11.405  0.8362  0.2044  0.3693
17871TIP3    H275029   6.631   0.015  11.290 -0.4481 -1.3617 -0.2064
17872TIP3   OH275030   3.911   2.984   1.105  0.3945 -0.3852  0.2693
17872TIP3    H175031   4.001   3.017   1.094  0.3697 -0.3792  0.0843
17872TIP3    H275032   3.878   2.974   1.016  0.2310 -0.4443  0.3365
17873TIP3   OH275033   3.814   5.350  12.321  0.0605 -0.1009 -0.6191
17873TIP3    H175034   3.834   5.427  12.373  1.0697  0.9396 -2.4463
17873TIP3    H275035   3.739   5.310  12.365 -0.2527  1.6945  0.5869
17874TIP3   OH275036   1.203   4.109  16.754  0.7140 -0.3731  0.5651
17874TIP3    H175037   1.185   4.081  16.844  0.6338  0.4167  0.8060
17874TIP3    H275038   1.277   4.168  16.762  0.6148 -0.1865  0.1283
17875TIP3   OH275039   3.258   6.489  10.504 -0.0922 -0.4416 -0.0957
17875TIP3    H175040   3.306   6.451  10.431  0.1058 -2.5201  1.0485
17875TIP3    H275041   3.249   6.418  10.567  2.2516  1.9040  3.2424
17876TIP3   OH275042   4.413   3.495   0.539 -0.4359  0.1720 -0.5332
17876TIP3    H175043   4.353   3.421   0.534 -0.8746  0.5814 -4.5058
17876TIP3    H275044   4.499   3.457   0.517  0.0425  0.3119  0.9674
17877TIP3   OH275045   5.292   3.165  11.200 -0.3505 -0.0975 -0.1067
17877TIP3    H175046   5.285   3.237  11.136  1.7099  0.4457  0.1935
17877TIP3    H275047   5.202   3.144  11.222 -1.0555  1.5068 -1.2099
17878TIP3   OH275048   2.821   6.589  13.145  0.0573 -0.3374  0.2443
17878TIP3    H175049   2.867   6.529  13.086  0.2553 -0.4935  0.5514
17878TIP3    H275050   2.739   6.545  13.165 -0.2874 -0.0004 -0.4066
17879TIP3   OH275051   1.723   2.210  11.180  0.0521 -0.1647 -0.2460
17879TIP3    H175052   1.748   2.122  11.208 -1.6566 -0.8658 -0.7425
17879TIP3    H275053   1.797   2.266  11.205  1.2132 -1.7433  0.0052
17880TIP3   OH275054   2.823   5.296   3.107  0.6580  0.4424 -0.0211
17880TIP3    H175055   2.809   5.313   3.200 -0.9760  0.1361 -0.1856
17880TIP3    H275056   2.918   5.300   3.096  0.9200 -0.0785  1.7584
17881TIP3   OH275057   2.127   2.565   3.968 -0.5615 -0.1305  0.3325
17881TIP3    H175058   2.205   2.571   4.023 -1.2115 -0.4481  1.3264
17881TIP3    H275059   2.062   2.522   4.024 -1.5767  0.4949 -0.3352
17882TIP3   OH275060   6.029   0.998  14.726  0.2257  0.7400  0.6650
17882TIP3    H175061   6.024   1.032  14.816 -0.0794  3.7619 -0.3930
17882TIP3    H275062   6.098   0.932  14.730 -1.0195 -0.5848  3.4713
17883TIP3   OH275063   5.226   3.735   5.443  0.2931 -0.2340 -0.0954
17883TIP3    H175064   5.135   3.735   5.475  0.0941 -1.9851 -0.5711
17883TIP3    H275065   5.218   3.753   5.349  0.2058 -2.4919 -0.5728
17884TIP3   OH275066   2.845   1.567  11.797  0.8091 -0.4284  0.0005
17884TIP3    H175067   2.891   1.486  11.776  1.4802 -0.4892  1.5655
17884TIP3    H275068   2.872   1.628  11.728  2.4659 -0.7646  0.3121
17885TIP3   OH275069   3.907   5.575   5.406  0.2330 -0.6528  0.3589
17885TIP3    H175070   3.938   5.552   5.493  1.1216  0.5374  0.3840
17885TIP3    H275071   3.918   5.670   5.401  1.2970 -0.8265 -1.4534
17886TIP3   OH275072   6.299   6.052   0.744 -0.1964 -0.5473  0.4413
17886TIP3    H175073   6.359   5.977   0.744  0.2599 -0.2025  1.8739
17886TIP3    H275074   6.351   6.123   0.707 -1.0363 -1.1830 -2.1916
17887TIP3   OH275075   4.114   1.910   0.083 -0.2778  0.7668  0.1866
17887TIP3    H175076   4.196   1.938   0.123  0.0022  1.9816 -1.1515
17887TIP3    H275077   4.140   1.847   0.016 -0.5869  0.1331  0.6419
17888TIP3   OH275078   3.138   6.453   2.450 -0.5472  0.2314  0.2936
17888TIP3    H175079   3.130   6.542   2.485  1.5039  0.1901  1.0166
17888TIP3    H275080   3.211   6.415   2.498  0.4248 -0.8939 -1.9267
17889TIP3   OH275081   6.164   2.348   1.893 -0.7250 -0.9173 -0.4413
17889TIP3    H175082   6.068   2.348   1.897 -0.6765 -1.8893  2.0887
17889TIP3    H275083   6.192   2.339   1.984  1.7927 -0.7141 -1.1312
17890TIP3   OH275084   4.912   6.228   6.283  0.2942  0.5825 -0.3048
17890TIP3    H175085   5.001   6.195   6.268 -0.5781 -1.8085 -0.5594
17890TIP3    H275086   4.885   6.188   6.365 -2.2282 -2.7905 -2.5362
17891TIP3   OH275087   4.548   0.805  10.715  0.1199 -0.0472  0.0681
17891TIP3    H175088   4.456   0.827  10.729  0.2663 -0.1445  1.2850
17891TIP3    H275089   4.572   0.850  10.634 -0.5271  1.3849  0.6556
17892TIP3   OH275090   3.167   1.859   5.674 -0.4684 -0.6970  0.4369
17892TIP3    H175091   3.189   1.937   5.623 -0.1062 -1.0279  0.0720
17892TIP3    H275092   3.146   1.892   5.761 -3.0901  0.1071 -0.3954
17893TIP3   OH275093   0.579   6.093  14.519  0.0367 -0.4726 -0.3125
17893TIP3    H175094   0.539   6.045  14.592 -0.6715  1.6458  0.7967
17893TIP3    H275095   0.662   6.124  14.554 -0.2303  0.4090 -0.4270
17894TIP3   OH275096   4.622   4.626  14.062  0.3134  0.2906 -0.0375
17894TIP3    H175097   4.714   4.651  14.068  0.1141  1.3893 -1.2377
17894TIP3    H275098   4.592   4.663  13.979 -1.0778 -0.5141  0.0770
17895TIP3   OH275099   2.738   3.369   3.975  0.4815 -0.5385  0.1323
17895TIP3    H175100   2.793   3.444   3.997  0.1105 -0.2466  0.0693
17895TIP3    H275101   2.800   3.299   3.956  0.8272 -0.3260  0.4621
17896TIP3   OH275102   0.120   4.873  12.578 -0.0271  0.3391  0.4248
17896TIP3    H175103   0.156   4.814  12.644  0.3371 -0.0847 -0.1458
17896TIP3    H275104   0.025   4.867  12.589  0.0102 -0.3107  0.4037
17897TIP3   OH275105   3.756   4.347   4.547 -0.3565 -0.2776  0.7311
17897TIP3    H175106   3.664   4.365   4.532 -0.3146 -0.3645  0.3652
17897TIP3    H275107   3.762   4.327   4.641 -0.4286  1.4609  1.1337
17898TIP3   OH275108   3.031   3.416  12.775  0.3142 -0.2591 -0.8992
17898TIP3    H175109   3.112   3.429  12.725  0.7152 -0.3922 -0.2938
17898TIP3    H275110   3.049   3.456  12.860 -0.7002  0.8216 -1.1759
17899TIP3   OH275111   4.539   3.203  15.236  0.1989  0.1772 -0.6777
17899TIP3    H175112   4.571   3.285  15.199  0.1166  0.6124  0.1955
17899TIP3    H275113   4.478   3.229  15.305 -0.0394 -0.6191 -0.5729
17900TIP3   OH275114   5.803   4.603  13.324  0.6165 -0.4906 -0.1346
17900TIP3    H175115   5.886   4.605  13.372 -0.6620 -3.6547  2.6139
17900TIP3    H275116   5.787   4.510  13.309 -2.7854 -0.0609  0.1807
17901TIP3   OH275117   1.631   1.138   0.203  0.5242  0.4777  0.3283
17901TIP3    H175118   1.640   1.043   0.190  0.2557  0.4758  0.1660
17901TIP3    H275119   1.721   1.170   0.202  0.5929  0.2753 -0.0001
17902TIP3   OH275120   5.338   2.497  16.107 -0.1804 -0.4763 -0.0270
17902TIP3    H175121   5.261   2.519  16.159 -1.4025 -2.0592 -1.0548
17902TIP3    H275122   5.364   2.410  16.137  1.2385  0.0445  0.3122
17903TIP3   OH275123   5.150   0.504   5.834 -0.4023 -0.0941  0.0668
17903TIP3    H175124   5.121   0.507   5.925  2.7095 -0.0766  1.1452
17903TIP3    H275125   5.224   0.443   5.834 -0.4630 -0.2682 -2.5283
17904TIP3   OH275126   0.276   4.004   6.239 -0.0245  0.1903  0.4857
17904TIP3    H175127   0.245   3.932   6.294  0.1702  0.2572  0.6840
17904TIP3    H275128   0.262   3.973   6.149  1.1827 -0.6055  0.5494
17905TIP3   OH275129   4.582   4.694   4.102 -0.5998 -0.2266  0.2700
17905TIP3    H175130   4.585   4.788   4.087  0.7299 -0.3676 -0.4892
17905TIP3    H275131   4.511   4.682   4.166  0.1362  1.4374  1.4711
17906TIP3   OH275132   2.478   2.983  13.924  0.1626  0.5284  0.3948
17906TIP3    H175133   2.458   3.058  13.867  0.2452  0.7341  0.6344
17906TIP3    H275134   2.496   3.022  14.009 -0.2591  0.1929  0.6406
17907TIP3   OH275135   3.593   1.173   3.361  0.7505  0.0386  0.3473
17907TIP3    H175136   3.680   1.206   3.381  0.6445 -1.1839  3.3548
17907TIP3    H275137   3.582   1.097   3.418 -1.9565 -0.3947 -0.5813
17908TIP3   OH275138   2.915   3.391   1.984 -0.0327  0.6325 -0.1225
17908TIP3    H175139   2.964   3.338   2.046 -0.8699 -0.5307 -0.4254
17908TIP3    H275140   2.839   3.422   2.033  1.7155  3.8353  0.8615
17909TIP3   OH275141   6.067   0.045  14.589 -0.2050  0.3562 -0.1080
17909TIP3    H175142   5.992   0.104  14.583 -1.5376 -1.1461  0.7792
17909TIP3    H275143   6.120   0.079  14.661 -2.0823 -0.6441  1.8662
17910TIP3   OH275144   6.121   2.579   3.435 -0.1778  0.6751  0.3001
17910TIP3    H175145   6.205   2.618   3.413  0.1209 -0.2764 -0.2862
17910TIP3    H275146   6.059   2.621   3.375  0.0091  0.7943  0.1882
17911TIP3   OH275147   3.538   6.238  14.807 -0.0956  0.1528 -0.4064
17911TIP3    H175148   3.447   6.224  14.834 -0.3088  0.0925 -1.1312
17911TIP3    H275149   3.571   6.305  14.868 -1.0117  1.1048 -0.9189
17912TIP3   OH275150   5.143   1.501   1.879  0.0363 -0.2168 -0.1742
17912TIP3    H175151   5.207   1.508   1.949 -0.0390 -2.3185  0.1585
17912TIP3    H275152   5.067   1.458   1.919 -0.4056 -0.5267 -1.2847
17913TIP3   OH275153   6.788   1.068   1.635  0.3351 -0.2332 -0.1883
17913TIP3    H175154   6.884   1.067   1.644  0.4110  0.0613 -0.8561
17913TIP3    H275155   6.765   0.976   1.621  0.5384 -0.2854 -0.1862
17914TIP3   OH275156   2.094   4.940   3.072 -0.5653 -0.0373 -0.5086
17914TIP3    H175157   2.152   5.007   3.110  0.5838 -1.5853  0.5866
17914TIP3    H275158   2.102   4.866   3.132 -2.6814 -0.7816 -1.0763
17915TIP3   OH275159   2.188   4.262  13.325  0.3839  0.0471  0.0955
17915TIP3    H175160   2.263   4.274  13.383 -0.0115  0.2546  0.5750
17915TIP3    H275161   2.113   4.251  13.385 -0.1289  0.9177 -0.3681
17916TIP3   OH275162   0.616   5.665  11.878 -0.4412 -0.5225 -0.5394
17916TIP3    H175163   0.646   5.611  11.951 -0.3866  1.5188  1.0394
17916TIP3    H275164   0.697   5.695  11.836 -0.3803  0.4049  0.2096
17917TIP3   OH275165   0.289   5.462   0.841  0.4142 -0.0922  0.6432
17917TIP3    H175166   0.212   5.428   0.795 -1.3622  2.2375  1.7234
17917TIP3    H275167   0.338   5.509   0.774 -0.3313  0.3681  0.4113
17918TIP3   OH275168   6.782   0.899   5.043  0.4924 -0.1027 -0.0441
17918TIP3    H175169   6.784   0.827   5.106  0.2017  1.3615  1.7095
17918TIP3    H275170   6.696   0.893   5.001  0.3626 -0.5879  0.2844
17919TIP3   OH275171   5.038   3.295   4.212  0.4838 -0.0605  0.6213
17919TIP3    H175172   5.124   3.255   4.199 -0.0509 -0.8560 -0.6862
17919TIP3    H275173   4.996   3.241   4.279  0.5562 -0.4079  0.3865
17920TIP3   OH275174   6.808   2.649  12.168 -0.1451  0.4684  0.1361
17920TIP3    H175175   6.780   2.562  12.195  1.5437 -0.8811 -2.1471
17920TIP3    H275176   6.781   2.656  12.077 -1.3815  2.9172  0.5866
17921TIP3   OH275177   0.512   6.013  14.787  0.1743  0.1367  0.5962
17921TIP3    H175178   0.583   5.949  14.783 -1.6568 -1.9885  0.6256
17921TIP3    H275179   0.535   6.070  14.861  0.8922 -1.7156  1.8592
17922TIP3   OH275180   3.248   0.247  16.172  0.2218  1.0395  0.2263
17922TIP3    H175181   3.330   0.214  16.135  0.6777  0.5370  1.6303
17922TIP3    H275182   3.250   0.219  16.263 -2.0391  0.0420  0.0233
17923TIP3   OH275183   1.843   0.965  15.480 -0.4865 -0.1231  0.0082
17923TIP3    H175184   1.749   0.978  15.493 -0.6689 -0.0344 -1.2963
17923TIP3    H275185   1.849   0.913  15.400  0.5826 -0.1163  0.0779
17924TIP3   OH275186   3.595   2.389   1.932 -0.5423  0.1730 -0.0926
17924TIP3    H175187   3.522   2.398   1.993 -0.5178 -0.5829  0.0525
17924TIP3    H275188   3.569   2.321   1.871  0.0320 -0.1005 -0.0451
17925TIP3   OH275189   3.978   2.393  14.299 -0.1237 -0.4512  0.4931
17925TIP3    H175190   3.954   2.459  14.365 -2.1012  0.6859 -1.2571
17925TIP3    H275191   3.897   2.377  14.250  1.4050 -0.6153 -2.1756
17926TIP3   OH275192   5.826   3.612   5.539 -0.1653 -0.3140  0.3515
17926TIP3    H175193   5.802   3.606   5.446  0.7656  2.5432 -0.1640
17926TIP3    H275194   5.921   3.601   5.539  0.0733  1.4973  0.6923
17927TIP3   OH275195   1.317   0.096   5.610  0.0954 -0.5619 -0.0775
17927TIP3    H175196   1.325   0.059   5.698  2.8671  0.7205  0.3156
17927TIP3    H275197   1.347   0.026   5.551  0.9164 -0.5266  0.2773
17928TIP3   OH275198   5.075   0.055   1.973  0.4044  0.3256  0.3143
17928TIP3    H175199   5.147   0.024   2.027 -1.0838 -1.3699  1.4552
17928TIP3    H275200   5.110   0.052   1.883  1.1778 -2.5064  0.5883
17929TIP3   OH275201   2.481   2.402   2.237 -0.0889  0.1172  0.0633
17929TIP3    H175202   2.572   2.386   2.261 -0.8221 -0.9594  2.4758
17929TIP3    H275203   2.461   2.333   2.173  0.5241 -0.2750  0.2800
17930TIP3   OH275204   1.642   0.673  14.883  0.2913  0.4053 -0.2928
17930TIP3    H175205   1.618   0.625  14.804 -0.0512  0.1154 -0.0197
17930TIP3    H275206   1.735   0.656  14.895  0.2726  0.1871 -0.4557
17931TIP3   OH275207   1.327   3.389   0.430  0.0661 -0.4479 -0.7317
17931TIP3    H175208   1.278   3.424   0.355  0.8342  0.1405 -0.9640
17931TIP3    H275209   1.259   3.349   0.485 -0.8386  1.1430 -0.5942
17932TIP3   OH275210   2.594   0.807  11.549 -0.1018 -0.0899  0.2964
17932TIP3    H175211   2.584   0.901  11.537  2.4239  0.1688 -0.4049
17932TIP3    H275212   2.679   0.798  11.593  1.0622 -2.1063 -2.1081
17933TIP3   OH275213   3.026   6.243  16.543  0.0556  0.1925 -0.3286
17933TIP3    H175214   2.978   6.229  16.461 -0.5055  1.3844 -0.2085
17933TIP3    H275215   2.988   6.179  16.604  0.4018 -0.6296 -0.9486
17934TIP3   OH275216   2.120   5.395  15.508 -0.9761  0.4402  0.1450
17934TIP3    H175217   2.156   5.308  15.487  2.3235  0.9958  2.7039
17934TIP3    H275218   2.077   5.423  15.427  0.3924 -2.3659 -1.7158
17935TIP3   OH275219   6.813   0.414   2.485 -0.2104  0.2309 -0.2388
17935TIP3    H175220   6.772   0.457   2.560 -1.0439  1.7347 -1.4946
17935TIP3    H275221   6.831   0.485   2.423  3.5178 -0.4488 -0.1830
17936TIP3   OH275222   4.890   2.375  15.651  0.0625 -0.4005  0.2989
17936TIP3    H175223   4.874   2.402  15.561  3.2586  0.8001 -0.0446
17936TIP3    H275224   4.898   2.457  15.700  0.5248 -0.9851  1.2290
17937TIP3   OH275225   3.710   5.019   2.644 -0.2476  0.1674 -0.2605
17937TIP3    H175226   3.636   4.981   2.597  0.5387 -1.7819 -0.0041
17937TIP3    H275227   3.670   5.076   2.709 -1.4450  0.5603 -1.3005
17938TIP3   OH275228   3.991   0.221  14.211 -0.1119 -0.4436  0.8163
17938TIP3    H175229   4.063   0.262  14.260 -2.1156  1.2666  2.5714
17938TIP3    H275230   3.934   0.294  14.187 -1.2341 -1.7207 -0.6141
17939TIP3   OH275231   6.534   1.163   4.794  0.8399  0.5858  0.7970
17939TIP3    H175232   6.589   1.235   4.763 -2.0470  2.3157 -0.6836
17939TIP3    H275233   6.496   1.195   4.875  0.5831  0.1531  0.8517
17940TIP3   OH275234   2.034   2.110   0.989 -0.3252 -0.0927  0.0857
17940TIP3    H175235   2.116   2.104   1.039 -2.4701  1.8774  4.4171
17940TIP3    H275236   1.983   2.035   1.019 -0.6825 -0.5435 -1.5475
17941TIP3   OH275237   4.811   4.292  14.853 -0.3425  0.1288 -0.0747
17941TIP3    H175238   4.844   4.296  14.943  0.0310 -1.2666 -0.1228
17941TIP3    H275239   4.834   4.377  14.815  1.7132 -0.1528  0.4158
17942TIP3   OH275240   3.111   1.700   3.132  0.0629  0.1178  0.0072
17942TIP3    H175241   3.080   1.682   3.221 -2.2059  2.3739 -0.2141
17942TIP3    H275242   3.050   1.654   3.075  0.2321  0.3776 -0.3924
17943TIP3   OH275243   2.290   3.904   5.906 -0.5028 -0.1093  0.3153
17943TIP3    H175244   2.337   3.988   5.903 -1.2939  0.3119 -0.7575
17943TIP3    H275245   2.300   3.868   5.818  0.4080 -1.4893  0.9525
17944TIP3   OH275246   1.029   6.770  13.562 -0.2434 -0.2127  0.3509
17944TIP3    H175247   1.030   6.677  13.584  0.0922 -0.2965 -0.0193
17944TIP3    H275248   0.947   6.782  13.513 -0.8861 -0.0684  1.4291
17945TIP3   OH275249   2.025   2.975   5.428 -0.5734  0.7295 -0.1532
17945TIP3    H175250   2.043   3.054   5.378  1.5153  0.4529  0.0731
17945TIP3    H275251   2.063   2.992   5.514  0.1309 -0.5903 -0.1818
17946TIP3   OH275252   3.578   4.242  14.061  0.6205 -0.5834  0.3962
17946TIP3    H175253   3.495   4.257  14.108  0.2060 -1.7711  0.0659
17946TIP3    H275254   3.576   4.305  13.989 -0.4002 -1.1599 -0.1006
17947TIP3   OH275255   2.244   1.089   5.161  0.3139  0.5071 -0.0913
17947TIP3    H175256   2.156   1.064   5.134  0.3544 -0.6322  0.7650
17947TIP3    H275257   2.299   1.016   5.135  0.8360  0.7549  0.2909
17948TIP3   OH275258   4.449   3.657   0.262 -0.0288  0.0137  0.3083
17948TIP3    H175259   4.469   3.565   0.248  1.0588  0.3126 -0.1938
17948TIP3    H275260   4.434   3.665   0.356  2.2783 -0.2450  0.7489
17949TIP3   OH275261   0.314   3.209   3.491 -0.2649  0.1301  0.5692
17949TIP3    H175262   0.250   3.139   3.478 -0.5744  0.4565  0.3152
17949TIP3    H275263   0.316   3.256   3.408 -0.8495  1.0663  1.0610
17950TIP3   OH275264   1.252   0.186   3.184 -0.0653 -0.2797  0.4379
17950TIP3    H175265   1.283   0.271   3.151  0.6215 -0.8027 -0.2874
17950TIP3    H275266   1.230   0.203   3.276 -1.8817  1.1827 -0.2009
17951TIP3   OH275267   2.716   5.190  10.535  0.0903  0.0983 -0.0440
17951TIP3    H175268   2.633   5.164  10.576 -0.4161 -1.0842 -1.6899
17951TIP3    H275269   2.748   5.109  10.494  1.3048  0.8820 -0.6867
17952TIP3   OH275270   5.598   1.282   1.628 -0.5052 -0.5153  0.1508
17952TIP3    H175271   5.636   1.216   1.686  0.0325  0.0486  0.4429
17952TIP3    H275272   5.543   1.231   1.568 -1.2862 -1.0967  1.3010
17953TIP3   OH275273   6.498   1.579   1.417 -0.7582  0.1288 -0.6537
17953TIP3    H175274   6.418   1.628   1.396 -0.1860  1.1080 -0.5750
17953TIP3    H275275   6.564   1.613   1.356 -0.2667 -0.3129 -0.3735
17954TIP3   OH275276   2.483   1.726  15.940 -0.4323 -0.2897 -0.1854
17954TIP3    H175277   2.395   1.730  15.978 -0.6626  0.9269 -0.7906
17954TIP3    H275278   2.537   1.688  16.010 -1.4027 -0.9190  0.2466
17955TIP3   OH275279   2.638   2.139   4.543  0.5974 -0.1075  0.1729
17955TIP3    H175280   2.718   2.173   4.582  0.9310 -0.9990  0.3059
17955TIP3    H275281   2.619   2.060   4.595 -0.5501  0.2751  0.3636
17956TIP3   OH275282   3.383   3.105   2.386  0.0850 -0.3681  0.0111
17956TIP3    H175283   3.358   3.082   2.475 -2.2084  1.9624  0.0969
17956TIP3    H275284   3.462   3.159   2.396  1.1772 -1.9495  0.3603
17957TIP3   OH275285   3.311   0.370   2.024 -0.4752  0.5628 -0.0173
17957TIP3    H175286   3.334   0.463   2.020 -1.2019  0.7350 -0.5098
17957TIP3    H275287   3.217   0.368   2.003 -0.7830 -0.1527  1.3329
17958TIP3   OH275288   1.555   6.120  13.941 -0.4959 -0.3004 -0.3769
17958TIP3    H175289   1.564   6.065  14.019 -0.5708 -1.0001 -0.8477
17958TIP3    H275290   1.479   6.083  13.894 -1.6798  1.3175  0.1827
17959TIP3   OH275291   6.611   5.793  14.017 -0.1640 -0.0855  0.0841
17959TIP3    H175292   6.608   5.883  13.983 -1.1507 -0.1638 -0.0665
17959TIP3    H275293   6.540   5.748  13.972  0.0664 -0.8417  0.4629
17960TIP3   OH275294   2.693   0.212   2.194  0.1018 -0.0942  0.0202
17960TIP3    H175295   2.767   0.203   2.132  0.6851  0.7252  0.5768
17960TIP3    H275296   2.693   0.305   2.217 -1.1736 -0.0706 -0.0286
17961TIP3   OH275297   2.017   0.011   0.047 -0.0188 -0.3385  0.1029
17961TIP3    H175298   1.977   0.020   0.134 -0.5944 -1.1680 -0.0641
17961TIP3    H275299   2.107   0.041   0.059  0.0437 -0.8617  1.1018
17962TIP3   OH275300   1.566   3.862  15.059  0.9263  0.1406 -0.0395
17962TIP3    H175301   1.514   3.942  15.062  0.8592  0.0893  2.3176
17962TIP3    H275302   1.502   3.791  15.072  0.8784 -0.4322 -2.8018
17963TIP3   OH275303   5.583   2.622   5.730  0.4582 -0.2531 -0.0666
17963TIP3    H175304   5.561   2.540   5.774 -3.5946  0.4630 -0.3810
17963TIP3    H275305   5.571   2.689   5.797 -0.1178  0.3745 -0.7827
17964TIP3   OH275306   5.153   4.256   4.909 -0.0484 -0.1555  0.0698
17964TIP3    H175307   5.116   4.254   4.821 -0.4135 -0.1261  0.2199
17964TIP3    H275308   5.077   4.264   4.967  0.2248  0.3162  0.3656
17965TIP3   OH275309   6.728   5.641   5.415  0.3689  0.5283 -0.5902
17965TIP3    H175310   6.718   5.547   5.403  3.4593  0.1642 -1.0746
17965TIP3    H275311   6.663   5.680   5.357 -0.8276 -1.2834 -0.5377
17966TIP3   OH275312   4.715   2.290  13.893 -0.7079 -0.0694 -0.1536
17966TIP3    H175313   4.775   2.364  13.904  2.7854 -2.7128  0.1997
17966TIP3    H275314   4.708   2.278  13.799  1.2882 -1.0496 -0.2382
17967TIP3   OH275315   3.440   2.136   1.795 -0.0289  0.2855 -0.4422
17967TIP3    H175316   3.422   2.152   1.702 -1.9382  0.1211 -0.1529
17967TIP3    H275317   3.463   2.043   1.799 -0.4762  0.1609 -0.6847
17968TIP3   OH275318   0.514   4.403   3.086 -0.3884 -0.1500 -0.3464
17968TIP3    H175319   0.516   4.308   3.076 -0.0887  0.0069 -1.9844
17968TIP3    H275320   0.496   4.437   2.998 -3.7669  1.2416  0.7366
17969TIP3   OH275321   6.283   6.208   3.827  0.1645 -0.0557  0.5939
17969TIP3    H175322   6.231   6.250   3.759  0.5446 -0.2474  0.1759
17969TIP3    H275323   6.286   6.272   3.899  1.3126  0.9470 -0.2922
17970TIP3   OH275324   3.129   5.539  13.628  0.3252 -0.3976  0.0180
17970TIP3    H175325   3.145   5.563  13.537 -2.7800  0.9431 -0.3258
17970TIP3    H275326   3.175   5.605  13.679  0.0755  0.3314 -0.6831
17971TIP3   OH275327   1.602   6.216   2.696  0.7824 -0.5925  0.1409
17971TIP3    H175328   1.542   6.287   2.672  0.0413 -1.0038  0.7288
17971TIP3    H275329   1.594   6.153   2.625  1.5644 -0.0193 -0.4630
17972TIP3   OH275330   3.667   2.496  16.325 -0.4882  0.5351 -0.6164
17972TIP3    H175331   3.576   2.480  16.349  0.0597 -2.0712  0.0089
17972TIP3    H275332   3.694   2.569  16.381 -1.7037  0.2232  0.4312
17973TIP3   OH275333   4.381   6.686   1.856  0.4606  0.2874 -0.2106
17973TIP3    H175334   4.312   6.703   1.792  0.3575  0.7133  0.0067
17973TIP3    H275335   4.393   6.770   1.901  2.1448  0.6486 -1.2402
17974TIP3   OH275336   5.738   3.663   4.793  0.4034  0.4361  0.6526
17974TIP3    H175337   5.815   3.710   4.759 -1.7270  4.1400  0.4356
17974TIP3    H275338   5.705   3.614   4.718  2.8777 -1.9289  0.9586
17975TIP3   OH275339   2.475   0.752   4.398 -0.0398 -0.2056 -0.0771
17975TIP3    H175340   2.549   0.796   4.357 -1.4857  0.9528 -1.5727
17975TIP3    H275341   2.476   0.664   4.359 -1.1454  0.7439 -2.4552
17976TIP3   OH275342   6.304   0.233   4.267  0.4410  0.6484 -0.0813
17976TIP3    H175343   6.220   0.276   4.250  0.7378  1.1572 -0.2821
17976TIP3    H275344   6.369   0.302   4.252  0.9095  0.1827 -0.1855
17977TIP3   OH275345   2.652   6.757  12.722 -0.0616  0.4380 -0.7522
17977TIP3    H175346   2.617   6.676  12.759  3.0281 -1.3003 -1.2798
17977TIP3    H275347   2.656   6.817  12.796 -0.8411 -0.4437  0.0357
17978TIP3   OH275348   0.052   4.705  15.222 -0.5251  0.1230 -0.1119
17978TIP3    H175349   0.060   4.615  15.253  2.8804 -0.0048 -1.0619
17978TIP3    H275350   0.033   4.697  15.129  3.1632  0.2091 -0.9825
17979TIP3   OH275351   1.110   6.480  13.342 -0.0035 -0.4731 -0.3822
17979TIP3    H175352   1.104   6.483  13.438 -1.6808  1.3735 -0.4971
17979TIP3    H275353   1.034   6.429  13.315  0.2228 -0.6153 -0.7516
17980TIP3   OH275354   2.328   4.682  13.547 -0.0447  0.1152  0.2798
17980TIP3    H175355   2.307   4.758  13.493  0.8564 -0.2880 -0.6696
17980TIP3    H275356   2.295   4.705  13.634 -0.6987  1.1618 -0.2184
17981TIP3   OH275357   2.044   6.617  15.971 -0.0220 -0.0385  0.4295
17981TIP3    H175358   2.081   6.642  16.055  1.6142 -2.0066  0.3691
17981TIP3    H275359   2.113   6.638  15.907 -1.0242  0.9136 -0.3944
17982TIP3   OH275360   3.797   6.783   1.068  0.2861  0.1859  0.0009
17982TIP3    H175361   3.887   6.812   1.057  0.9552 -2.2129 -1.8202
17982TIP3    H275362   3.805   6.695   1.106 -1.1462 -0.7527 -1.7234
17983TIP3   OH275363   2.930   1.074   0.092  0.1298 -0.0035  0.3639
17983TIP3    H175364   3.003   1.095   0.034  1.6058  1.0234  2.4454
17983TIP3    H275365   2.859   1.133   0.065  0.9574  0.8083 -0.0816
17984TIP3   OH275366   6.704   3.690   2.645  0.3589 -0.1118 -0.4485
17984TIP3    H175367   6.734   3.671   2.556  0.9914 -0.4354 -0.1753
17984TIP3    H275368   6.785   3.710   2.693  0.3173 -2.1736  0.5999
17985TIP3   OH275369   0.541   2.309  14.554 -0.0605 -0.1422  0.4722
17985TIP3    H175370   0.615   2.364  14.527 -0.2311 -0.2664 -0.2628
17985TIP3    H275371   0.555   2.294  14.647  1.2564 -0.7927  0.1859
17986TIP3   OH275372   6.746   5.833  16.449 -0.1306 -0.0667 -0.2429
17986TIP3    H175373   6.776   5.917  16.415 -0.1408  0.0861  0.1151
17986TIP3    H275374   6.749   5.843  16.544 -2.7123  0.5027 -0.1519
17987TIP3   OH275375   4.292   3.266   0.622 -0.4240  0.3283  0.1749
17987TIP3    H175376   4.334   3.250   0.707 -0.2425 -0.1727 -0.0066
17987TIP3    H275377   4.208   3.219   0.628  0.1761 -0.8468 -0.4166
17988TIP3   OH275378   0.496   3.268   4.660  0.5090  0.2328  0.2994
17988TIP3    H175379   0.499   3.345   4.716 -2.4777  0.2427  0.6121
17988TIP3    H275380   0.558   3.206   4.700  2.1864  2.0307  0.6273
17989TIP3   OH275381   5.832   4.325  13.705  0.4728  0.0683 -0.4079
17989TIP3    H175382   5.752   4.356  13.747  0.5115  0.2737 -0.4866
17989TIP3    H275383   5.847   4.238  13.743 -1.5001 -1.3610 -2.6436
17990TIP3   OH275384   3.661   5.440  11.002  0.7299 -0.4111  0.1184
17990TIP3    H175385   3.581   5.474  10.962  0.6015  2.0511  2.1493
17990TIP3    H275386   3.728   5.450  10.935 -0.1633  0.0388 -0.7363
17991TIP3   OH275387   1.566   1.459   3.978  0.2137  0.5332  0.2244
17991TIP3    H175388   1.527   1.426   4.059  0.0828 -0.2976 -0.1680
17991TIP3    H275389   1.611   1.540   4.005  2.9464 -1.3262  1.8513
17992TIP3   OH275390   0.552   0.868  13.380  0.3192  1.1577  0.0426
17992TIP3    H175391   0.475   0.888  13.434 -0.5846 -2.0591  0.1628
17992TIP3    H275392   0.618   0.841  13.443 -0.0842 -0.6772 -0.2700
17993TIP3   OH275393   5.986   4.751  14.689 -0.2074  0.5713  0.1750
17993TIP3    H175394   5.907   4.743  14.743 -0.3396  1.5658  0.1414
17993TIP3    H275395   5.954   4.774  14.602 -0.0018 -1.1190 -0.3881
17994TIP3   OH275396   0.179   6.604  11.245  0.5261 -0.4977 -0.0885
17994TIP3    H175397   0.155   6.619  11.337 -0.6604  1.0421 -0.5970
17994TIP3    H275398   0.275   6.607  11.245  0.5453  2.3229  0.7627
17995TIP3   OH275399   2.448   6.404   3.377  0.6488  0.2691 -0.0677
17995TIP3    H175400   2.515   6.391   3.443 -1.0393  1.2762  1.9386
17995TIP3    H275401   2.436   6.499   3.372  0.2226  0.1794 -1.3191
17996TIP3   OH275402   2.669   3.378   4.255 -0.2281  0.4096 -0.0203
17996TIP3    H175403   2.675   3.406   4.163  0.9229 -0.9229 -0.3775
17996TIP3    H275404   2.644   3.286   4.251  0.6251  0.1194  0.9799
17997TIP3   OH275405   2.756   2.389   5.124 -0.3789  0.4927  0.1426
17997TIP3    H175406   2.786   2.401   5.034 -1.0261  0.5486 -0.0723
17997TIP3    H275407   2.814   2.322   5.160  0.3762  1.0219 -0.0723
17998TIP3   OH275408   4.945   0.696   4.101 -0.4565 -0.6172 -0.0676
17998TIP3    H175409   4.924   0.775   4.050 -0.8111 -0.9406 -0.4402
17998TIP3    H275410   5.037   0.679   4.084 -0.1870  0.1374  0.6086
17999TIP3   OH275411   6.583   4.601   2.675 -0.0453  0.2003  0.1403
17999TIP3    H175412   6.527   4.674   2.649  1.0528  0.5361 -1.4162
17999TIP3    H275413   6.593   4.548   2.596  2.7674  0.8071  0.0086
18000TIP3   OH275414   4.888   0.027   3.290 -0.1734 -0.1755  0.1729
18000TIP3    H175415   4.871   0.023   3.384 -1.8202 -1.7272 -0.1387
18000TIP3    H275416   4.806   0.001   3.250  1.3303 -2.4440 -1.6477
18001TIP3   OH275417   2.652   3.469   2.120 -0.3564  0.2258 -0.6529
18001TIP3    H175418   2.584   3.494   2.182 -1.4231 -1.8247 -0.9221
18001TIP3    H275419   2.629   3.516   2.040 -0.2742  1.1085 -0.1703
18002TIP3   OH275420   1.171   0.560  14.040  0.1597 -0.0210 -0.6386
18002TIP3    H175421   1.226   0.493  14.080 -0.8928 -1.6760 -1.8205
18002TIP3    H275422   1.232   0.618  13.995  1.0906 -0.2147  0.3409
18003TIP3   OH275423   0.483   3.849  11.967 -0.1177 -0.0414 -0.1330
18003TIP3    H175424   0.453   3.775  12.020  1.8821  0.1799  1.4151
18003TIP3    H275425   0.510   3.809  11.884  0.0302 -0.9276  0.3323
18004TIP3   OH275426   1.847   2.604   4.634 -0.0791 -0.5808  0.2776
18004TIP3    H175427   1.848   2.515   4.598  1.3154 -1.2145  1.7703
18004TIP3    H275428   1.929   2.642   4.603 -1.3252  0.7659 -1.5825
18005TIP3   OH275429   4.375   6.222  16.407 -0.1536  0.1321 -0.4937
18005TIP3    H175430   4.352   6.255  16.320  1.9116 -0.7987 -1.4473
18005TIP3    H275431   4.462   6.257  16.424 -1.2036  1.8866  2.1214
18006TIP3   OH275432   6.077   3.195   0.704 -0.2526 -0.4962 -0.4035
18006TIP3    H175433   6.109   3.163   0.620 -1.0369  0.2199 -0.9817
18006TIP3    H275434   6.083   3.118   0.762  1.3080 -0.7194 -0.7990
18007TIP3   OH275435   0.647   4.332   5.283 -0.4599  0.5694  0.4247
18007TIP3    H175436   0.631   4.394   5.354 -0.6584  3.8614 -2.2428
18007TIP3    H275437   0.708   4.268   5.320 -0.1528  2.3553  3.3555
18008TIP3   OH275438   3.593   1.819  10.708 -0.2240  0.2996 -0.3651
18008TIP3    H175439   3.637   1.860  10.634 -1.6239  1.3049 -0.6981
18008TIP3    H275440   3.594   1.886  10.777  2.7227 -1.2549  1.2883
18009TIP3   OH275441   2.528   5.614   2.350 -0.3874  0.0420  0.0442
18009TIP3    H175442   2.515   5.581   2.261 -0.6480  0.8617 -0.2296
18009TIP3    H275443   2.492   5.702   2.348 -0.4504  0.0423  0.9856
18010TIP3   OH275444   4.536   3.872  12.723  0.7822 -0.1618 -0.0731
18010TIP3    H175445   4.553   3.923  12.643  0.2155 -1.0304 -0.7669
18010TIP3    H275446   4.563   3.783  12.701  0.2120 -0.5003  0.5655
18011TIP3   OH275447   1.719   2.786  14.436 -0.4437 -0.5953 -0.2193
18011TIP3    H175448   1.628   2.760  14.451  0.0520 -2.6630 -0.5250
18011TIP3    H275449   1.733   2.770  14.342 -0.1073  0.9272 -0.4562
18012TIP3   OH275450   1.216   4.237  12.484  0.2947 -0.3136  0.1448
18012TIP3    H175451   1.154   4.238  12.557 -1.1576  0.3136 -1.0481
18012TIP3    H275452   1.230   4.144  12.466 -2.4949 -0.5676 -1.2819
18013TIP3   OH275453   3.889   3.466  14.859  0.1364  0.2614 -0.3012
18013TIP3    H175454   3.938   3.386  14.878 -0.3319 -0.1127 -0.6404
18013TIP3    H275455   3.956   3.529  14.830  0.5600  0.1358  0.3811
18014TIP3   OH275456   1.887   5.021  12.381 -0.5043 -0.0686  0.2405
18014TIP3    H175457   1.970   5.050  12.419 -0.5826 -0.4131  0.7002
18014TIP3    H275458   1.825   5.026  12.454 -0.6024 -0.9955  0.2399
18015TIP3   OH275459   3.279   2.472   0.716  0.5684  0.9378 -0.1442
18015TIP3    H175460   3.210   2.406   0.720  0.8296  0.7001  0.6250
18015TIP3    H275461   3.316   2.473   0.804  1.5854  1.0121 -0.5580
18016TIP3   OH275462   6.216   1.654  14.822 -0.5096  0.0429 -0.1783
18016TIP3    H175463   6.295   1.693  14.785 -0.3047  0.0199  0.2243
18016TIP3    H275464   6.206   1.571  14.776 -1.2142  0.7665 -1.3801
18017TIP3   OH275465   2.944   4.197  12.231 -0.0650 -0.0052 -0.5193
18017TIP3    H175466   2.874   4.253  12.264 -0.0496 -0.4172  0.2373
18017TIP3    H275467   2.926   4.188  12.137 -0.6174  0.4645 -0.4620
18018TIP3   OH275468   6.804   3.658  15.915 -0.6232  0.0682 -0.1666
18018TIP3    H175469   6.884   3.604  15.912  0.2678  1.2346  1.4865
18018TIP3    H275470   6.749   3.621  15.845  1.4091 -0.6677 -1.4918
18019TIP3   OH275471   4.832   1.414  13.938  0.1549  0.2342 -0.8878
18019TIP3    H175472   4.847   1.386  14.029 -0.6372  0.5366 -0.6558
18019TIP3    H275473   4.873   1.500  13.933 -0.3490  0.4949 -0.6281
18020TIP3   OH275474   4.099   3.239   2.505  0.5486 -0.1817  0.1045
18020TIP3    H175475   4.176   3.198   2.543  0.7900  0.3978  0.2517
18020TIP3    H275476   4.025   3.190   2.541  0.8202 -0.2849  0.5257
18021TIP3   OH275477   6.733   1.265   3.444  0.2281  0.2716  0.0403
18021TIP3    H175478   6.663   1.264   3.378  0.8794  1.6539 -0.7152
18021TIP3    H275479   6.719   1.347   3.491  0.4744 -0.1524  0.8730
18022TIP3   OH275480   4.658   3.448  15.142  0.1056  0.3312  0.1980
18022TIP3    H175481   4.715   3.464  15.217 -1.4141  1.0416  1.2518
18022TIP3    H275482   4.652   3.533  15.097 -0.6300  0.4267  0.4693
18023TIP3   OH275483   5.288   1.538   5.249  0.4999  0.8719  0.1505
18023TIP3    H175484   5.324   1.596   5.183  2.0097 -0.2215 -0.0467
18023TIP3    H275485   5.323   1.452   5.227 -0.9816  0.0280  0.9238
18024TIP3   OH275486   1.211   5.136  13.980 -0.0566 -0.5022 -0.2382
18024TIP3    H175487   1.178   5.110  14.066  1.4725 -0.8725  0.2808
18024TIP3    H275488   1.164   5.080  13.919  0.2156 -1.6192  0.5311
18025TIP3   OH275489   6.247   6.150  11.422  0.2123 -1.1632 -0.1151
18025TIP3    H175490   6.216   6.148  11.331  0.3422  0.1638 -0.2111
18025TIP3    H275491   6.304   6.227  11.426  1.2673 -1.9657  0.7673
18026TIP3   OH275492   1.276   5.380   0.269 -0.2672  0.4604  0.1751
18026TIP3    H175493   1.342   5.386   0.338  0.0297 -1.2196  0.0960
18026TIP3    H275494   1.325   5.351   0.192 -1.0233 -0.5099  0.0400
18027TIP3   OH275495   3.973   0.604   1.937  0.1968 -0.0115  0.2363
18027TIP3    H175496   4.053   0.604   1.884  0.6578  1.4619  0.8860
18027TIP3    H275497   3.998   0.648   2.018 -1.4219  0.9921  0.2313
18028TIP3   OH275498   2.296   4.031   2.202  0.6241  0.0892  0.3157
18028TIP3    H175499   2.300   4.126   2.202 -1.2056  0.2017  0.7073
18028TIP3    H275500   2.366   4.004   2.142  0.0779  1.7377 -1.1519
18029TIP3   OH275501   2.416   5.754   4.828  0.1916 -0.3272 -0.2107
18029TIP3    H175502   2.411   5.822   4.894 -0.8474 -1.3798  0.8508
18029TIP3    H275503   2.487   5.781   4.770  1.6938  0.2390  1.7969
18030TIP3   OH275504   5.141   4.633  15.369  0.1258  0.6840 -0.0317
18030TIP3    H175505   5.106   4.721  15.383 -2.3306 -0.3243  0.5648
18030TIP3    H275506   5.165   4.602  15.456 -0.7282  0.1093  0.0115
18031TIP3   OH275507   0.787   0.665  15.294 -0.2402 -0.2378  0.1184
18031TIP3    H175508   0.733   0.705  15.226  0.8702  0.6318 -0.2964
18031TIP3    H275509   0.851   0.613  15.245 -0.0973 -0.4618  0.5408
18032TIP3   OH275510   5.836   3.997  15.013 -0.5190 -0.2814 -0.5215
18032TIP3    H175511   5.804   3.965  14.928  0.0633 -1.2083 -0.4036
18032TIP3    H275512   5.857   3.918  15.062 -2.9852  0.0990  1.3750
18033TIP3   OH275513   5.856   2.785   0.916  0.1061 -0.2525 -0.0247
18033TIP3    H175514   5.815   2.722   0.857  0.5312 -1.0425  0.5193
18033TIP3    H275515   5.897   2.732   0.984  0.0774  0.6244  0.6964
18034TIP3   OH275516   0.602   1.555  12.435  0.4924 -0.1289 -0.4498
18034TIP3    H175517   0.693   1.569  12.460  0.1400 -0.2420  0.9444
18034TIP3    H275518   0.574   1.478  12.485 -0.2008 -0.4664 -1.3178
18035TIP3   OH275519   3.486   1.905   2.112 -0.6293 -0.4148 -0.5713
18035TIP3    H175520   3.410   1.849   2.127 -0.6043 -0.2590  0.1818
18035TIP3    H275521   3.552   1.846   2.076 -0.9634 -0.6380 -0.8317
18036TIP3   OH275522   3.917   4.471  15.818  0.5262  0.6332  0.5130
18036TIP3    H175523   3.984   4.532  15.849  1.2674 -0.0629  0.3087
18036TIP3    H275524   3.929   4.468  15.723  0.2960  0.4117  0.4894
18037TIP3   OH275525   0.040   6.376   4.440 -0.2061  0.5097  0.0242
18037TIP3    H175526   0.008   6.366   4.530 -1.4416  0.3732 -0.4091
18037TIP3    H275527   0.023   6.468   4.419 -2.4802 -0.0590 -0.9607
18038TIP3   OH275528   0.470   5.287  13.018  0.2166 -0.2760 -0.4235
18038TIP3    H175529   0.376   5.286  13.001  0.2474  0.4766 -0.6453
18038TIP3    H275530   0.505   5.352  12.957  1.0734 -1.5097 -1.2922
18039TIP3   OH275531   4.593   3.467  16.707 -0.1048  0.5598  0.2454
18039TIP3    H175532   4.687   3.479  16.714 -0.2098  0.9046  1.2466
18039TIP3    H275533   4.580   3.373  16.719  0.0723  0.5890  0.6936
18040TIP3   OH275534   3.947   5.816  13.691  0.2057  0.3072  0.0079
18040TIP3    H175535   3.948   5.895  13.746 -0.5994 -0.5624  1.3200
18040TIP3    H275536   3.856   5.789  13.690  0.1036  0.5543 -2.2097
18041TIP3   OH275537   4.651   1.364  12.370  0.3531 -0.0186  0.0717
18041TIP3    H175538   4.640   1.457  12.390 -2.9340 -0.0838 -0.7472
18041TIP3    H275539   4.657   1.361  12.274 -1.2232 -0.6800 -0.0399
18042TIP3   OH275540   1.652   1.085  13.556 -0.1492 -0.7551  0.0832
18042TIP3    H175541   1.569   1.083  13.509 -0.2101 -2.5352  0.1757
18042TIP3    H275542   1.642   1.018  13.624  1.2034 -0.6916  0.3738
18043TIP3   OH275543   2.369   6.457  11.912  0.3475  0.1936  0.5274
18043TIP3    H175544   2.285   6.424  11.880 -1.0847  1.8852  2.3284
18043TIP3    H275545   2.423   6.378  11.921 -0.8652 -0.8934 -1.0796
18044TIP3   OH275546   5.659   4.078   0.038  0.1718 -0.3515  0.0413
18044TIP3    H175547   5.614   4.074   0.123 -0.2536  1.3348 -0.0660
18044TIP3    H275548   5.639   3.995  -0.004 -0.8281 -0.6186  0.9932
18045TIP3   OH275549   4.062   3.935   6.096 -0.0055  0.1194 -0.2914
18045TIP3    H175550   4.021   4.001   6.040 -0.2646  1.2473  1.1812
18045TIP3    H275551   4.144   3.974   6.124  1.2285 -1.3443 -1.6248
18046TIP3   OH275552   0.067   5.588  16.554 -0.3670  0.1513 -0.0658
18046TIP3    H175553  -0.021   5.550  16.550 -0.7773  1.1585 -2.7858
18046TIP3    H275554   0.066   5.642  16.633 -1.7099 -0.9358  0.7003
18047TIP3   OH275555   1.895   0.517  14.280 -0.1411 -0.2170 -0.1071
18047TIP3    H175556   1.890   0.433  14.234  0.8718  0.8581 -2.3144
18047TIP3    H275557   1.875   0.496  14.371 -0.4274 -2.7523 -0.6950
18048TIP3   OH275558   1.599   3.996   0.525  0.3673 -0.0625  0.0406
18048TIP3    H175559   1.592   3.905   0.497 -0.7652  0.3054 -0.9521
18048TIP3    H275560   1.510   4.030   0.519  0.5408  0.7755  1.6500
18049TIP3   OH275561   0.112   0.454  12.029  0.2017  0.3691 -0.1262
18049TIP3    H175562   0.180   0.517  12.051 -1.9246  2.9539 -0.3449
18049TIP3    H275563   0.109   0.454  11.933 -1.0914  1.5233 -0.1153
18050TIP3   OH275564   5.644   3.713  14.404 -0.6323  0.3800  0.1426
18050TIP3    H175565   5.737   3.708  14.383 -0.5043 -4.8858  0.6713
18050TIP3    H275566   5.600   3.680  14.326 -1.8371  0.4861  0.7526
18051TIP3   OH275567   0.188   3.846   4.105 -0.3234  0.3952  0.0362
18051TIP3    H175568   0.273   3.844   4.061 -1.0820 -2.0109 -1.5675
18051TIP3    H275569   0.127   3.878   4.039 -0.8166  1.3817  0.9337
18052TIP3   OH275570   3.040   3.112  11.243  0.2671 -0.1691  0.0547
18052TIP3    H175571   2.969   3.123  11.179  0.4605 -0.1681 -0.1625
18052TIP3    H275572   3.075   3.200  11.254 -1.3621  0.3054  2.0541
18053TIP3   OH275573   5.754   2.216   5.031  0.2436 -0.3405 -0.4596
18053TIP3    H175574   5.760   2.232   4.937  1.7843 -0.3424 -0.3970
18053TIP3    H275575   5.752   2.121   5.040 -1.0984 -0.3292 -0.5248
18054TIP3   OH275576   3.582   6.189  16.861 -0.6825 -0.0526  0.0241
18054TIP3    H175577   3.533   6.247  16.919 -0.9540 -0.5105  0.2553
18054TIP3    H275578   3.614   6.119  16.917 -0.8217 -0.4197 -0.3488
18055TIP3   OH275579   6.724   6.695   1.341 -0.6836 -0.0428 -0.0918
18055TIP3    H175580   6.736   6.626   1.406 -0.0135  1.2522  1.2137
18055TIP3    H275581   6.778   6.668   1.266 -2.1301 -1.9716 -0.5123
18056TIP3   OH275582   1.684   2.388  16.645  0.2517 -0.4202  0.3501
18056TIP3    H175583   1.772   2.409  16.617  0.7318 -1.3751  1.0765
18056TIP3    H275584   1.661   2.456  16.708  0.2420  0.1464 -0.2559
18057TIP3   OH275585   5.398   4.877   5.613  0.1947  0.1893  0.5818
18057TIP3    H175586   5.449   4.937   5.560  0.0704 -0.4936 -0.3371
18057TIP3    H275587   5.385   4.922   5.697  0.9650  0.9985  0.2665
18058TIP3   OH275588   3.842   2.063   0.629  0.0087  0.1902 -0.3873
18058TIP3    H175589   3.879   2.149   0.607  0.9796 -0.4870 -1.5565
18058TIP3    H275590   3.773   2.050   0.563 -0.4478  0.2599  0.0725
18059TIP3   OH275591   3.706   2.032   0.345 -0.5324 -0.2122 -0.2520
18059TIP3    H175592   3.679   1.942   0.328 -0.5404 -0.3521  0.4923
18059TIP3    H275593   3.762   2.055   0.270  1.3005 -1.5966  0.6220
18060TIP3   OH275594   1.566   6.052   2.403 -0.0796  0.1137  0.3024
18060TIP3    H175595   1.497   5.996   2.367 -0.9189  1.9575 -1.1225
18060TIP3    H275596   1.606   6.093   2.326  0.8480  1.0871  1.2707
18061TIP3   OH275597   5.387   5.098  15.050 -0.7031  0.2056  0.3001
18061TIP3    H175598   5.378   5.189  15.023  0.8465  0.6892  1.2737
18061TIP3    H275599   5.459   5.063  14.997 -2.1834 -0.9053 -1.0648
18062TIP3   OH275600   4.474   3.721  13.920 -0.7538  0.0495 -0.0261
18062TIP3    H175601   4.424   3.799  13.896 -0.8468  0.3308  1.0634
18062TIP3    H275602   4.407   3.652  13.929 -0.7696  0.0582 -0.0719
18063TIP3   OH275603   1.891   4.552  16.128  0.6188  0.5454 -0.1571
18063TIP3    H175604   1.887   4.460  16.101 -0.8735  0.2088  1.0755
18063TIP3    H275605   1.930   4.597  16.053  1.0590 -1.0311 -0.9249
18064TIP3   OH275606   3.669   2.212  14.712 -0.5751 -0.6704  0.3759
18064TIP3    H175607   3.673   2.199  14.617  0.6417 -0.9543  0.4558
18064TIP3    H275608   3.583   2.179  14.737 -0.4484 -1.6755 -0.4678
18065TIP3   OH275609   6.375   1.217  15.515  0.3460  1.0266  0.6055
18065TIP3    H175610   6.395   1.261  15.432  3.2690  0.8036  1.1097
18065TIP3    H275611   6.395   1.125  15.499 -1.9429  0.4386  0.7494
18066TIP3   OH275612   5.452   6.024  12.498  0.0508 -0.0162  0.3282
18066TIP3    H175613   5.384   6.058  12.441 -0.3973 -1.0249  0.2387
18066TIP3    H275614   5.509   5.972  12.441  0.7886  0.6567  0.4355
18067TIP3   OH275615   5.281   4.464  15.826 -0.1781  0.0845  0.0286
18067TIP3    H175616   5.292   4.558  15.840 -1.8208  0.4301 -0.7540
18067TIP3    H275617   5.191   4.455  15.795  0.4239 -1.5733 -1.3888
18068TIP3   OH275618   5.657   6.693   1.073 -0.5580 -0.0902 -0.0710
18068TIP3    H175619   5.739   6.707   1.027 -0.8929 -0.3215 -0.7546
18068TIP3    H275620   5.679   6.636   1.147 -0.0858 -0.0313 -0.1684
18069TIP3   OH275621   3.968   5.260  12.777  0.1749  0.4195  0.2512
18069TIP3    H175622   3.933   5.248  12.865 -0.5709  0.4170 -0.0360
18069TIP3    H275623   4.062   5.246  12.786  0.0393 -0.0896  0.9535
18070TIP3   OH275624   3.618   0.419   1.497  0.3039  0.0652 -0.2441
18070TIP3    H175625   3.710   0.426   1.471  0.4488 -0.2505  0.1625
18070TIP3    H275626   3.620   0.426   1.592 -0.0055 -0.7350 -0.1687
18071TIP3   OH275627   3.648   3.880  13.119 -0.6343  0.1440 -0.1746
18071TIP3    H175628   3.560   3.869  13.153 -1.2863  0.4886 -1.6673
18071TIP3    H275629   3.637   3.931  13.039  0.9222  0.2019 -0.3877
18072TIP3   OH275630   4.632   6.614  16.868 -0.5515 -0.0307 -0.1387
18072TIP3    H175631   4.638   6.647  16.779  0.0199  0.8566  0.2086
18072TIP3    H275632   4.549   6.648  16.901 -0.4178  0.2678 -0.1014
18073TIP3   OH275633   4.674   6.736  15.728  0.0855  0.1651 -0.7114
18073TIP3    H175634   4.761   6.763  15.758  0.3087 -1.3566  0.0959
18073TIP3    H275635   4.668   6.644  15.753 -2.2382  0.5616  0.3840
18074TIP3   OH275636   0.297   0.264   4.827 -0.4550 -0.0726 -0.1727
18074TIP3    H175637   0.313   0.357   4.844  1.5550 -0.7290  1.9881
18074TIP3    H275638   0.357   0.242   4.756  2.7275 -0.6798  2.4965
18075TIP3   OH275639   0.505   5.566   0.324 -0.1487  1.0431  0.7665
18075TIP3    H175640   0.508   5.657   0.354  1.3696  1.7950 -1.3957
18075TIP3    H275641   0.594   5.533   0.336 -0.7566 -0.3160  1.8235
18076TIP3   OH275642   6.664   2.706  13.432  0.4046 -0.1826  0.8327
18076TIP3    H175643   6.748   2.661  13.442  0.1480 -0.4777  1.7620
18076TIP3    H275644   6.599   2.644  13.464 -0.1040  0.3030  0.7643
18077TIP3   OH275645   5.434   4.084   1.547 -0.8372  0.4066  0.0361
18077TIP3    H175646   5.364   4.026   1.519 -1.8776  1.4831  0.3363
18077TIP3    H275647   5.396   4.172   1.543  0.5379  1.0371  0.0698
18078TIP3   OH275648   3.576   6.266  12.904 -0.1809 -0.3935 -0.3172
18078TIP3    H175649   3.563   6.224  12.819 -2.7298 -1.3195  0.4455
18078TIP3    H275650   3.554   6.198  12.968  1.9471  0.1856  1.1342
18079TIP3   OH275651   0.073   4.874  15.756 -0.1189  0.8338 -0.0744
18079TIP3    H175652   0.093   4.967  15.768 -2.3796  1.2125  1.2026
18079TIP3    H275653   0.138   4.829  15.810  0.4434  1.6986  0.0039
18080TIP3   OH275654   5.163   0.813   4.771 -0.0270 -0.1929 -0.5082
18080TIP3    H175655   5.257   0.818   4.791 -0.2217 -0.3111  0.5110
18080TIP3    H275656   5.152   0.732   4.722  0.1898 -0.9913  0.7267
18081TIP3   OH275657   3.562   1.687   1.422 -0.5657  0.1371 -0.0644
18081TIP3    H175658   3.605   1.757   1.374  0.5699 -0.6090 -0.1867
18081TIP3    H275659   3.474   1.720   1.441 -0.5257  1.0209 -1.3319
18082TIP3   OH275660   1.360   4.553   3.164  0.0814  0.2198 -0.1369
18082TIP3    H175661   1.278   4.506   3.151  0.5066 -0.6800  0.3086
18082TIP3    H275662   1.350   4.599   3.247 -0.2960  0.8430 -0.5205
18083TIP3   OH275663   0.467   4.934   1.595 -0.0047  0.2195 -0.1741
18083TIP3    H175664   0.378   4.926   1.559 -0.0163 -0.6682  0.0208
18083TIP3    H275665   0.464   4.884   1.677  1.4150 -2.3455 -1.5673
18084TIP3   OH275666   1.918   6.370  13.873 -0.0429  0.4756 -0.1689
18084TIP3    H175667   1.960   6.422  13.942  0.1192 -0.0434  0.1312
18084TIP3    H275668   1.974   6.293  13.864 -0.5475  0.1141 -0.2578
18085TIP3   OH275669   2.537   4.458   6.172 -0.3069  0.1748  0.3470
18085TIP3    H175670   2.471   4.522   6.200 -1.6861 -0.6341 -0.9305
18085TIP3    H275671   2.519   4.381   6.227  0.5300  0.4289  0.9960
18086TIP3   OH275672   1.074   0.934   4.424 -0.4843  0.3747 -0.0490
18086TIP3    H175673   1.056   0.840   4.411  0.7473  0.1237 -0.0253
18086TIP3    H275674   0.987   0.973   4.432 -1.0923 -0.4472 -2.1047
18087TIP3   OH275675   5.270   4.456  17.029 -0.5106  0.3609  0.3574
18087TIP3    H175676   5.357   4.489  17.005 -0.4381 -0.2930 -0.3265
18087TIP3    H275677   5.280   4.360  17.024 -1.6094  0.3046 -0.9183
18088TIP3   OH275678   0.338   3.970   5.122  0.5116 -0.0740 -0.1864
18088TIP3    H175679   0.402   4.035   5.150  1.6182 -1.5924  0.9687
18088TIP3    H275680   0.371   3.939   5.037 -0.3253  1.2156 -1.0197
18089TIP3   OH275681   1.653   3.178  12.775 -0.4736  0.6822 -0.1567
18089TIP3    H175682   1.573   3.140  12.811  0.4568 -0.6249  0.6014
18089TIP3    H275683   1.689   3.230  12.847  0.9008 -1.1850  0.5921
18090TIP3   OH275684   4.844   2.142   5.223 -0.5293  0.6140 -0.3273
18090TIP3    H175685   4.860   2.089   5.301 -0.1524 -1.7871 -1.9360
18090TIP3    H275686   4.756   2.119   5.196  1.0038 -2.6484 -3.3750
18091TIP3   OH275687   6.225   1.862   2.606 -0.1067  0.9829  0.2607
18091TIP3    H175688   6.146   1.912   2.626 -0.1456  1.0705 -0.1086
18091TIP3    H275689   6.286   1.884   2.677 -0.0674  1.6780  0.0215
18092TIP3   OH275690   2.905   3.663  11.978 -0.2689 -0.1268  0.3388
18092TIP3    H175691   2.894   3.683  12.071 -0.7022  0.0064  0.2622
18092TIP3    H275692   2.836   3.599  11.959 -1.3106  1.1447 -0.2864
18093TIP3   OH275693   5.109   1.232  15.645  0.0161 -0.5538  0.1679
18093TIP3    H175694   5.041   1.200  15.586  0.2402 -0.5294 -0.1023
18093TIP3    H275695   5.167   1.157  15.657 -0.4246 -0.7935  0.9453
18094TIP3   OH275696   2.137   5.468   2.751 -0.5557 -0.4866 -0.2152
18094TIP3    H175697   2.059   5.494   2.702 -0.6755 -0.4481 -0.0052
18094TIP3    H275698   2.158   5.381   2.718  0.5152  0.3024 -1.7505
18095TIP3   OH275699   5.492   6.126   2.116  0.1790  0.1325  0.7983
18095TIP3    H175700   5.448   6.043   2.100  0.9418 -0.1899  0.3044
18095TIP3    H275701   5.422   6.187   2.140 -0.6979 -0.0336 -1.2124
18096TIP3   OH275702   3.079   6.000  12.567  0.1650 -0.1318  0.0946
18096TIP3    H175703   3.039   6.031  12.486  1.1244  1.4584  0.1749
18096TIP3    H275704   3.164   5.964  12.541 -0.6196 -2.1168  0.1052
18097TIP3   OH275705   4.388   4.659  11.094  0.7130  0.5226 -0.8247
18097TIP3    H175706   4.466   4.674  11.041  0.9261  0.3325 -0.5693
18097TIP3    H275707   4.386   4.564  11.108  2.0965  0.7557  1.6219
18098TIP3   OH275708   5.976   4.836  11.128  0.1860  0.2586  0.0443
18098TIP3    H175709   5.910   4.893  11.087  1.8955  0.8354 -2.1367
18098TIP3    H275710   6.050   4.894  11.145  1.3027 -0.9433 -0.5507
18099TIP3   OH275711   5.128   4.824   3.276 -0.4810  0.2807 -0.2957
18099TIP3    H175712   5.146   4.732   3.294 -0.1422  0.3076 -0.4845
18099TIP3    H275713   5.127   4.831   3.181  0.2625  0.6098 -0.2896
18100TIP3   OH275714   0.290   5.155   0.846 -0.2143 -0.4312 -0.3813
18100TIP3    H175715   0.226   5.195   0.787  1.2742 -0.3600 -2.0149
18100TIP3    H275716   0.374   5.192   0.820  0.4381  0.4557  2.5419
18101TIP3   OH275717   4.218   3.897   3.647 -0.9782 -0.3960 -0.3818
18101TIP3    H175718   4.251   3.817   3.687 -1.4610 -0.8121 -0.7973
18101TIP3    H275719   4.127   3.904   3.678 -0.5233  0.7657  0.8030
18102TIP3   OH275720   6.097   0.300  16.431 -0.3841 -0.2741  0.0421
18102TIP3    H175721   6.010   0.267  16.454 -0.4472 -1.0983 -1.3162
18102TIP3    H275722   6.107   0.280  16.338  1.7822 -1.3648  0.4515
18103TIP3   OH275723   2.744   2.631  13.620  0.3548 -0.5202  0.6616
18103TIP3    H175724   2.784   2.698  13.674  1.0545 -0.9469  0.6880
18103TIP3    H275725   2.650   2.646  13.629  0.4987  0.4259  0.6907
18104TIP3   OH275726   6.610   4.006  11.865  0.4346  0.2335  0.2730
18104TIP3    H175727   6.652   3.945  11.804 -0.7996  1.5247 -1.9924
18104TIP3    H275728   6.539   3.955  11.905  0.5784 -0.3291 -0.1738
18105TIP3   OH275729   5.569   4.553  14.779  0.9644  0.4589 -0.5935
18105TIP3    H175730   5.587   4.574  14.870  0.1605 -2.9117  0.4553
18105TIP3    H275731   5.476   4.573  14.768  0.5721 -0.9917 -0.0501
18106TIP3   OH275732   3.190   5.695  11.273 -0.6433 -0.2242  0.3129
18106TIP3    H175733   3.206   5.674  11.365  0.0116 -0.6360  0.1147
18106TIP3    H275734   3.175   5.610  11.232  0.2307 -0.1611 -0.1685
18107TIP3   OH275735   2.897   0.214  12.294  0.8504 -0.5421 -0.0815
18107TIP3    H175736   2.867   0.155  12.363  1.0409 -0.9894 -0.3788
18107TIP3    H275737   2.858   0.179  12.214  0.2695  0.2268 -0.1514
18108TIP3   OH275738   4.094   5.981  14.291 -0.5766  0.3219 -0.0781
18108TIP3    H175739   4.170   6.036  14.273 -3.1258  3.6865 -1.8584
18108TIP3    H275740   4.099   5.964  14.385  2.5633 -0.1069 -0.2057
18109TIP3   OH275741   2.972   1.298  11.485  0.0369 -0.3240  0.1026
18109TIP3    H175742   3.050   1.301  11.429 -0.7827 -0.9197 -1.1065
18109TIP3    H275743   3.007   1.295  11.574  1.3818  0.3358 -0.3689
18110TIP3   OH275744   3.738   6.242  15.755  1.1572 -0.2606 -0.0204
18110TIP3    H175745   3.803   6.302  15.793 -0.4835  0.8491  1.1957
18110TIP3    H275746   3.733   6.170  15.818 -1.9495  1.8309  2.4738
18111TIP3   OH275747   1.284   5.170  15.650 -0.1788  0.2841  0.4614
18111TIP3    H175748   1.360   5.115  15.633  0.0395  0.2431  1.4913
18111TIP3    H275749   1.320   5.259  15.659 -0.4109  0.4590 -0.2438
18112TIP3   OH275750   2.298   4.650   2.755 -0.7894  0.2449 -0.1506
18112TIP3    H175751   2.327   4.694   2.675 -1.8046  0.7409 -0.2524
18112TIP3    H275752   2.265   4.565   2.725  2.3739 -1.2747  0.1717
18113TIP3   OH275753   3.548   4.702   5.346  0.1471  0.0184  0.7441
18113TIP3    H175754   3.578   4.624   5.298 -1.1438 -1.2069  1.8513
18113TIP3    H275755   3.453   4.695   5.346  0.0151  1.5807  0.9283
18114TIP3   OH275756   5.134   1.571  11.905 -0.4384 -0.5369  0.5381
18114TIP3    H175757   5.058   1.535  11.952 -0.7459 -0.3381  0.1996
18114TIP3    H275758   5.176   1.629  11.968 -1.1004  0.0714  0.4341
18115TIP3   OH275759   6.324   0.784   4.698  0.1253  0.5535  0.3336
18115TIP3    H175760   6.374   0.703   4.710 -0.0275  0.3453 -0.3675
18115TIP3    H275761   6.391   0.853   4.694  0.3845  0.2641 -0.7027
18116TIP3   OH275762   1.461   6.270  15.297 -0.1603  0.0671  0.1963
18116TIP3    H175763   1.486   6.183  15.330 -0.5489 -0.2911 -0.4456
18116TIP3    H275764   1.513   6.281  15.218 -1.4969 -0.4042 -0.7889
18117TIP3   OH275765   4.618   6.035   4.253  0.0004 -0.0415  0.3577
18117TIP3    H175766   4.643   5.974   4.322 -0.4536 -1.7318 -0.9114
18117TIP3    H275767   4.522   6.030   4.250  0.0127 -0.0002 -0.3903
18118TIP3   OH275768   5.065   3.280  13.201 -0.5789 -0.3861  0.1882
18118TIP3    H175769   5.117   3.358  13.183 -0.0803  0.0489  3.0539
18118TIP3    H275770   4.979   3.300  13.163 -0.5487  1.7042  1.1005
18119TIP3   OH275771   0.784   3.981   3.031  0.0431  0.6908  0.5328
18119TIP3    H175772   0.743   3.934   3.103  0.1112  0.2116  0.2631
18119TIP3    H275773   0.878   3.979   3.051  0.1841 -0.4880 -0.1631
18120TIP3   OH275774   3.352   1.693   5.820  0.2748 -0.3952 -0.1204
18120TIP3    H175775   3.275   1.731   5.778 -0.9498 -1.0683  1.4122
18120TIP3    H275776   3.421   1.699   5.754 -1.3877 -0.8812 -1.9972
18121TIP3   OH275777   4.815   2.657  15.045  0.5576  0.0164 -0.2412
18121TIP3    H175778   4.812   2.586  14.981  1.3473 -0.7788  0.5848
18121TIP3    H275779   4.903   2.694  15.035 -0.2767  1.8028 -1.6015
18122TIP3   OH275780   0.825   5.693  16.407 -0.5602  0.0888 -0.4232
18122TIP3    H175781   0.827   5.683  16.311  1.0340 -0.2861 -0.3854
18122TIP3    H275782   0.751   5.639  16.435  0.9293 -2.5536 -1.1910
18123TIP3   OH275783   6.303   6.060  14.365  0.6269  0.2463 -0.3203
18123TIP3    H175784   6.341   6.090  14.283  0.7255  0.9163 -0.0285
18123TIP3    H275785   6.374   6.067  14.429  0.4483  0.0600 -0.0987
18124TIP3   OH275786   0.479   5.100   1.054  0.1819 -0.0269  0.8034
18124TIP3    H175787   0.559   5.125   1.008  0.4862  1.2513  1.9546
18124TIP3    H275788   0.416   5.082   0.985  0.6894  1.6279 -0.1405
18125TIP3   OH275789   6.635   5.568  14.458  0.2948  0.3381  0.5389
18125TIP3    H175790   6.582   5.647  14.474 -0.5720 -0.1918  0.3497
18125TIP3    H275791   6.671   5.580  14.371 -0.4767  0.1815  0.1897
18126TIP3   OH275792   0.691   4.496  11.338  0.2228  0.4992 -0.2179
18126TIP3    H175793   0.680   4.488  11.243  1.2978  1.3295 -0.4327
18126TIP3    H275794   0.784   4.479  11.353  0.4362  2.0494  0.4657
18127TIP3   OH275795   2.475   3.092   0.538  0.3140  0.3873 -0.0194
18127TIP3    H175796   2.514   3.040   0.608  0.9954  0.6556 -0.1981
18127TIP3    H275797   2.449   3.027   0.472  0.8787  0.2421 -0.1053
18128TIP3   OH275798   0.397   5.623   0.643 -0.9598  0.1777  1.0556
18128TIP3    H175799   0.368   5.707   0.677 -2.7790  0.1566 -0.3510
18128TIP3    H275800   0.475   5.643   0.591 -2.9626  1.5246 -1.6487
18129TIP3   OH275801   1.767   4.057   5.101 -0.0288 -0.0844  0.1198
18129TIP3    H175802   1.682   4.058   5.144 -0.7777  0.2650 -1.3021
18129TIP3    H275803   1.751   4.013   5.017  1.1654  0.0689 -0.2071
18130TIP3   OH275804   2.859   5.533   5.318 -0.0664  0.2833 -0.8051
18130TIP3    H175805   2.871   5.524   5.413  2.0857  4.3563 -0.5034
18130TIP3    H275806   2.765   5.518   5.304 -0.7684  1.2019  2.2433
18131TIP3   OH275807   0.894   1.521   0.804  0.7774 -0.3555  0.0433
18131TIP3    H175808   0.985   1.534   0.832  0.7554 -2.4553  1.3489
18131TIP3    H275809   0.851   1.486   0.882 -0.7920 -0.7960 -0.9973
18132TIP3   OH275810   1.619   1.315  16.355  0.1352 -0.1403  1.4179
18132TIP3    H175811   1.592   1.236  16.307  0.6538  1.1166 -1.1207
18132TIP3    H275812   1.550   1.328  16.420 -0.5493 -2.0417  1.1382
18133TIP3   OH275813   6.160   5.770   1.276 -0.0868 -0.1230  0.2338
18133TIP3    H175814   6.135   5.680   1.255  0.3807 -0.0737 -0.5856
18133TIP3    H275815   6.200   5.764   1.363  1.7010 -1.0560 -0.5858
18134TIP3   OH275816   1.448   3.691   4.109 -0.1725 -0.4820  0.3215
18134TIP3    H175817   1.432   3.702   4.015  0.4034  1.7870  0.4291
18134TIP3    H275818   1.528   3.638   4.113  0.3357  0.1797 -0.5235
18135TIP3   OH275819   2.572   6.279  12.000  0.1819  0.3465  0.0093
18135TIP3    H175820   2.580   6.322  12.085 -1.4435  0.5946  0.0638
18135TIP3    H275821   2.533   6.194  12.020 -1.7334  1.0255 -0.5830
18136TIP3   OH275822   2.522   3.557   6.725 -0.6130 -0.3652  0.0633
18136TIP3    H175823   2.449   3.498   6.703 -2.1862  1.8378 -0.9417
18136TIP3    H275824   2.591   3.533   6.664 -0.4453 -2.4186  0.9512
18137TIP3   OH275825   5.810   3.273   5.688 -0.1234  0.0607  0.4112
18137TIP3    H175826   5.815   3.220   5.767  1.2071 -0.6476 -0.1041
18137TIP3    H275827   5.889   3.251   5.639 -0.8666  0.5247 -1.0893
18138TIP3   OH275828   0.505   4.011  12.463  0.3627  0.0462 -0.3483
18138TIP3    H175829   0.542   4.006  12.374  2.0264  2.0321  0.1436
18138TIP3    H275830   0.534   4.096  12.496 -2.6491  0.6623  1.0803
18139TIP3   OH275831   2.462   2.480  11.290  0.2056  0.0152 -0.0966
18139TIP3    H175832   2.525   2.523  11.348 -0.0363 -0.5329  0.5890
18139TIP3    H275833   2.429   2.550  11.233  0.7397  0.4845  0.1675
18140TIP3   OH275834   5.951   5.165   3.590  0.1467  0.0359 -0.2464
18140TIP3    H175835   5.894   5.116   3.532 -0.8097 -1.3594  1.7541
18140TIP3    H275836   5.943   5.256   3.561 -2.2031 -0.2742 -0.7732
18141TIP3   OH275837   3.858   0.758  11.915  0.1529  0.3254 -0.4937
18141TIP3    H175838   3.841   0.691  11.848 -0.2283 -0.2352  0.1518
18141TIP3    H275839   3.772   0.775  11.954  0.7639 -1.3979  1.7508
18142TIP3   OH275840   3.928   0.926   5.775  0.0768  0.6796  0.1120
18142TIP3    H175841   3.970   0.955   5.693 -0.2059  1.5528  0.2663
18142TIP3    H275842   3.987   0.957   5.844  0.7700 -0.8079  0.2409
18143TIP3   OH275843   5.948   0.269   4.603  0.4392  0.5477 -0.4465
18143TIP3    H175844   6.008   0.195   4.608 -1.5801 -1.0813  0.7388
18143TIP3    H275845   5.930   0.279   4.509  0.5247 -0.6234 -0.5964
18144TIP3   OH275846   0.455   6.123   3.915  0.2932 -0.0070 -0.2126
18144TIP3    H175847   0.542   6.093   3.939  0.7567  1.5074  0.1126
18144TIP3    H275848   0.434   6.190   3.979 -0.6284  0.4607 -0.9749
18145TIP3   OH275849   2.237   0.230  12.611 -0.1375 -0.1291  0.5858
18145TIP3    H175850   2.232   0.160  12.546 -1.0736 -0.1404  0.6646
18145TIP3    H275851   2.254   0.184  12.694 -0.1609 -0.2135  0.5443
18146TIP3   OH275852   6.497   2.937  13.497  0.4354 -0.0057 -0.0242
18146TIP3    H175853   6.505   2.923  13.592 -0.7481 -2.2152 -0.1827
18146TIP3    H275854   6.559   2.874  13.458 -1.7343 -1.8557 -0.7198
18147TIP3   OH275855   0.877   1.556  11.830 -0.3361  0.0846 -0.2841
18147TIP3    H175856   0.833   1.471  11.829  0.5051 -0.3706  0.2717
18147TIP3    H275857   0.908   1.566  11.921 -1.1421  1.3619 -0.1271
18148TIP3   OH275858   1.620   4.001   0.182 -0.2966 -0.0074  0.0042
18148TIP3    H175859   1.541   4.042   0.216  0.3084  0.7251  0.5459
18148TIP3    H275860   1.653   4.061   0.116 -0.6591 -0.7282 -0.8497
18149TIP3   OH275861   3.917   0.918  10.394 -0.1091 -0.5458 -0.1442
18149TIP3    H175862   3.998   0.916  10.343  0.2602 -0.8819  0.4401
18149TIP3    H275863   3.891   1.010  10.395  0.0709 -0.4871 -0.6399
18150TIP3   OH275864   0.972   0.000  16.981 -0.2907 -0.4420  0.2918
18150TIP3    H175865   1.065  -0.011  16.964 -0.4190 -0.3676 -0.4833
18150TIP3    H275866   0.942  -0.087  17.008 -0.3497 -0.9114 -1.2098
18151TIP3   OH275867   3.302   5.655  14.668 -0.1073 -0.3102  0.3100
18151TIP3    H175868   3.334   5.571  14.636  0.8143  0.7487 -1.7114
18151TIP3    H275869   3.234   5.631  14.732 -0.3351 -2.5830 -0.6639
18152TIP3   OH275870   0.113   0.163   4.267  0.0853  0.4981  0.4013
18152TIP3    H175871   0.103   0.215   4.347 -3.2004 -0.7479  0.9640
18152TIP3    H275872   0.075   0.218   4.198  1.2950  0.8523 -0.0053
18153TIP3   OH275873   4.686   3.526  15.884  0.2415  0.1212  0.3486
18153TIP3    H175874   4.681   3.473  15.805  0.6903  0.2450  0.2351
18153TIP3    H275875   4.752   3.484  15.938  0.3968  0.4034  0.3808
18154TIP3   OH275876   0.368   5.807   3.463 -0.3115  0.5056 -0.1929
18154TIP3    H175877   0.358   5.900   3.443  2.0312  0.7992 -0.3652
18154TIP3    H275878   0.315   5.792   3.541 -2.8458  1.3213 -1.6576
18155TIP3   OH275879   1.468   5.950  10.453  0.1911  0.0961 -0.1933
18155TIP3    H175880   1.381   5.914  10.436  0.3767 -0.2541 -0.4161
18155TIP3    H275881   1.528   5.880  10.428  0.5514  0.5214 -0.5444
18156TIP3   OH275882   5.327   5.670  12.236 -0.2926 -0.1009 -0.0181
18156TIP3    H175883   5.270   5.697  12.164 -0.1478 -1.0904 -0.5176
18156TIP3    H275884   5.415   5.698  12.209 -0.3105 -0.0018  0.0233
18157TIP3   OH275885   5.808   2.418  12.560 -0.0637  0.6850  0.1680
18157TIP3    H175886   5.764   2.440  12.642 -2.2628  0.5066 -0.8811
18157TIP3    H275887   5.776   2.330  12.539  0.7240  0.5989 -0.7151
18158TIP3   OH275888   5.575   5.047  16.555 -0.4108 -0.4346 -0.1552
18158TIP3    H175889   5.561   4.974  16.494 -3.1072 -1.6645  1.7385
18158TIP3    H275890   5.503   5.107  16.537 -0.4998 -0.1962  0.9495
18159TIP3   OH275891   0.121   4.246  10.995  0.0288 -0.0970  0.1219
18159TIP3    H175892   0.042   4.237  11.047 -1.1155 -0.7786 -1.6669
18159TIP3    H275893   0.114   4.334  10.956  0.3175 -0.0387  0.1954
18160TIP3   OH275894   5.843   3.700  14.624 -0.1006 -0.2654  0.2799
18160TIP3    H175895   5.754   3.734  14.614  0.2576  1.1909  1.7244
18160TIP3    H275896   5.899   3.765  14.583  0.3471 -0.9508 -0.2116
18161TIP3   OH275897   6.685   3.708  15.160 -0.3928 -0.1228 -0.2228
18161TIP3    H175898   6.594   3.708  15.129 -0.4838  1.1581 -0.0331
18161TIP3    H275899   6.682   3.759  15.241  0.8485  2.1777 -1.4966
18162TIP3   OH275900   0.684   3.697  16.866  0.4743 -0.8437 -0.0143
18162TIP3    H175901   0.623   3.628  16.841  0.4505 -1.5629  1.8341
18162TIP3    H275902   0.694   3.750  16.787 -0.1989 -2.4375 -1.2383
18163TIP3   OH275903   2.984   5.042  14.108 -0.1114  0.2417 -0.2425
18163TIP3    H175904   2.990   5.020  14.200  1.0398  0.1952 -0.3116
18163TIP3    H275905   3.053   5.107  14.094 -1.1309  1.2515 -0.7904
18164TIP3   OH275906   4.366   4.474  12.083  0.0214 -0.2937  0.5062
18164TIP3    H175907   4.381   4.460  12.176  1.2374 -1.0997  0.2193
18164TIP3    H275908   4.450   4.505  12.049  0.0582 -1.4655 -0.5635
18165TIP3   OH275909   3.057   2.324  11.205  0.1727  0.0889 -0.4488
18165TIP3    H175910   3.027   2.296  11.118  0.4186  1.8071 -1.1295
18165TIP3    H275911   3.064   2.243  11.255 -2.4542 -0.7234 -1.2326
18166TIP3   OH275912   1.965   2.016  15.965 -0.4068  0.1690 -0.5929
18166TIP3    H175913   2.000   1.978  16.045  0.1426 -0.2759 -1.0397
18166TIP3    H275914   1.942   2.106  15.990  0.6346  0.3329 -0.1696
18167TIP3   OH275915   0.295   6.756   4.869  0.4197 -0.1468  0.3147
18167TIP3    H175916   0.266   6.766   4.778 -1.0524 -0.1214  0.7708
18167TIP3    H275917   0.216   6.731   4.917  0.8519  1.3271  1.8693
18168TIP3   OH275918   4.943   5.234   3.812  0.0354  0.4110 -0.0476
18168TIP3    H175919   5.005   5.303   3.835 -0.7808  0.6944  1.4015
18168TIP3    H275920   4.908   5.261   3.727  0.1518  1.4879  0.2307
18169TIP3   OH275921   5.357   4.980   3.172 -0.2222  0.6049 -0.5622
18169TIP3    H175922   5.416   4.915   3.135  0.3839  1.4817 -1.1578
18169TIP3    H275923   5.309   4.932   3.240 -1.0473 -0.9414 -2.1407
18170TIP3   OH275924   6.699   3.120  10.064  0.9193  0.9650  0.0457
18170TIP3    H175925   6.754   3.042  10.062 -1.3196 -0.7006 -0.3838
18170TIP3    H275926   6.692   3.142  10.157  0.4643 -0.2130  0.3080
18171TIP3   OH275927   4.493   0.117  16.823  0.2572 -0.4568 -0.0290
18171TIP3    H175928   4.420   0.075  16.868  1.4439 -0.6615  1.8287
18171TIP3    H275929   4.481   0.094  16.731 -1.9618 -0.5159  0.2195
18172TIP3   OH275930   4.679   5.097   3.921  0.2573  0.0107 -0.2802
18172TIP3    H175931   4.658   5.166   3.858 -0.1632  0.6023  0.4896
18172TIP3    H275932   4.770   5.074   3.902  0.5584  1.1151 -0.2427
18173TIP3   OH275933   1.757   5.705   3.292  0.3771 -0.0188 -0.2276
18173TIP3    H175934   1.835   5.739   3.247  0.4132  0.4264  0.1619
18173TIP3    H275935   1.731   5.776   3.351 -1.3139  0.5340 -1.5488
18174TIP3   OH275936   4.318   1.944  15.996  0.0549  0.4825 -0.0016
18174TIP3    H175937   4.374   1.932  15.919 -0.1896 -0.0053 -0.1063
18174TIP3    H275938   4.325   2.037  16.016  0.0073  0.6420 -0.7003
18175TIP3   OH275939   1.113   2.114  15.758 -0.0136  0.4265  0.0009
18175TIP3    H175940   1.072   2.190  15.798  0.9742  1.3233 -0.6569
18175TIP3    H275941   1.092   2.120  15.665 -1.2361 -0.9626  0.1500
18176TIP3   OH275942   4.332   4.343  12.932 -0.2799  0.2877 -0.2505
18176TIP3    H175943   4.353   4.286  12.859  0.4009  0.7926 -0.4607
18176TIP3    H275944   4.379   4.306  13.006 -0.9944 -0.2417 -0.0551
18177TIP3   OH275945   1.895   0.017   0.308  0.2451  0.0264  0.0825
18177TIP3    H175946   1.891  -0.047   0.380  2.2545 -1.8089 -1.3158
18177TIP3    H275947   1.808   0.015   0.269 -0.4213 -0.0587  1.5183
18178TIP3   OH275948   3.370   6.722   1.073 -0.3140 -0.0282 -0.0662
18178TIP3    H175949   3.438   6.682   1.019  0.7123 -1.1802  1.9692
18178TIP3    H275950   3.293   6.725   1.017  1.0127  0.0187 -1.9838
18179TIP3   OH275951   4.005   6.004   0.224  0.1174 -0.0425 -0.5476
18179TIP3    H175952   3.947   5.939   0.265  0.3347 -0.6322 -1.1639
18179TIP3    H275953   4.048   6.047   0.297 -2.5340  1.7936  0.0630
18180TIP3   OH275954   2.108   4.656   2.134 -0.4370  0.1510 -0.0321
18180TIP3    H175955   2.068   4.652   2.047  0.2365  1.1757 -0.3970
18180TIP3    H275956   2.201   4.676   2.117 -0.6437  2.1899  0.9774
18181TIP3   OH275957   1.371   1.731   2.800  0.0373 -0.4188  0.3208
18181TIP3    H175958   1.420   1.713   2.720 -2.5963  1.1205 -1.8020
18181TIP3    H275959   1.420   1.801   2.843 -0.6396  1.8057 -2.2546
18182TIP3   OH275960   1.036   5.146  11.142  0.5210 -0.4747  0.4704
18182TIP3    H175961   1.055   5.053  11.143  1.0497 -0.3775 -0.0782
18182TIP3    H275962   1.069   5.177  11.057 -0.7241 -0.0159  0.1217
18183TIP3   OH275963   5.027   3.532  15.521  0.4135  0.3582  0.1518
18183TIP3    H175964   5.108   3.521  15.571  1.5821  2.9747 -0.9766
18183TIP3    H275965   4.969   3.580  15.581  0.5327  0.4303  0.2109
18184TIP3   OH275966   1.024   1.176  12.904 -0.0156 -0.1163  0.2652
18184TIP3    H175967   0.964   1.103  12.913  0.3988 -0.4419  0.3893
18184TIP3    H275968   0.999   1.237  12.974 -1.1226  0.4136 -0.5572
18185TIP3   OH275969   5.670   5.032  14.938 -0.6371 -0.0454  0.3046
18185TIP3    H175970   5.687   5.104  14.878 -1.2864  0.2558  0.4682
18185TIP3    H275971   5.729   5.046  15.011 -0.8810  0.4216  0.4137
18186TIP3   OH275972   3.649   4.177   1.298 -0.4482  0.4032  0.0351
18186TIP3    H175973   3.579   4.184   1.364  1.5577  0.4719  2.2923
18186TIP3    H275974   3.715   4.240   1.327  0.4251  0.6137 -2.2476
18187TIP3   OH275975   0.702   2.959  11.133 -0.2326  0.3070 -0.3830
18187TIP3    H175976   0.614   2.938  11.103 -0.3656 -0.6916  0.6488
18187TIP3    H275977   0.750   2.876  11.124  0.1522  0.4191  0.5814
18188TIP3   OH275978   2.978   0.322   2.138 -0.4784 -0.0111 -0.0404
18188TIP3    H175979   2.953   0.410   2.107  2.0342  0.8916  0.2710
18188TIP3    H275980   3.027   0.284   2.065 -1.2140 -1.0215 -0.0198
18189TIP3   OH275981   4.129   1.541   4.800  0.1182 -0.2093 -0.7081
18189TIP3    H175982   4.109   1.451   4.829  0.4833 -0.2370 -0.5326
18189TIP3    H275983   4.217   1.535   4.763 -0.0964 -0.0405 -1.2423
18190TIP3   OH275984   3.502   0.014   4.957  0.6329  0.3602 -0.6580
18190TIP3    H175985   3.586   0.010   4.910  0.7632 -1.2935 -0.3334
18190TIP3    H275986   3.444  -0.044   4.907  0.1135  0.3308 -0.0305
18191TIP3   OH275987   4.199   6.434   6.114  0.4357 -0.3196 -0.6360
18191TIP3    H175988   4.281   6.483   6.112 -0.0721  0.7163  1.1038
18191TIP3    H275989   4.132   6.500   6.135 -0.6567 -1.3479 -0.7570
18192TIP3   OH275990   5.850   4.931   2.871  0.3789  0.0617  0.0147
18192TIP3    H175991   5.812   4.946   2.784  0.0430  2.5094  0.5071
18192TIP3    H275992   5.939   4.964   2.865  0.4885 -0.1363  0.4843
18193TIP3   OH275993   1.952   5.293   6.220  0.1058 -0.4736  0.2943
18193TIP3    H175994   1.979   5.268   6.309  1.2923  0.5218  0.2351
18193TIP3    H275995   1.857   5.277   6.219  0.1923 -1.2249  1.4795
18194TIP3   OH275996   1.464   2.832  16.064 -0.9887 -0.3188 -0.0264
18194TIP3    H175997   1.484   2.853  16.155  0.2140 -0.5721 -0.2222
18194TIP3    H275998   1.547   2.840  16.018 -1.4949 -0.6277 -1.0256
18195TIP3   OH275999   3.008   5.311   2.501 -0.0460  0.4459 -0.5409
18195TIP3    H176000   3.100   5.289   2.518 -0.4405 -2.0020 -1.2271
18195TIP3    H276001   2.980   5.250   2.433 -2.0377  1.5408 -0.7925
18196TIP3   OH276002   5.846   2.509  13.340 -0.1738  0.3762  0.4155
18196TIP3    H176003   5.805   2.549  13.417  1.2593 -1.0001  1.9880
18196TIP3    H276004   5.775   2.461  13.298 -0.7711  0.2151  1.5582
18197TIP3   OH276005   2.269   4.062   0.700  0.3918 -0.2940  0.0264
18197TIP3    H176006   2.330   4.104   0.639  1.6538  1.3751  2.2749
18197TIP3    H276007   2.281   4.109   0.782 -2.1045 -1.6411  1.2851
18198TIP3   OH276008   0.792   5.644   4.320 -0.2153  0.1980  0.2865
18198TIP3    H176009   0.807   5.737   4.333  0.4733 -0.0004  0.9405
18198TIP3    H276010   0.864   5.615   4.264 -0.8929  0.2130 -0.6282
18199TIP3   OH276011   5.172   1.268  13.121 -0.0333 -0.2681  0.4262
18199TIP3    H176012   5.203   1.180  13.145 -0.9015 -1.0162 -1.0398
18199TIP3    H276013   5.221   1.290  13.042 -0.5149  0.1614  0.2433
18200TIP3   OH276014   6.305   6.737  10.532 -0.3136 -0.8239 -0.8030
18200TIP3    H176015   6.256   6.693  10.601  0.0559 -1.2336 -0.7962
18200TIP3    H276016   6.278   6.829  10.538  0.0904 -0.7610  0.2197
18201TIP3   OH276017   5.167   6.397  13.537  0.2629 -0.7238  0.4474
18201TIP3    H176018   5.127   6.482  13.556  0.4116 -0.8471  1.3488
18201TIP3    H276019   5.239   6.389  13.600 -0.7469 -2.2109  1.4785
18202TIP3   OH276020   1.796   5.730  15.560 -0.1382  0.3463 -0.7892
18202TIP3    H176021   1.782   5.790  15.486 -1.4180 -0.4534 -1.2223
18202TIP3    H276022   1.734   5.659  15.545  0.3064 -0.3437  0.5261
18203TIP3   OH276023   4.603   5.291   0.947 -0.0431  0.4473 -0.4398
18203TIP3    H176024   4.600   5.196   0.950 -0.6760  0.4353 -1.1823
18203TIP3    H276025   4.639   5.317   1.032 -3.5386 -0.3078  1.4956
18204TIP3   OH276026   1.226   6.528   5.443 -0.0452 -0.3863 -0.4763
18204TIP3    H176027   1.240   6.479   5.361 -0.1858 -0.2432 -0.5867
18204TIP3    H276028   1.148   6.580   5.426  0.3849  0.2535 -0.5339
18205TIP3   OH276029   5.418   4.010   3.889 -0.2889  0.2452 -0.1900
18205TIP3    H176030   5.366   4.043   3.815 -3.8556 -1.3142  1.4201
18205TIP3    H276031   5.487   4.076   3.900 -2.5741  3.1607 -1.7913
18206TIP3   OH276032   3.398   0.985  15.192 -0.1560  0.5868  0.1068
18206TIP3    H176033   3.457   0.929  15.142 -0.1341  0.6197  0.0959
18206TIP3    H276034   3.381   0.936  15.273 -0.3997  0.4167 -0.0473
18207TIP3   OH276035   6.422   3.586   1.850 -0.0486 -0.2397 -0.4557
18207TIP3    H176036   6.384   3.533   1.920  0.4699 -0.4419 -0.3256
18207TIP3    H276037   6.451   3.522   1.785 -2.8800 -0.0030 -2.1150
18208TIP3   OH276038   3.441   5.762  11.160 -0.0238  0.0017 -0.0980
18208TIP3    H176039   3.425   5.855  11.177 -0.1820  0.2259 -1.4207
18208TIP3    H276040   3.354   5.723  11.154  0.0444 -0.3480  0.9876
18209TIP3   OH276041   4.268   5.225   3.414  0.0049  1.1693  0.5160
18209TIP3    H176042   4.174   5.246   3.411  0.1565  2.2850 -4.0357
18209TIP3    H276043   4.311   5.301   3.375  2.7948  0.3649  1.7591
18210TIP3   OH276044   6.317   4.215  12.255  0.0056 -0.0405 -0.1087
18210TIP3    H176045   6.347   4.289  12.203  6.0351 -0.9966  1.2688
18210TIP3    H276046   6.283   4.255  12.336 -0.8086  1.2087 -1.0291
18211TIP3   OH276047   4.192   0.720  14.564  0.5174 -0.0181 -0.0616
18211TIP3    H176048   4.224   0.741  14.477  0.9682 -1.1788 -0.1995
18211TIP3    H276049   4.244   0.644  14.591  0.1052  0.0707  1.0467
18212TIP3   OH276050   2.232   3.660  16.139 -0.0903 -0.1870 -0.0381
18212TIP3    H176051   2.194   3.596  16.199  0.6687 -2.4803 -1.8585
18212TIP3    H276052   2.297   3.707  16.192 -0.1926 -1.3748  1.2120
18213TIP3   OH276053   1.382   6.183   0.088 -0.0723  0.6628  0.0760
18213TIP3    H176054   1.336   6.245   0.145 -0.9551 -0.2176  0.3353
18213TIP3    H276055   1.346   6.200   0.001  0.1320  0.9151  0.0361
18214TIP3   OH276056   2.078   5.686   2.916 -0.2671  0.0979  0.7289
18214TIP3    H176057   2.107   5.610   2.866 -0.4820 -0.3173  1.2151
18214TIP3    H276058   2.015   5.730   2.859 -0.0146  0.0049  0.3778
18215TIP3   OH276059   6.373   0.158  15.499  0.4625 -0.1580  0.2318
18215TIP3    H176060   6.349   0.099  15.427 -0.2646 -0.2735  0.5567
18215TIP3    H276061   6.311   0.137  15.569  0.0837  1.1126  0.2987
18216TIP3   OH276062   5.128   2.067   5.405 -0.2237 -0.5455  0.1591
18216TIP3    H176063   5.211   2.111   5.423 -0.0984  0.5980 -2.7452
18216TIP3    H276064   5.065   2.139   5.395 -1.0739 -1.2833  0.0838
18217TIP3   OH276065   1.591   5.439  16.858  0.1311  0.5538 -0.1913
18217TIP3    H176066   1.538   5.505  16.811 -0.0540  0.1273 -0.5950
18217TIP3    H276067   1.563   5.356  16.820  2.4649  0.4190 -1.8217
18218TIP3   OH276068   5.818   6.723   3.849  0.1116  0.2981  0.0336
18218TIP3    H176069   5.855   6.802   3.888  1.6868 -0.6849  0.6277
18218TIP3    H276070   5.877   6.653   3.876 -0.6656 -0.9428 -1.3294
18219TIP3   OH276071   5.537   2.481  16.884 -0.0395  0.3316  0.1915
18219TIP3    H176072   5.602   2.506  16.950 -0.3987 -0.7501  0.9747
18219TIP3    H276073   5.464   2.541  16.898  0.5909  1.2833 -0.4251
18220TIP3   OH276074   2.384   1.365  12.920  0.1708 -0.1346 -0.0690
18220TIP3    H176075   2.436   1.425  12.974  0.8276 -0.6454 -0.1309
18220TIP3    H276076   2.393   1.399  12.831  2.3354 -1.5353 -0.4449
18221TIP3   OH276077   0.441   3.262  14.553 -0.0374  0.5049 -0.1073
18221TIP3    H176078   0.411   3.224  14.636 -0.7960 -1.1269 -1.0731
18221TIP3    H276079   0.491   3.192  14.512  0.3536  1.3037 -1.0231
18222TIP3   OH276080   1.930   4.464  13.712  0.0078 -0.3603 -0.4518
18222TIP3    H176081   1.889   4.387  13.751  0.8866 -2.0540 -2.7190
18222TIP3    H276082   2.023   4.456  13.734  0.1272  0.0091 -0.8072
18223TIP3   OH276083   0.823   0.257   2.211  0.1065 -0.0528  0.4068
18223TIP3    H176084   0.842   0.340   2.169 -1.0641 -0.9098 -2.0212
18223TIP3    H276085   0.902   0.204   2.197 -0.4164 -0.4746 -1.2634
18224TIP3   OH276086   1.615   3.430  16.045 -0.2994  0.7560 -0.1743
18224TIP3    H176087   1.622   3.338  16.071 -2.1639  0.4437 -0.6127
18224TIP3    H276088   1.600   3.428  15.951  1.7646  1.6493 -0.5647
18225TIP3   OH276089   4.238   0.872  14.338  0.6104 -0.0110  0.7232
18225TIP3    H176090   4.313   0.907  14.386  0.7007 -0.8059  1.1637
18225TIP3    H276091   4.268   0.789  14.302 -0.1379 -0.4735  1.1376
18226TIP3   OH276092   1.355   4.950  14.371 -0.0295 -0.0076 -0.8441
18226TIP3    H176093   1.357   4.888  14.298  0.9778 -3.3237  1.7234
18226TIP3    H276094   1.446   4.977  14.382 -0.3856  1.6550 -1.6016
18227TIP3   OH276095   3.353   2.248   4.977 -0.3367  0.5576 -0.0371
18227TIP3    H176096   3.343   2.306   5.053  0.1951  0.5050  0.0780
18227TIP3    H276097   3.418   2.293   4.922 -0.7131  0.5909 -0.4564
18228TIP3   OH276098   1.412   5.700  11.874  0.0102 -0.4313  0.5855
18228TIP3    H176099   1.423   5.608  11.896 -0.2044 -0.1609  1.8664
18228TIP3    H276100   1.338   5.729  11.928 -0.4640  0.2921 -0.4188
18229TIP3   OH276101   3.381   4.826  12.493  0.3262 -0.0444 -0.0957
18229TIP3    H176102   3.451   4.805  12.555 -0.2149 -1.2464  0.1502
18229TIP3    H276103   3.395   4.766  12.419 -0.7260 -0.6927  0.1979
18230TIP3   OH276104   5.587   5.907   4.626 -0.3424  0.4128 -0.1282
18230TIP3    H176105   5.604   5.959   4.704  0.5992 -0.9852  0.6339
18230TIP3    H276106   5.528   5.837   4.655 -1.2284  0.7462 -1.0343
18231TIP3   OH276107   5.221   4.274   2.485 -0.3833  0.0420  0.2221
18231TIP3    H176108   5.211   4.304   2.395 -2.7044  2.6349  1.2231
18231TIP3    H276109   5.184   4.186   2.485 -1.2863  0.4024 -1.1462
18232TIP3   OH276110   0.337   6.077  12.173 -0.5183  0.0524 -0.2033
18232TIP3    H176111   0.283   6.151  12.201 -2.8697 -1.7506  0.3859
18232TIP3    H276112   0.403   6.067  12.242 -1.0166  0.7614  0.3914
18233TIP3   OH276113   5.514   1.100   5.565 -0.0738  0.1551 -0.0587
18233TIP3    H176114   5.450   1.163   5.531 -0.3195 -0.0509  0.0152
18233TIP3    H276115   5.599   1.141   5.551 -0.2930  1.1062  1.1843
18234TIP3   OH276116   0.356   0.002  12.427  0.4810 -0.2818 -0.1960
18234TIP3    H176117   0.271  -0.033  12.456  1.2636 -0.7316  1.6664
18234TIP3    H276118   0.421  -0.055  12.467  1.6987 -0.7388 -2.6425
18235TIP3   OH276119   1.160   2.309  12.476 -0.7520 -0.3350 -0.1404
18235TIP3    H176120   1.076   2.340  12.511 -1.0323 -0.1089 -0.9789
18235TIP3    H276121   1.143   2.218  12.450 -0.8434 -0.1754 -0.6447
18236TIP3   OH276122   3.403   1.810   5.429 -0.0503  0.1213 -0.3230
18236TIP3    H176123   3.412   1.858   5.511 -0.7281 -1.0414  0.4623
18236TIP3    H276124   3.375   1.722   5.456  0.0534 -0.3824 -1.7795
18237TIP3   OH276125   3.496   1.023   2.732 -0.1027 -0.0429  0.6873
18237TIP3    H176126   3.526   0.952   2.790  0.1001 -0.3593  0.1986
18237TIP3    H276127   3.534   1.102   2.770 -2.0214  0.1311  2.4804
18238TIP3   OH276128   5.251   1.622  16.047  0.7770 -0.0038  1.4616
18238TIP3    H176129   5.304   1.551  16.083  0.6844 -0.5047  0.6499
18238TIP3    H276130   5.161   1.601  16.073  0.5568 -0.9747  0.0645
18239TIP3   OH276131   2.723   4.586   0.051  0.3931  0.2053 -0.1711
18239TIP3    H176132   2.795   4.645   0.071  1.4204 -0.5900 -1.3936
18239TIP3    H276133   2.716   4.588  -0.045 -1.9228  1.0781 -0.0539
18240TIP3   OH276134   3.462   4.933  11.678  0.2854 -0.1287  0.0350
18240TIP3    H176135   3.399   4.993  11.638  0.0674 -0.4769 -0.1481
18240TIP3    H276136   3.497   4.882  11.604 -0.1796 -0.8302  0.2818
18241TIP3   OH276137   0.073   5.573   4.149  0.0179  0.5800  0.5144
18241TIP3    H176138   0.114   5.493   4.180  0.8366  1.3255  1.4317
18241TIP3    H276139  -0.009   5.544   4.107 -1.7667 -0.4921  4.2982
18242TIP3   OH276140   3.405   1.581  14.488 -0.2029  0.3808 -0.0175
18242TIP3    H176141   3.350   1.650  14.450 -1.8102 -1.5967 -1.5086
18242TIP3    H276142   3.373   1.500  14.448  2.9906 -1.0577  0.0698
18243TIP3   OH276143   5.987   0.879  12.555  0.3111  0.0540 -0.0957
18243TIP3    H176144   5.973   0.963  12.512 -3.1449  0.4541  1.4848
18243TIP3    H276145   5.992   0.901  12.649  1.8518 -1.3022  0.1788
18244TIP3   OH276146   3.149   3.688   4.107 -0.1701 -0.5560 -0.1086
18244TIP3    H176147   3.136   3.727   4.193 -1.7443 -0.6363 -0.2959
18244TIP3    H276148   3.203   3.611   4.124  0.8747  0.2769  0.5754
18245TIP3   OH276149   5.887   0.876   4.223 -0.0852 -0.0291  0.1057
18245TIP3    H176150   5.865   0.795   4.176  1.3082 -0.1950 -0.2949
18245TIP3    H276151   5.829   0.942   4.186  0.0511 -0.4504 -0.8847
18246TIP3   OH276152   4.778   0.642   2.499 -0.4042 -0.2602 -0.1336
18246TIP3    H176153   4.792   0.639   2.594 -3.8169  0.1057  0.5158
18246TIP3    H276154   4.724   0.720   2.485 -1.7987 -1.4754 -2.0594
18247TIP3   OH276155   1.896   2.073   3.753 -0.3507 -0.3977  0.5862
18247TIP3    H176156   1.896   2.024   3.835  0.4184 -0.9478  0.2636
18247TIP3    H276157   1.806   2.106   3.744 -0.3154  0.0987  1.8993
18248TIP3   OH276158   3.780   3.853  11.901  0.2410  0.0240  0.3940
18248TIP3    H176159   3.824   3.892  11.826  0.6368 -1.0439  0.0540
18248TIP3    H276160   3.725   3.784  11.864 -1.4030  1.0319  0.8615
18249TIP3   OH276161   4.138   6.794  16.463  0.0845  0.0581 -0.8110
18249TIP3    H176162   4.207   6.730  16.482  0.5312  0.7822  0.1388
18249TIP3    H276163   4.056   6.746  16.471  0.2675  0.0787  2.3481
18250TIP3   OH276164   1.034   5.784   5.300 -0.4504 -0.4223  0.4221
18250TIP3    H176165   1.017   5.727   5.375  0.6124  0.7371  1.5998
18250TIP3    H276166   1.125   5.811   5.311 -1.0247  1.8065  0.1349
18251TIP3   OH276167   5.428   5.911  16.039  0.2978 -0.1438  0.2079
18251TIP3    H176168   5.509   5.944  16.078  1.1527 -0.5002 -1.2110
18251TIP3    H276169   5.416   5.825  16.080  0.4265  0.0689  0.7021
18252TIP3   OH276170   3.392   1.683  11.667  0.6177 -0.3099  0.0820
18252TIP3    H176171   3.368   1.680  11.759 -1.0587  0.3797 -0.3021
18252TIP3    H276172   3.477   1.639  11.663  0.9896  0.1248  2.0233
18253TIP3   OH276173   2.110   5.657  16.226  0.6466 -0.2787  0.1189
18253TIP3    H176174   2.193   5.661  16.180  0.5534 -0.4916 -0.0716
18253TIP3    H276175   2.048   5.702  16.169  0.6263 -0.1367  0.2511
18254TIP3   OH276176   4.436   5.942  15.569  0.0553 -0.1495 -0.1226
18254TIP3    H176177   4.449   5.910  15.658 -2.1250  0.0483  0.3337
18254TIP3    H276178   4.396   6.029  15.581  0.6739  0.3226 -1.3124
18255TIP3   OH276179   1.423   4.604  14.834  0.4854 -0.2786 -0.1354
18255TIP3    H176180   1.469   4.563  14.908  0.4250 -0.2585 -0.0868
18255TIP3    H276181   1.344   4.642  14.873  0.6242  0.0269 -0.1526
18256TIP3   OH276182   2.682   6.684  16.904 -0.1788  0.3832  0.1061
18256TIP3    H176183   2.715   6.757  16.851 -2.5338  1.2801 -0.2448
18256TIP3    H276184   2.633   6.630  16.842 -1.0178  0.1897  0.9128
18257TIP3   OH276185   6.488   0.786  10.594  0.1857 -0.3994  0.4739
18257TIP3    H176186   6.483   0.832  10.677  2.7669 -0.2780  0.6531
18257TIP3    H276187   6.538   0.706  10.614  1.7327  0.1100 -1.0897
18258TIP3   OH276188   0.941   2.685  13.931 -0.2274  0.0344  0.1924
18258TIP3    H176189   1.015   2.730  13.891 -0.7716  1.1496  0.3806
18258TIP3    H276190   0.865   2.738  13.906 -0.9990 -1.2113 -0.2015
18259TIP3   OH276191   3.383   3.840  13.652 -0.6393 -0.0665 -0.6887
18259TIP3    H176192   3.301   3.889  13.662 -0.4058  0.9444 -3.0516
18259TIP3    H276193   3.357   3.759  13.607 -0.6505 -0.9925  0.8989
18260TIP3   OH276194   1.501   1.583   5.178 -0.6082  0.8282 -0.1738
18260TIP3    H176195   1.551   1.513   5.137  1.0979  2.5367 -1.1874
18260TIP3    H276196   1.410   1.555   5.172  0.1251 -2.3477  1.6117
18261TIP3   OH276197   3.815   2.490  10.911  0.0439 -0.8171 -0.2716
18261TIP3    H176198   3.905   2.463  10.930  0.2546 -0.3705 -0.6197
18261TIP3    H276199   3.784   2.426  10.846  0.3433 -0.5818 -0.6546
18262TIP3   OH276200   4.194   5.870  11.573 -0.3725  0.2988 -0.2222
18262TIP3    H176201   4.164   5.803  11.511  2.2940 -0.1704 -1.1418
18262TIP3    H276202   4.116   5.891  11.625 -1.3087 -3.7684  0.3695
18263TIP3   OH276203   2.900   6.072   5.211  0.1030  0.1322  0.1713
18263TIP3    H176204   2.868   6.043   5.296 -1.5923  0.2188 -0.4038
18263TIP3    H276205   2.897   5.994   5.155 -1.1744  0.5980 -0.4504
18264TIP3   OH276206   5.939   6.022  14.662  0.0243 -0.1468  0.6228
18264TIP3    H176207   6.003   6.083  14.700  1.3008 -1.3589  0.5198
18264TIP3    H276208   5.984   5.937  14.664 -0.6564 -0.6150 -1.7142
18265TIP3   OH276209   5.537   4.548  12.331  0.3359  0.1548  0.0033
18265TIP3    H176210   5.484   4.626  12.348  1.8729  0.7650  2.6305
18265TIP3    H276211   5.527   4.494  12.409 -0.1416 -2.0344 -1.4674
18266TIP3   OH276212   6.180   1.663  12.725 -0.8096  0.0069 -0.0109
18266TIP3    H176213   6.268   1.627  12.714 -0.0744  1.4955  0.6383
18266TIP3    H276214   6.182   1.745  12.675 -1.3345  0.7866  1.2010
18267TIP3   OH276215   0.309   5.085  14.019  0.0532 -0.1875  0.3056
18267TIP3    H176216   0.346   5.110  13.934 -0.7972 -1.0765 -0.3633
18267TIP3    H276217   0.339   5.153  14.080 -0.4627  1.2705 -0.9873
18268TIP3   OH276218   5.004   3.991  11.590  0.1798  0.3449  0.3038
18268TIP3    H176219   5.037   4.079  11.607  0.3896  0.2878  0.1969
18268TIP3    H276220   5.081   3.935  11.596 -0.3243 -0.1739  2.7151
18269TIP3   OH276221   2.973   6.334   3.493  0.5494 -0.5821  0.3183
18269TIP3    H176222   2.942   6.421   3.467  1.0299 -0.5233 -0.0882
18269TIP3    H276223   2.916   6.308   3.565 -0.3988 -0.4540 -0.3682
18270TIP3   OH276224   5.117   4.788   4.951  0.8128 -0.3228 -0.3740
18270TIP3    H176225   5.097   4.695   4.962  2.1896 -0.9540 -2.5628
18270TIP3    H276226   5.212   4.794   4.965  0.6266  0.9098  0.5023
18271TIP3   OH276227   4.385   0.345  13.334  0.1206 -0.0358  0.0022
18271TIP3    H176228   4.330   0.311  13.404  1.0409 -1.6285 -0.0124
18271TIP3    H276229   4.336   0.328  13.254 -1.1233  2.1563  0.1988
18272TIP3   OH276230   5.910   5.442   4.189  0.0421 -0.0273  0.1788
18272TIP3    H176231   5.830   5.445   4.136 -0.6373  0.6627  1.2056
18272TIP3    H276232   5.926   5.533   4.213  1.1245 -0.1644  0.0267
18273TIP3   OH276233   2.284   2.557  14.058 -0.1935  0.2096 -0.4686
18273TIP3    H176234   2.326   2.597  13.981 -0.3929 -0.9126 -1.1801
18273TIP3    H276235   2.357   2.520  14.108 -0.2355 -0.9529 -1.2432
18274TIP3   OH276236   5.811   6.555  16.758  0.9231  0.1914  0.1921
18274TIP3    H176237   5.833   6.613  16.831  0.2597 -1.3185  1.6535
18274TIP3    H276238   5.864   6.477  16.772 -1.6194 -1.5068  1.0270
18275TIP3   OH276239   5.899   4.449  16.029  0.2795 -0.3906 -0.1791
18275TIP3    H176240   5.938   4.362  16.026  0.6492 -0.2179 -0.5114
18275TIP3    H276241   5.928   4.491  15.948  0.8391  0.3478  0.3927
18276TIP3   OH276242   1.001   5.669  11.119  0.0682  0.4537 -0.5314
18276TIP3    H176243   0.933   5.607  11.143  1.1726  0.1443  2.0363
18276TIP3    H276244   1.032   5.638  11.033 -0.6250 -1.4527 -0.1424
18277TIP3   OH276245   5.523   2.476   4.226  0.0564  0.6861 -0.4677
18277TIP3    H176246   5.573   2.480   4.144 -0.8076  1.0124 -1.0053
18277TIP3    H276247   5.471   2.396   4.218  0.0925  0.6313 -0.1618
18278TIP3   OH276248   5.555   6.114   5.293 -0.5068 -0.0095  0.0949
18278TIP3    H176249   5.503   6.111   5.213  0.6766 -1.5957 -0.6864
18278TIP3    H276250   5.606   6.195   5.285  0.1161 -0.4873 -1.1470
18279TIP3   OH276251   6.531   6.198   1.478 -0.2116 -0.0362 -0.5675
18279TIP3    H176252   6.459   6.138   1.460 -0.4173  0.3772 -1.1285
18279TIP3    H276253   6.501   6.283   1.447  0.1828  0.3146 -0.0169
18280TIP3   OH276254   3.277   4.511  13.852  0.0242  0.1264 -0.0415
18280TIP3    H176255   3.358   4.556  13.878  0.6132  0.1241 -1.7457
18280TIP3    H276256   3.271   4.436  13.912  1.1211  0.3119  0.3267
18281TIP3   OH276257   6.477   5.317   6.158  0.0982  0.5460 -0.0504
18281TIP3    H176258   6.509   5.366   6.234  3.2013 -0.5679 -0.4759
18281TIP3    H276259   6.414   5.255   6.194  1.2919  0.2328  1.6169
18282TIP3   OH276260   5.361   2.761  15.974  0.1210 -0.1395  0.2476
18282TIP3    H176261   5.348   2.687  16.034 -0.4113  0.4477  0.8843
18282TIP3    H276262   5.374   2.836  16.033  1.5250  0.1387 -0.3794
18283TIP3   OH276263   4.888   3.894  15.105 -0.2628  0.0942 -0.8358
18283TIP3    H176264   4.802   3.903  15.145 -0.5997 -3.2196 -0.5583
18283TIP3    H276265   4.936   3.972  15.133 -2.5048  1.0146  0.6996
18284TIP3   OH276266   2.621   4.604  12.970  0.1173  0.4771 -0.0368
18284TIP3    H176267   2.583   4.531  13.020  0.6434  0.3175  0.1369
18284TIP3    H276268   2.572   4.604  12.888  0.0114  0.0192  0.0203
18285TIP3   OH276269   0.328   4.814   4.829  0.7062 -0.1998  0.0246
18285TIP3    H176270   0.408   4.864   4.817  0.7672  0.3999  2.4877
18285TIP3    H276271   0.326   4.792   4.922 -2.2778  0.3555  0.2087
18286TIP3   OH276272   0.321   2.468  13.225  0.0858 -0.2046  0.0738
18286TIP3    H176273   0.263   2.503  13.157 -1.2893 -0.4151  1.0899
18286TIP3    H276274   0.329   2.539  13.289  0.1370 -0.5264  0.4307
18287TIP3   OH276275   0.468   1.626  14.687  0.0401 -0.7132  0.1561
18287TIP3    H176276   0.403   1.630  14.757  0.4108 -2.0350  0.6038
18287TIP3    H276277   0.430   1.678  14.616 -0.3910  0.5780  1.2761
18288TIP3   OH276278   0.500   1.907   5.580 -0.4146 -0.2365 -0.2897
18288TIP3    H176279   0.571   1.968   5.561 -0.0084 -1.0944 -1.6325
18288TIP3    H276280   0.424   1.945   5.537 -0.1464 -0.6852 -1.1838
18289TIP3   OH276281   0.535   6.565   0.656  0.2383 -0.0955 -0.3886
18289TIP3    H176282   0.572   6.534   0.739  0.7597 -1.2977 -1.0462
18289TIP3    H276283   0.444   6.537   0.658  0.9533 -2.7892 -1.4391
18290TIP3   OH276284   5.443   1.193  14.935  0.6396 -0.2616 -0.0438
18290TIP3    H176285   5.526   1.225  14.971  0.3664  0.6394 -0.1938
18290TIP3    H276286   5.469   1.142  14.858  1.0430  0.4379 -0.3904
18291TIP3   OH276287   2.396   0.176   2.293  0.1258 -0.1268  0.1835
18291TIP3    H176288   2.353   0.184   2.378 -0.6186 -0.1835 -0.1741
18291TIP3    H276289   2.485   0.207   2.308  0.4035 -1.3667  1.2913
18292TIP3   OH276290   4.031   5.677  15.583  0.1679  0.0105  0.6290
18292TIP3    H176291   4.042   5.760  15.536 -0.0655 -0.4585 -0.2803
18292TIP3    H276292   4.065   5.611  15.522 -4.2703 -1.1835 -0.9436
18293TIP3   OH276293   5.663   5.159  11.261  0.0011  0.1181  0.5861
18293TIP3    H176294   5.658   5.064  11.244 -0.3492 -0.2882  2.6861
18293TIP3    H276295   5.632   5.199  11.180 -2.7988 -1.6707  0.6167
18294TIP3   OH276296   3.233   6.020  14.158  0.1246 -0.0110  0.0195
18294TIP3    H176297   3.218   6.113  14.176 -2.1391 -0.1131 -1.0281
18294TIP3    H276298   3.180   6.002  14.080  1.0968 -2.0244 -0.2204
18295TIP3   OH276299   3.504   5.501   2.537  0.4932  0.3308  0.5994
18295TIP3    H176300   3.549   5.464   2.461 -0.3693 -0.5468  0.4960
18295TIP3    H276301   3.435   5.438   2.558  0.0969  1.0326  1.5168
18296TIP3   OH276302   6.550   3.535  10.958 -0.1010  0.4903 -0.2921
18296TIP3    H176303   6.510   3.521  10.872 -1.3317  0.4814  0.2640
18296TIP3    H276304   6.541   3.629  10.974  0.0626  0.4821 -0.1535
18297TIP3   OH276305   5.438   5.783  13.279 -0.3335  0.4124 -0.3125
18297TIP3    H176306   5.374   5.805  13.347 -0.1521  1.0573 -0.3370
18297TIP3    H276307   5.481   5.866  13.260 -0.2502  0.2026 -1.0829
18298TIP3   OH276308   1.230   3.230  16.644 -0.2381  0.3237 -0.4798
18298TIP3    H176309   1.162   3.163  16.652 -0.6440  0.7754 -0.0780
18298TIP3    H276310   1.182   3.312  16.634  0.2422  0.6462 -0.1996
18299TIP3   OH276311   5.700   1.543   1.295 -0.2877 -0.2994  0.4067
18299TIP3    H176312   5.760   1.530   1.369 -0.8489 -1.9569  0.6071
18299TIP3    H276313   5.740   1.493   1.223 -0.2029  0.5760 -0.1645
18300TIP3   OH276314   3.566   2.641   4.685 -0.0329 -0.4828 -0.3423
18300TIP3    H176315   3.659   2.666   4.692  0.8579 -3.7300  1.2304
18300TIP3    H276316   3.534   2.643   4.775 -1.0411 -0.9514 -0.6757
18301TIP3   OH276317   0.937   4.193   6.205 -0.0708  0.0462  0.7806
18301TIP3    H176318   0.891   4.174   6.287 -0.1784  0.0030  0.7108
18301TIP3    H276319   0.959   4.286   6.211  0.1002 -0.0034  0.9457
18302TIP3   OH276320   2.954   5.328  14.905 -0.3627 -0.2163 -0.0719
18302TIP3    H176321   2.963   5.242  14.863 -0.6848 -0.0062 -0.5821
18302TIP3    H276322   2.959   5.309  14.999 -1.1630 -0.8971 -0.1537
18303TIP3   OH276323   5.783   4.757  11.823  0.2185  0.7504  0.0657
18303TIP3    H176324   5.865   4.768  11.776  0.0707 -0.2650 -0.4496
18303TIP3    H276325   5.797   4.681  11.879 -0.4077  0.4750 -0.1350
18304TIP3   OH276326   6.473   2.906   2.340  0.0966 -0.8391  0.2699
18304TIP3    H176327   6.458   2.817   2.307 -1.0065 -0.9882  1.1142
18304TIP3    H276328   6.387   2.948   2.337  0.3703 -0.1901  0.9925
18305TIP3   OH276329   1.592   6.144  12.300 -0.1684 -0.1235 -0.3154
18305TIP3    H176330   1.520   6.093  12.264  0.0399 -0.0316 -0.8798
18305TIP3    H276331   1.558   6.233  12.307 -0.1756 -0.1188 -0.4023
18306TIP3   OH276332   3.203   0.354   3.915 -0.2524 -0.2773  0.2184
18306TIP3    H176333   3.258   0.404   3.975  2.1164 -0.5991 -1.5012
18306TIP3    H276334   3.188   0.271   3.959  2.4406 -0.9655  0.0041
18307TIP3   OH276335   0.146   3.810  12.260  0.3653 -0.2545  0.5819
18307TIP3    H176336   0.142   3.771  12.172  0.5092 -1.8838  1.2579
18307TIP3    H276337   0.150   3.904  12.244 -1.7662 -0.3755 -1.1093
18308TIP3   OH276338   6.390   0.033  15.838  0.8410 -0.3978 -0.0450
18308TIP3    H176339   6.478  -0.001  15.822  0.7552 -1.1552  0.9967
18308TIP3    H276340   6.331  -0.032  15.801  0.7106 -0.2587 -0.0847
18309TIP3   OH276341   0.897   2.110  14.908 -0.5417 -0.1058 -0.1971
18309TIP3    H176342   0.838   2.177  14.942 -1.1316 -0.7598  0.0888
18309TIP3    H276343   0.861   2.086  14.823 -0.1785  0.1247 -0.4186
18310TIP3   OH276344   3.625   1.787  11.864 -0.1957 -0.0627 -1.0842
18310TIP3    H176345   3.584   1.851  11.805 -0.8631  0.5947  0.0664
18310TIP3    H276346   3.710   1.769  11.824 -1.0006 -0.3645 -2.7540
18311TIP3   OH276347   5.690   4.512   1.066 -0.1979 -0.3196 -0.3144
18311TIP3    H176348   5.692   4.522   0.971 -0.4727 -1.5981 -0.4699
18311TIP3    H276349   5.597   4.516   1.089 -0.2201 -1.0768 -0.2395
18312TIP3   OH276350   2.348   5.968  11.590  0.0130  0.6986 -0.4675
18312TIP3    H176351   2.340   6.045  11.533  2.3042  0.8460 -0.6833
18312TIP3    H276352   2.381   5.899  11.532  2.2413  0.8098  0.5788
18313TIP3   OH276353   0.649   5.170  11.074 -0.2957  0.1564 -0.0983
18313TIP3    H176354   0.714   5.123  11.126 -1.2228 -0.2039  0.7794
18313TIP3    H276355   0.698   5.240  11.031  0.8226 -0.6576 -0.1854
18314TIP3   OH276356   6.733   6.602  11.893 -0.5078 -0.4948  0.5322
18314TIP3    H176357   6.802   6.542  11.919 -0.8855 -0.2198  2.2815
18314TIP3    H276358   6.779   6.684  11.874  0.4023 -1.8428 -4.6488
18315TIP3   OH276359   3.212   4.504   4.141 -0.1045  0.3681 -0.3411
18315TIP3    H176360   3.303   4.478   4.130 -0.1520  0.8197 -2.1092
18315TIP3    H276361   3.199   4.508   4.236  0.6074 -3.4144  0.0730
18316TIP3   OH276362   5.989   2.462  16.212 -0.0717 -0.5350  0.0080
18316TIP3    H176363   5.978   2.492  16.122 -0.8360 -0.5658  0.0852
18316TIP3    H276364   6.061   2.515  16.247  1.5149 -1.7881 -1.1785
18317TIP3   OH276365   4.931   0.036  13.959 -0.2542 -0.1159  0.4253
18317TIP3    H176366   4.848   0.033  13.913 -0.0247 -2.6215  0.0620
18317TIP3    H276367   4.909   0.070  14.046 -1.3540  0.7775 -0.1751
18318TIP3   OH276368   1.355   0.569  11.997  0.1056  0.3879  0.4515
18318TIP3    H176369   1.432   0.524  11.962  1.7579  3.0918  0.3721
18318TIP3    H276370   1.285   0.503  11.993  1.2710 -0.8949 -3.6996
18319TIP3   OH276371   5.775   5.398   5.156 -0.3300 -0.3329 -0.1069
18319TIP3    H176372   5.723   5.318   5.160 -0.8205  0.0406  1.7707
18319TIP3    H276373   5.730   5.460   5.214  1.8879  0.1729  1.2105
18320TIP3   OH276374   4.340   2.103   5.445 -0.2552  0.0277  0.1189
18320TIP3    H176375   4.353   2.118   5.538  2.0438 -1.8604  0.1791
18320TIP3    H276376   4.390   2.173   5.402  1.0241 -0.6988  0.3626
18321TIP3   OH276377   0.827   5.621  11.488 -0.2295  0.7060 -0.3426
18321TIP3    H176378   0.758   5.596  11.427 -1.4285  0.5440  1.0061
18321TIP3    H276379   0.897   5.557  11.474 -1.4203 -0.7261 -0.0138
18322TIP3   OH276380   3.790   3.228   3.188 -0.1787 -0.6557 -0.1171
18322TIP3    H176381   3.725   3.253   3.123  1.0869 -1.2900 -1.6972
18322TIP3    H276382   3.755   3.149   3.229 -1.0025 -0.2252  0.0250
18323TIP3   OH276383   4.174   4.247   4.086 -0.5564  0.1008  0.8255
18323TIP3    H176384   4.093   4.293   4.062 -1.1181 -0.8096  0.9032
18323TIP3    H276385   4.236   4.269   4.016 -1.8242 -1.6242 -0.9683
18324TIP3   OH276386   3.694   4.654  15.604  0.2448 -0.1974  0.0488
18324TIP3    H176387   3.763   4.711  15.572  0.7747  0.8740  2.8416
18324TIP3    H276388   3.643   4.709  15.664 -2.1132 -1.3863 -0.7402
18325TIP3   OH276389   0.077   2.336   0.400  0.3945  0.3135 -0.2557
18325TIP3    H176390   0.039   2.405   0.454  1.2970 -0.7855  1.9103
18325TIP3    H276391   0.069   2.257   0.453  0.0080 -1.1600 -2.3725
18326TIP3   OH276392   5.072   5.819   1.587 -0.7336  0.3301  0.3769
18326TIP3    H176393   5.128   5.874   1.642 -0.7936  2.6247 -1.6821
18326TIP3    H276394   4.986   5.862   1.589 -1.1681 -0.4858 -0.1681
18327TIP3   OH276395   0.640   0.637   1.607  0.5260 -0.0222  0.0569
18327TIP3    H176396   0.574   0.598   1.550 -1.0301  0.6181  1.3426
18327TIP3    H276397   0.691   0.694   1.549 -0.0799 -0.4763 -0.9583
18328TIP3   OH276398   2.863   2.766  12.939  0.1914 -0.2753 -0.6533
18328TIP3    H176399   2.782   2.816  12.942 -0.2495 -0.9998  0.7929
18328TIP3    H276400   2.931   2.829  12.963 -0.0894  0.1058 -0.8636
18329TIP3   OH276401   5.385   5.115  11.177  0.0813 -0.1638  0.0269
18329TIP3    H176402   5.441   5.096  11.252  0.0573  3.0855  1.0024
18329TIP3    H276403   5.444   5.115  11.101  0.7974  0.1482  0.5793
18330TIP3   OH276404   1.501   6.255  11.150 -0.8144 -0.2600  0.1783
18330TIP3    H176405   1.489   6.291  11.062 -0.8968 -1.9999 -0.5507
18330TIP3    H276406   1.443   6.179  11.153 -0.3641 -0.5713  1.5420
18331TIP3   OH276407   0.826   5.008   3.273  0.1532 -0.5999 -0.1615
18331TIP3    H176408   0.843   5.060   3.351  0.5224 -0.3026 -0.4425
18331TIP3    H276409   0.841   5.067   3.200 -1.3965 -0.5151 -0.4421
18332TIP3   OH276410   0.081   4.712  11.566 -0.2190 -0.0435  0.1231
18332TIP3    H176411   0.046   4.801  11.569  0.1004  0.0822  0.2471
18332TIP3    H276412   0.166   4.722  11.522 -0.2373 -0.3052  0.0295
18333TIP3   OH276413   4.988   4.485  11.685  0.0645  0.1965 -0.5032
18333TIP3    H176414   5.018   4.522  11.602  0.3574  0.4527 -0.2825
18333TIP3    H276415   4.971   4.561  11.740  0.1118  0.0185 -0.2438
18334TIP3   OH276416   6.652   6.215   6.226 -0.3748 -0.7934  0.7060
18334TIP3    H176417   6.740   6.191   6.197 -0.8459 -0.1347 -1.4992
18334TIP3    H276418   6.595   6.188   6.154 -1.5081  2.0352  0.4044
18335TIP3   OH276419   3.399   4.267   5.763 -0.2491  0.5742 -0.2465
18335TIP3    H176420   3.320   4.312   5.734 -0.1850  1.3242  0.7008
18335TIP3    H276421   3.374   4.175   5.769 -1.0826  0.8225  0.1563
18336TIP3   OH276422   0.520   1.628  13.496  0.1194  0.1414  0.3102
18336TIP3    H176423   0.525   1.721  13.519 -3.1020  1.2499 -2.6003
18336TIP3    H276424   0.484   1.587  13.575 -1.1947  1.9556  0.7540
18337TIP3   OH276425   0.048   6.223  12.051  0.2397 -0.3305 -0.4034
18337TIP3    H176426   0.049   6.128  12.061 -1.2655 -0.2638  0.7663
18337TIP3    H276427  -0.045   6.246  12.046  0.5834  1.0536 -1.1704
18338TIP3   OH276428   1.682   2.001   0.660 -0.0897 -0.2190 -0.2104
18338TIP3    H176429   1.762   2.049   0.681 -0.9067  1.0083  0.2490
18338TIP3    H276430   1.624   2.067   0.622 -0.4882 -1.3309 -1.6375
18339TIP3   OH276431   6.616   6.705   0.725  0.8205  0.2201  0.2348
18339TIP3    H176432   6.599   6.761   0.649  0.5576 -1.5359 -1.0473
18339TIP3    H276433   6.541   6.721   0.783  0.3941  0.6945 -0.4227
18340TIP3   OH276434   5.603   4.936   4.707  0.0611  0.3077 -0.0770
18340TIP3    H176435   5.691   4.919   4.739  0.0449  0.0580 -0.1642
18340TIP3    H276436   5.605   4.910   4.615 -0.5078 -1.1145  0.2889
18341TIP3   OH276437   3.972   3.764   4.652 -0.5279  0.0274 -0.1866
18341TIP3    H176438   3.983   3.829   4.722 -0.3369 -1.3492  1.1027
18341TIP3    H276439   3.996   3.811   4.572 -1.7489  1.9542  0.5102
18342TIP3   OH276440   5.894   4.134   0.374 -0.7032  0.2426  0.1849
18342TIP3    H176441   5.877   4.185   0.295  1.1403  0.8366  0.1457
18342TIP3    H276442   5.980   4.162   0.404 -0.2555 -1.8151  0.9803
18343TIP3   OH276443   0.252   4.010  15.305  0.6997 -0.2759 -0.0507
18343TIP3    H176444   0.171   4.015  15.356  0.2499  3.3871 -0.8583
18343TIP3    H276445   0.322   4.019  15.370  0.2256  1.5530  0.2632
18344TIP3   OH276446   5.118   6.376   4.693 -0.3039  1.1286  0.7002
18344TIP3    H176447   5.118   6.281   4.707 -3.6820  0.9678  0.2995
18344TIP3    H276448   5.099   6.413   4.779  0.8440  1.4935  0.8200
18345TIP3   OH276449   5.827   3.879   4.047 -0.0767 -0.2297 -0.1818
18345TIP3    H176450   5.899   3.876   4.110 -0.6037  1.3034  0.5485
18345TIP3    H276451   5.854   3.943   3.982 -0.1361 -0.7816 -0.7593
18346TIP3   OH276452   5.827   5.078  15.710 -0.4997  0.3954  0.6881
18346TIP3    H176453   5.833   5.066  15.615 -3.7000 -0.8183  0.4968
18346TIP3    H276454   5.844   4.991  15.746 -1.4389  0.3395  1.0260
18347TIP3   OH276455   2.813   4.340   3.446 -0.1537 -0.4546 -0.0405
18347TIP3    H176456   2.902   4.371   3.462 -0.7342  2.2297 -1.4622
18347TIP3    H276457   2.760   4.380   3.515 -0.6711  0.4733 -0.9392
18348TIP3   OH276458   6.192   6.311  13.151  0.4179 -0.2126  0.1845
18348TIP3    H176459   6.170   6.348  13.237 -1.3449 -0.4061 -0.1650
18348TIP3    H276460   6.287   6.299  13.155  0.3323 -0.5472  2.2435
18349TIP3   OH276461   4.065   4.539   0.111 -0.0021 -0.2759  0.4929
18349TIP3    H176462   4.064   4.610   0.047  1.9196 -0.5100  0.1481
18349TIP3    H276463   4.032   4.578   0.192  0.8539  0.9890  0.2573
18350TIP3   OH276464   1.728   6.693   2.462 -0.1716  0.2771  0.0305
18350TIP3    H176465   1.808   6.704   2.513 -0.6893  1.6108  0.6044
18350TIP3    H276466   1.661   6.738   2.513 -0.8586  1.0082 -1.4573
18351TIP3   OH276467   5.303   2.527   2.226  0.3526  0.1476  0.2084
18351TIP3    H176468   5.243   2.487   2.162  0.9560  0.0866 -0.3280
18351TIP3    H276469   5.341   2.453   2.273  1.6900  0.0504 -0.9831
18352TIP3   OH276470   3.543   5.177  16.843  0.5310  0.3789  0.4412
18352TIP3    H176471   3.486   5.181  16.919 -0.7144  0.6509 -0.4894
18352TIP3    H276472   3.622   5.133  16.876 -0.7338 -1.3045  1.4173
18353TIP3   OH276473   2.519   5.370   0.318 -0.1255 -0.5019  0.6599
18353TIP3    H176474   2.595   5.400   0.368  0.8457  0.3916 -1.2177
18353TIP3    H276475   2.556   5.308   0.255 -0.4489  1.6331 -1.8131
18354TIP3   OH276476   1.608   4.429   3.830  0.2706  1.0607  0.3880
18354TIP3    H176477   1.532   4.372   3.815 -1.0397  2.4371  1.5006
18354TIP3    H276478   1.655   4.387   3.902 -0.3864  1.1133  0.8483
18355TIP3   OH276479   0.527   5.575  13.756  0.3066 -0.4666 -0.4670
18355TIP3    H176480   0.583   5.651  13.742  0.4290 -0.2693  0.9228
18355TIP3    H276481   0.577   5.501  13.722  0.6229 -0.0576 -0.8997
18356TIP3   OH276482   2.206   2.917  11.684  0.3763  0.5506 -0.6205
18356TIP3    H176483   2.177   2.826  11.689  2.2072 -0.0160  1.3075
18356TIP3    H276484   2.195   2.941  11.592 -0.1156 -1.6336 -1.1849
18357TIP3   OH276485   1.222   6.495   3.115  0.3726  0.2064  0.0662
18357TIP3    H176486   1.273   6.454   3.185 -0.3649 -1.3686 -0.2811
18357TIP3    H276487   1.246   6.446   3.037 -2.3054 -1.2182  0.0406
18358TIP3   OH276488   2.772   0.258   4.248 -0.2571  0.1950 -0.0776
18358TIP3    H176489   2.773   0.314   4.170  0.3590 -0.2424 -0.3988
18358TIP3    H276490   2.682   0.226   4.254 -0.2327 -0.0384 -0.8144
18359TIP3   OH276491   5.167   3.261  12.904  0.5893 -1.0417 -0.1862
18359TIP3    H176492   5.178   3.241  12.997 -0.5411 -0.7862  0.0175
18359TIP3    H276493   5.122   3.184  12.868 -0.0952 -0.6205 -0.2510
18360TIP3   OH276494   3.531   5.655   1.952 -0.6296  0.0008  0.5658
18360TIP3    H176495   3.592   5.622   1.886 -0.9625 -0.5561  0.5231
18360TIP3    H276496   3.527   5.585   2.018  0.2520  0.8520  1.5557
18361TIP3   OH276497   4.908   4.210   0.587  0.0402  0.6729  0.5115
18361TIP3    H176498   4.859   4.234   0.509  0.9951  1.2760  0.0826
18361TIP3    H276499   4.999   4.202   0.557  0.7405  2.7038  1.8791
18362TIP3   OH276500   1.940   1.481   3.459  0.3340 -0.0759 -0.6092
18362TIP3    H176501   2.006   1.490   3.391  0.8461 -0.4905 -0.1748
18362TIP3    H276502   1.907   1.570   3.472  0.6782  0.1046 -0.9500
18363TIP3   OH276503   2.159   2.341   4.367  0.6570 -0.1742 -0.2628
18363TIP3    H176504   2.237   2.294   4.339  1.6923  0.1294  1.9093
18363TIP3    H276505   2.189   2.396   4.439 -1.5315  0.1269  0.4794
18364TIP3   OH276506   3.791   3.445  15.461  0.2874 -0.2561 -0.0940
18364TIP3    H176507   3.766   3.354  15.446  0.6871 -0.2640 -0.7213
18364TIP3    H276508   3.865   3.439  15.523 -1.5920 -0.2041  2.2929
18365TIP3   OH276509   2.376   2.403   0.369  0.2845  0.1800  0.2303
18365TIP3    H176510   2.351   2.312   0.384 -0.6092  0.5238  0.8851
18365TIP3    H276511   2.323   2.454   0.430  2.5461  0.9624  1.6695
18366TIP3   OH276512   1.182   2.136  12.111  0.0628  0.4286  0.0294
18366TIP3    H176513   1.104   2.181  12.079  0.5591  0.8983 -0.5440
18366TIP3    H276514   1.254   2.175  12.062  0.6826  0.1322  0.6804
18367TIP3   OH276515   3.817   6.199   2.612  0.2500  0.1915 -0.4219
18367TIP3    H176516   3.873   6.143   2.559 -0.9611  0.2035 -1.7593
18367TIP3    H276517   3.873   6.226   2.685  1.1536 -1.9647 -0.2493
18368TIP3   OH276518   3.885   5.139  14.223  0.0566 -0.2631 -0.4353
18368TIP3    H176519   3.895   5.047  14.200  1.4783 -0.5472  1.1618
18368TIP3    H276520   3.790   5.151  14.232 -0.1232 -1.7340 -0.0994
18369TIP3   OH276521   0.610   1.814  13.199  0.4052 -0.6398 -0.5920
18369TIP3    H176522   0.541   1.839  13.261 -0.0195 -1.1830 -0.8270
18369TIP3    H276523   0.567   1.752  13.140  1.4891 -2.1795  0.1812
18370TIP3   OH276524   1.496   5.271  14.185 -0.8415 -0.1119 -0.2018
18370TIP3    H176525   1.479   5.197  14.243  0.8347 -0.7839 -0.5093
18370TIP3    H276526   1.508   5.232  14.099 -0.0154  0.5071 -0.3798
18371TIP3   OH276527   3.736   1.622  15.333  0.4486 -0.0210 -0.3523
18371TIP3    H176528   3.798   1.563  15.289  1.0752  1.5549 -1.6494
18371TIP3    H276529   3.652   1.578  15.325  1.4574 -3.0553  2.8804
18372TIP3   OH276530   5.240   4.450   0.895  0.1994 -0.3294  0.0596
18372TIP3    H176531   5.299   4.377   0.875 -0.1749 -0.5919 -0.0781
18372TIP3    H276532   5.153   4.411   0.899 -0.0156  0.1260 -0.1050
18373TIP3   OH276533   4.682   4.231   3.679  0.6764  0.5650  0.1616
18373TIP3    H176534   4.695   4.320   3.711  1.0426  0.4905  0.2274
18373TIP3    H276535   4.620   4.240   3.607  1.1405  0.9504 -0.1964
18374TIP3   OH276536   1.100   3.663  14.603  0.6019 -0.1109  0.1963
18374TIP3    H176537   1.031   3.627  14.547 -0.1675  0.7958  0.5395
18374TIP3    H276538   1.110   3.598  14.673 -1.1342  0.5069  1.0911
18375TIP3   OH276539   2.934   3.518  16.391  0.0805  0.1863  0.5350
18375TIP3    H176540   2.841   3.519  16.367  0.3540 -1.5317 -0.8191
18375TIP3    H276541   2.937   3.466  16.471  0.0080 -1.0437 -0.2402
18376TIP3   OH276542   3.761   5.612   2.659  0.6807  0.2527 -0.0446
18376TIP3    H176543   3.755   5.602   2.754 -0.7904 -0.1101 -0.1599
18376TIP3    H276544   3.699   5.549   2.623 -1.8747  3.1105 -1.0857
18377TIP3   OH276545   1.164   6.709   1.010  0.1486  0.3923 -0.1086
18377TIP3    H176546   1.076   6.743   0.997 -0.1094  0.2386  1.1173
18377TIP3    H276547   1.163   6.623   0.966 -0.7627 -0.2267  1.0605
18378TIP3   OH276548   5.287   4.888  13.000 -0.5464 -0.0021 -0.4110
18378TIP3    H176549   5.205   4.839  13.002 -0.3071 -0.3950  0.7438
18378TIP3    H276550   5.311   4.899  13.092  1.4398 -1.1553 -0.7405
18379TIP3   OH276551   0.254   0.824  13.342 -0.2286 -0.1451 -0.3839
18379TIP3    H176552   0.165   0.824  13.308 -1.5686  1.1453  2.6861
18379TIP3    H276553   0.250   0.768  13.420  1.3532  0.7407  0.3842
18380TIP3   OH276554   5.146   0.511  14.446 -0.5542 -0.2413  0.1035
18380TIP3    H176555   5.080   0.448  14.477 -0.5821  1.3880  3.8272
18380TIP3    H276556   5.211   0.513  14.516 -0.1466  3.2502 -0.2277
18381TIP3   OH276557   2.890   1.051   3.389 -0.7701  0.4722 -0.6995
18381TIP3    H176558   2.870   1.008   3.306 -0.0501 -0.0423 -0.6170
18381TIP3    H276559   2.856   1.140   3.379 -1.2863  0.2147 -1.2905
18382TIP3   OH276560   3.812   2.491  11.854  0.3304 -0.1644  0.7846
18382TIP3    H176561   3.769   2.560  11.905  2.2623  0.6700  1.3797
18382TIP3    H276562   3.841   2.428  11.919  2.4531  0.7050  0.7691
18383TIP3   OH276563   3.967   0.576   4.743  0.1816 -0.5334 -0.2898
18383TIP3    H176564   3.986   0.499   4.797  1.4549 -2.2263 -2.9721
18383TIP3    H276565   4.053   0.607   4.714 -0.2905  2.0408  0.7949
18384TIP3   OH276566   5.540   5.235   4.166 -0.0373  0.2857  0.2191
18384TIP3    H176567   5.601   5.237   4.240  1.0848  0.4005 -0.6846
18384TIP3    H276568   5.551   5.148   4.129  0.3333  0.6525 -0.5503
18385TIP3   OH276569   0.928   0.669  14.096  0.8566 -0.1290  0.4972
18385TIP3    H176570   0.948   0.760  14.075 -0.2956  0.2632  1.0045
18385TIP3    H276571   1.006   0.620  14.069  0.3114  0.5568 -2.7489
18386TIP3   OH276572   6.237   3.572   4.601  0.2538  0.6964 -0.4931
18386TIP3    H176573   6.251   3.620   4.520 -0.9879 -0.1617 -1.2497
18386TIP3    H276574   6.222   3.481   4.574  0.6128  0.2400  0.7512
18387TIP3   OH276575   2.381   4.797  12.371  0.1644  0.6784  0.2394
18387TIP3    H176576   2.447   4.806  12.301  0.6148  2.9186  0.8524
18387TIP3    H276577   2.394   4.875  12.425 -0.4187 -0.7973  2.6400
18388TIP3   OH276578   5.264   5.398   3.644  0.4681  0.0999 -0.2044
18388TIP3    H176579   5.300   5.315   3.674 -0.2117 -0.4475 -0.8644
18388TIP3    H276580   5.202   5.424   3.712  0.8304  0.1734  0.0999
18389TIP3   OH276581   0.300   2.052   0.095  0.0940  0.1908  0.0740
18389TIP3    H176582   0.391   2.030   0.075 -0.3187 -1.8905  0.2863
18389TIP3    H276583   0.306   2.121   0.161  1.4551  2.6338 -2.4117
18390TIP3   OH276584   1.600   3.587   5.149  0.4768  0.0306 -0.1345
18390TIP3    H176585   1.540   3.658   5.167  0.1567  0.0311 -1.1397
18390TIP3    H276586   1.586   3.566   5.056  0.1761 -1.6963  0.2662
18391TIP3   OH276587   3.478   6.655  10.544 -0.1368 -0.3736 -0.1148
18391TIP3    H176588   3.392   6.614  10.530  0.4525 -1.1541 -1.8004
18391TIP3    H276589   3.459   6.748  10.552 -1.0719 -0.3630 -1.8372
18392TIP3   OH276590   5.868   4.225   2.676  0.2205  0.6104  0.3158
18392TIP3    H176591   5.904   4.308   2.708 -0.3680  0.4033  1.5773
18392TIP3    H276592   5.789   4.250   2.630  0.4963  0.8211 -0.0494
18393TIP3   OH276593   1.108   2.786   4.164  0.3367 -0.2426  0.4738
18393TIP3    H176594   1.069   2.859   4.212  1.2623  1.3690 -1.0977
18393TIP3    H276595   1.041   2.761   4.100 -0.3279 -1.4191  1.5849
18394TIP3   OH276596   3.412   0.640  16.284  0.4917  0.8625 -0.6019
18394TIP3    H176597   3.332   0.677  16.246  0.0650  2.1007  1.3493
18394TIP3    H276598   3.381   0.573  16.345  0.6234  3.1766  2.2312
18395TIP3   OH276599   1.534   5.499  15.735  0.2305 -0.4455 -0.2295
18395TIP3    H176600   1.540   5.577  15.681 -0.2763 -0.5892 -0.5002
18395TIP3    H276601   1.443   5.470  15.726  0.3354 -0.8959  0.1027
18396TIP3   OH276602   6.622   1.800   6.040  0.1610  0.4346 -0.2807
18396TIP3    H176603   6.687   1.851   5.992  0.2927  1.1457  0.6170
18396TIP3    H276604   6.556   1.864   6.065  0.2061  0.1241  0.6595
18397TIP3   OH276605   1.539   1.357  12.998  0.1844 -0.5978  0.3787
18397TIP3    H176606   1.596   1.292  12.956  2.0305  1.6281 -0.7867
18397TIP3    H276607   1.599   1.420  13.037 -1.5292 -0.3970  2.9663
18398TIP3   OH276608   4.999   6.188  16.293 -0.4448  0.2847  0.2724
18398TIP3    H176609   4.967   6.139  16.218 -0.4225  0.1126  0.3734
18398TIP3    H276610   5.090   6.158  16.305 -0.3874  0.4483  0.2541
18399TIP3   OH276611   2.764   5.892   1.042  0.2686  0.2825  0.2572
18399TIP3    H176612   2.746   5.859   0.954 -1.0987  2.1995 -0.2347
18399TIP3    H276613   2.757   5.814   1.098 -2.5614 -0.4212 -0.8762
18400TIP3   OH276614   5.199   3.715   2.224  0.0889 -0.4135  0.5139
18400TIP3    H176615   5.251   3.769   2.284  1.0728  0.0362 -0.6850
18400TIP3    H276616   5.117   3.763   2.213  1.0428  1.0648 -0.7402
18401TIP3   OH276617   0.269   2.454   5.484 -0.2263 -0.9649  0.3800
18401TIP3    H176618   0.202   2.413   5.541 -2.3214  1.3056 -0.2842
18401TIP3    H276619   0.279   2.542   5.519  2.3292 -1.1643  0.2850
18402TIP3   OH276620   3.562   4.774  12.708  0.5157  0.0664  0.2139
18402TIP3    H176621   3.485   4.816  12.745 -1.4443 -1.6644 -1.6030
18402TIP3    H276622   3.575   4.695  12.761 -0.8663 -1.1968 -1.2404
18403TIP3   OH276623   5.586   1.233  16.929 -0.0817  0.7107  0.0437
18403TIP3    H176624   5.493   1.214  16.941  0.2830 -1.8591 -0.5592
18403TIP3    H276625   5.591   1.328  16.919 -2.7753  0.8005 -1.1131
18404TIP3   OH276626   3.449   6.620  13.622  0.1455 -0.6960  1.0344
18404TIP3    H176627   3.394   6.613  13.700  0.1322 -0.1700  1.0703
18404TIP3    H276628   3.539   6.620  13.656  0.1733  3.6379  1.4568
18405TIP3   OH276629   6.541   5.904   4.246 -0.0137  0.3275 -0.0862
18405TIP3    H176630   6.558   5.956   4.168 -1.1861  0.2746 -0.3957
18405TIP3    H276631   6.619   5.915   4.301  0.3738  1.1972 -0.8015
18406TIP3   OH276632   4.692   2.754  12.796 -0.1376 -0.1854  0.0000
18406TIP3    H176633   4.766   2.694  12.791 -0.0445  0.0058 -2.1408
18406TIP3    H276634   4.716   2.817  12.863  1.5905 -0.2230 -0.5281
18407TIP3   OH276635   4.306   3.300  16.205  0.0987 -0.2580  0.0036
18407TIP3    H176636   4.348   3.255  16.278  0.1230  0.6854  0.5910
18407TIP3    H276637   4.218   3.322  16.237  1.2116  3.2411  1.1242
18408TIP3   OH276638   3.185   1.292   0.335 -0.1041 -0.6296 -0.4881
18408TIP3    H176639   3.237   1.371   0.348 -1.0407  0.1001 -1.0242
18408TIP3    H276640   3.248   1.225   0.311  0.7397 -0.1148  0.2192
18409TIP3   OH276641   0.883   0.041   3.457 -0.5288  0.4135 -0.0155
18409TIP3    H176642   0.834  -0.023   3.510 -0.1020 -1.5495 -1.8569
18409TIP3    H276643   0.856   0.126   3.492 -2.2231 -0.7039  1.6176
18410TIP3   OH276644   1.033   2.803   0.533 -0.5092 -0.2023  0.1841
18410TIP3    H176645   1.004   2.743   0.601 -1.4426  0.5598  0.4810
18410TIP3    H276646   1.043   2.747   0.455 -2.0016 -0.6649  0.2808
18411TIP3   OH276647   2.678   4.141  14.964  0.0930  0.4494  0.3213
18411TIP3    H176648   2.670   4.214  14.903  0.1053 -0.3225 -0.6376
18411TIP3    H276649   2.737   4.080  14.920 -3.4311 -2.2530 -1.1248
18412TIP3   OH276650   3.902   2.050   0.961 -0.2470  0.9381 -0.1887
18412TIP3    H176651   3.899   1.957   0.938  0.8462  1.0831 -1.0505
18412TIP3    H276652   3.822   2.086   0.924 -0.3583  0.4563 -0.4311
18413TIP3   OH276653   4.927   3.114   5.245  0.4381 -0.1668  0.0017
18413TIP3    H176654   4.915   3.094   5.153  1.8900 -0.2344 -0.2001
18413TIP3    H276655   4.973   3.198   5.246 -1.0632  0.6833  0.7239
18414TIP3   OH276656   0.445   3.926   6.489 -0.1872 -0.6257 -0.1754
18414TIP3    H176657   0.506   3.962   6.555  0.8592 -0.6014 -1.1311
18414TIP3    H276658   0.359   3.955   6.519  0.1680 -1.2259  1.5873
18415TIP3   OH276659   0.973   6.719   4.410 -0.0404  0.3195 -0.7235
18415TIP3    H176660   0.952   6.749   4.499 -0.9620  2.0959 -1.4772
18415TIP3    H276661   0.888   6.702   4.369  0.3768 -0.5953 -1.2367
18416TIP3   OH276662   3.399   1.868   3.773  0.0794 -0.3949 -0.0913
18416TIP3    H176663   3.339   1.886   3.846  1.4851 -0.4273  1.1371
18416TIP3    H276664   3.348   1.815   3.712 -0.6513 -1.9381  1.7405
18417TIP3   OH276665   4.406   6.042   3.114  0.3242 -0.2549  0.9087
18417TIP3    H176666   4.330   5.983   3.110  0.1530 -0.1395  2.2416
18417TIP3    H276667   4.481   5.984   3.102  0.0575 -0.1183 -2.8656
18418TIP3   OH276668   5.055   2.439   0.136  0.5815 -0.3297 -0.0654
18418TIP3    H176669   5.024   2.493   0.208 -1.1037 -0.8560 -0.3520
18418TIP3    H276670   4.981   2.435   0.075  1.6309 -0.6993 -1.3593
18419TIP3   OH276671   3.431   4.761   4.423  0.3317 -0.4860  0.0198
18419TIP3    H176672   3.457   4.812   4.346 -0.3384 -0.1555  0.0011
18419TIP3    H276673   3.439   4.822   4.496 -3.4973  0.7693 -0.3711
18420TIP3   OH276674   6.601   1.338  13.444  0.1672  0.5095 -0.4055
18420TIP3    H176675   6.562   1.313  13.528 -1.1550 -0.7126 -1.3346
18420TIP3    H276676   6.537   1.395  13.403  0.5068  0.5660 -0.8707
18421TIP3   OH276677   5.698   4.615   4.530 -0.4650  0.3388  0.1663
18421TIP3    H176678   5.739   4.530   4.545 -1.0028  0.2896  1.5276
18421TIP3    H276679   5.770   4.673   4.506  0.2117 -0.0643  1.1671
18422TIP3   OH276680   1.301   1.683   5.832 -0.0111 -0.0391  0.7302
18422TIP3    H176681   1.274   1.591   5.833  0.8473 -0.3003  0.5188
18422TIP3    H276682   1.267   1.718   5.914 -0.7515 -0.4190  0.5978
18423TIP3   OH276683   6.038   4.100  11.064  0.2363  0.8387 -0.1056
18423TIP3    H176684   6.121   4.143  11.084  0.6701  0.3243 -0.7655
18423TIP3    H276685   6.010   4.062  11.148  1.0922  0.2885 -0.0606
18424TIP3   OH276686   4.893   2.396  16.907  0.0744  0.0410  0.6157
18424TIP3    H176687   4.965   2.341  16.879 -0.2990 -0.6027  0.8981
18424TIP3    H276688   4.873   2.451  16.831  0.7117  0.0681  0.4690
18425TIP3   OH276689   5.188   3.971   4.034  0.4914 -0.2455  0.2440
18425TIP3    H176690   5.274   3.978   3.992  0.5103  1.4629  0.5233
18425TIP3    H276691   5.176   4.054   4.079 -1.0455 -0.7112  0.7519
18426TIP3   OH276692   5.119   5.566   1.795  0.0813  0.0350  0.1676
18426TIP3    H176693   5.200   5.546   1.748 -1.1502 -0.0185 -2.0400
18426TIP3    H276694   5.111   5.661   1.789 -0.4680 -0.0453 -0.4022
18427TIP3   OH276695   6.192   1.664   1.399  0.7109  0.3988  0.4030
18427TIP3    H176696   6.150   1.579   1.413 -1.6355  1.5207  0.6565
18427TIP3    H276697   6.120   1.724   1.380  2.3249  2.2764 -0.1760
18428TIP3   OH276698   2.039   1.017   6.305  0.6131  0.6189  0.7478
18428TIP3    H176699   1.960   1.070   6.297  0.4857  0.1591 -1.8496
18428TIP3    H276700   2.110   1.074   6.275  0.2752 -0.9196 -3.7409
18429TIP3   OH276701   3.385   4.888   3.068 -0.0099 -0.1000 -0.1552
18429TIP3    H176702   3.439   4.965   3.047  0.6076 -0.6488 -0.6006
18429TIP3    H276703   3.382   4.887   3.164 -2.2123  1.9783 -0.1055
18430TIP3   OH276704   2.518   0.728   5.988  0.7657  0.1461  0.2917
18430TIP3    H176705   2.548   0.813   5.956  0.0684  0.1912 -0.2739
18430TIP3    H276706   2.591   0.668   5.973  1.3182  0.6648  0.8262
18431TIP3   OH276707   4.783   0.348   1.407 -0.3123 -0.6772  0.1439
18431TIP3    H176708   4.691   0.323   1.423 -0.5372 -1.6400 -2.1669
18431TIP3    H276709   4.815   0.280   1.347  1.9778 -0.4323  1.0344
18432TIP3   OH276710   2.001   2.421   5.420 -0.4912 -0.2617  0.1982
18432TIP3    H176711   2.072   2.359   5.439 -1.4476 -1.2490  0.7051
18432TIP3    H276712   1.969   2.394   5.334 -0.1161  0.3262 -0.1305
18433TIP3   OH276713   5.107   6.175   0.252 -0.4660  0.2157  0.4266
18433TIP3    H176714   5.127   6.089   0.290  2.8050  1.2236  1.3467
18433TIP3    H276715   5.112   6.161   0.157  1.4931 -0.4212  0.5704
18434TIP3   OH276716   2.463   4.689  10.397 -0.5933 -0.3831 -0.5127
18434TIP3    H176717   2.420   4.726  10.320 -1.8106  2.0044  1.1433
18434TIP3    H276718   2.461   4.761  10.461  1.5452 -1.8152  1.3025
18435TIP3   OH276719   6.369   2.575  12.114  0.1290  0.0226  0.5387
18435TIP3    H176720   6.280   2.607  12.125  0.0616 -0.6197  2.1568
18435TIP3    H276721   6.400   2.559  12.203  2.0322  0.6709  0.0358
18436TIP3   OH276722   0.859   2.996  11.734  0.1267  0.0614 -0.0022
18436TIP3    H176723   0.785   2.964  11.682  0.0369 -0.7030  0.5798
18436TIP3    H276724   0.822   3.063  11.790 -0.1655 -0.4491  0.4170
18437TIP3   OH276725   5.882   5.220  13.841 -0.3687 -0.7742 -0.4210
18437TIP3    H176726   5.947   5.279  13.879 -0.6596 -1.1851  0.7732
18437TIP3    H276727   5.846   5.173  13.916 -3.0920  0.4327 -0.8508
18438TIP3   OH276728   4.015   5.678  11.457 -0.1353 -0.5019  0.3079
18438TIP3    H176729   4.066   5.603  11.425  0.1442 -0.4968  0.7310
18438TIP3    H276730   3.991   5.653  11.547 -0.4872 -0.3062  0.2687
18439TIP3   OH276731   2.627   2.597   6.130  0.3816  0.3355  0.2777
18439TIP3    H176732   2.618   2.691   6.148  1.3256  0.3929  0.5214
18439TIP3    H276733   2.674   2.563   6.206  1.5329 -0.0271 -0.5725
18440TIP3   OH276734   2.106   3.507  15.239  0.3052 -0.5257 -0.0471
18440TIP3    H176735   2.143   3.588  15.274 -2.9279  0.6105  1.1009
18440TIP3    H276736   2.081   3.528  15.150 -2.3542  0.5250  0.8528
18441TIP3   OH276737   4.226   5.170  12.821  0.1040  0.1404  0.1232
18441TIP3    H176738   4.318   5.173  12.849 -0.8774 -0.4608  3.9506
18441TIP3    H276739   4.211   5.078  12.799  0.4676  0.3103 -0.8966
18442TIP3   OH276740   4.815   3.272   3.347  0.1906 -0.4887 -0.0122
18442TIP3    H176741   4.848   3.230   3.427  1.0952  2.1714  1.1182
18442TIP3    H276742   4.892   3.277   3.290  1.6627  4.0886  1.9241
18443TIP3   OH276743   6.458   5.994   1.734  0.0045  0.0708 -0.2380
18443TIP3    H176744   6.453   5.950   1.650 -0.5494  1.1565 -0.7945
18443TIP3    H276745   6.530   6.057   1.725  0.1907 -0.0674  0.2274
18444TIP3   OH276746   6.424   1.462   2.272 -0.4265 -0.2490  0.4292
18444TIP3    H176747   6.399   1.402   2.202  0.4691 -1.1938  0.8966
18444TIP3    H276748   6.445   1.544   2.226  0.7121 -1.0147 -0.4981
18445TIP3   OH276749   5.140   1.364   0.682  0.7235 -0.2511  0.1670
18445TIP3    H176750   5.191   1.341   0.604 -1.5697 -0.1408 -1.4455
18445TIP3    H276751   5.101   1.448   0.662 -1.2619 -0.9961  0.7007
18446TIP3   OH276752   2.827   4.630   2.997 -0.2907 -0.2758  0.4092
18446TIP3    H176753   2.787   4.597   3.077 -0.4230 -1.6631 -0.1910
18446TIP3    H276754   2.921   4.623   3.012 -0.3165 -0.6127  0.4353
18447TIP3   OH276755   2.944   3.856  11.794 -0.2037  0.3405  0.2830
18447TIP3    H176756   3.002   3.802  11.739 -0.7155  0.4931 -0.4111
18447TIP3    H276757   2.903   3.794  11.853  0.4854  0.1960  0.6184
18448TIP3   OH276758   1.414   5.463   2.484 -0.0897 -0.2613  0.7586
18448TIP3    H176759   1.339   5.491   2.536 -1.4022 -1.4683 -0.4006
18448TIP3    H276760   1.430   5.372   2.510  0.5581 -0.2231  0.5285
18449TIP3   OH276761   3.408   2.806   1.165  0.0409  0.3297 -0.1396
18449TIP3    H176762   3.492   2.840   1.195  0.3989 -0.0551 -0.6780
18449TIP3    H276763   3.387   2.859   1.088  0.8674 -0.9771 -1.3105
18450TIP3   OH276764   2.143   3.776   5.283  0.2509 -0.6234 -0.3703
18450TIP3    H176765   2.194   3.696   5.274  2.3940  0.6093  0.0934
18450TIP3    H276766   2.094   3.765   5.364  1.2127 -1.1398  0.1631
18451TIP3   OH276767   3.814   5.051   3.211  0.1249  0.0278 -0.0344
18451TIP3    H176768   3.796   5.144   3.223  1.2487  0.0617  1.7620
18451TIP3    H276769   3.887   5.048   3.149  0.2475  0.3752  0.0888
18452TIP3   OH276770   2.077   5.360   4.103 -0.3347  0.6102 -0.0445
18452TIP3    H176771   2.120   5.445   4.101  0.6235  0.1368  0.1149
18452TIP3    H276772   2.075   5.336   4.195 -1.3107  0.8030 -0.0063
18453TIP3   OH276773   0.219   0.646   1.050  0.4638  0.0491 -0.4527
18453TIP3    H176774   0.190   0.699   1.125 -1.2576 -0.5869 -0.6281
18453TIP3    H276775   0.139   0.603   1.019  1.7112 -2.3855 -0.5420
18454TIP3   OH276776   6.576   3.381   5.968  0.4249 -0.5343 -0.1394
18454TIP3    H176777   6.613   3.397   6.055 -1.4719 -1.6092  0.9162
18454TIP3    H276778   6.513   3.311   5.981 -0.1665 -0.4699 -2.3356
18455TIP3   OH276779   1.210   6.027   3.360  0.0162  0.6406 -0.9530
18455TIP3    H176780   1.296   6.033   3.402  0.1976  0.3150 -1.2765
18455TIP3    H276781   1.148   6.035   3.432  0.3111 -2.5332 -0.1950
18456TIP3   OH276782   3.142   5.026   4.433  0.3393  0.4323  0.0240
18456TIP3    H176783   3.144   5.011   4.527 -1.1012 -0.0285  0.0063
18456TIP3    H276784   3.099   5.111   4.423 -0.0419  0.2105 -0.2366
18457TIP3   OH276785   4.079   0.248  11.044 -0.3004 -0.2074 -0.1342
18457TIP3    H176786   4.057   0.158  11.066 -0.0898 -0.4617 -0.9369
18457TIP3    H276787   4.043   0.300  11.116  0.5924 -1.0217  0.9280
18458TIP3   OH276788   5.370   3.281   5.014 -0.9026 -0.2080 -0.1797
18458TIP3    H176789   5.449   3.255   4.967 -1.4334 -1.2180 -0.5458
18458TIP3    H276790   5.366   3.222   5.089 -0.6496  0.6688  0.5420
18459TIP3   OH276791   2.286   6.634  12.129  0.1703  0.7163  0.1325
18459TIP3    H176792   2.280   6.606  12.037  2.9953  0.2792 -0.0101
18459TIP3    H276793   2.253   6.560  12.179  0.2258  0.2760 -0.4733
18460TIP3   OH276794   4.271   1.177   3.790  0.1041  0.1606  0.3102
18460TIP3    H176795   4.240   1.150   3.877 -0.8056 -0.2148 -0.1182
18460TIP3    H276796   4.290   1.271   3.800  0.6055 -0.0102  1.0691
18461TIP3   OH276797   3.723   5.768  11.982 -0.7895 -0.0004  0.0695
18461TIP3    H176798   3.781   5.838  12.013  0.1849 -0.3131 -0.9616
18461TIP3    H276799   3.713   5.710  12.057  0.6065 -0.1602  0.1699
18462TIP3   OH276800   4.419   2.664  15.556  0.7263  0.5016  0.2502
18462TIP3    H176801   4.383   2.752  15.558 -1.9750 -0.3647 -2.6449
18462TIP3    H276802   4.402   2.629  15.644 -2.9716  1.2158 -0.0366
18463TIP3   OH276803   4.801   2.063  11.741  0.3944 -0.2498 -0.2508
18463TIP3    H176804   4.840   2.035  11.824  1.2092 -1.6842 -1.0752
18463TIP3    H276805   4.814   2.158  11.739  0.0424 -0.1451  1.4019
18464TIP3   OH276806   6.065   1.428   3.744 -0.7353 -0.5417 -0.0397
18464TIP3    H176807   6.149   1.439   3.788 -1.3517 -0.8090  1.2496
18464TIP3    H276808   6.028   1.348   3.782 -2.2545  0.4051  0.5622
18465TIP3   OH276809   1.549   3.800  14.637  0.8796 -0.2609 -0.2998
18465TIP3    H176810   1.548   3.752  14.555  0.6866  1.8029 -1.5938
18465TIP3    H276811   1.465   3.778  14.678 -1.2471  2.1361 -2.9215
18466TIP3   OH276812   4.112   1.932   6.014  0.3405  0.0187 -0.4625
18466TIP3    H176813   4.186   1.943   5.954 -0.3425 -0.1206 -1.3646
18466TIP3    H276814   4.060   2.012   6.003  1.1580  0.8450  1.3611
18467TIP3   OH276815   5.971   6.246  11.566 -0.3144 -0.5498 -0.0568
18467TIP3    H176816   6.066   6.251  11.552 -0.4219 -0.7424 -0.9366
18467TIP3    H276817   5.938   6.199  11.489 -1.2666  0.6948 -0.4579
18468TIP3   OH276818   5.201   2.454  11.609 -0.2043  0.3138 -0.2124
18468TIP3    H176819   5.221   2.385  11.673 -0.8333 -0.0533 -0.4008
18468TIP3    H276820   5.284   2.500  11.597 -0.0614  0.3364  0.8040
18469TIP3   OH276821   0.476   6.591   2.132  0.1544  0.0500  0.3583
18469TIP3    H176822   0.515   6.676   2.151  0.1745  0.0852  0.1689
18469TIP3    H276823   0.438   6.562   2.215  0.6690 -0.0310  0.5657
18470TIP3   OH276824   1.763   0.246  12.006 -0.4141  0.3265  0.4813
18470TIP3    H176825   1.850   0.228  11.972 -1.3745 -0.5008 -1.6707
18470TIP3    H276826   1.767   0.220  12.098  0.7909 -2.5418 -0.2938
18471TIP3   OH276827   6.489   1.163   3.849 -0.3183  0.0919 -0.5270
18471TIP3    H176828   6.498   1.236   3.788  0.2227  0.6436  0.2043
18471TIP3    H276829   6.397   1.165   3.875 -0.3290  0.4530 -0.5907
18472TIP3   OH276830   2.784   3.072  15.779  0.1555 -0.3152  0.4657
18472TIP3    H176831   2.799   3.159  15.814  0.3500 -0.2578  0.2378
18472TIP3    H276832   2.823   3.073  15.692 -0.5709 -0.3693  0.1268
18473TIP3   OH276833   2.256   6.591  15.059  0.8521 -0.5741  0.0949
18473TIP3    H176834   2.282   6.681  15.080  0.9787 -0.8020  0.9601
18473TIP3    H276835   2.174   6.578  15.106 -0.0561 -0.3676 -1.3843
18474TIP3   OH276836   0.625   1.271  12.054  0.0400 -0.6612 -0.1216
18474TIP3    H176837   0.649   1.210  11.984 -1.3977 -1.7116  0.2579
18474TIP3    H276838   0.703   1.278  12.108  0.8795 -0.5534 -1.3091
18475TIP3   OH276839   1.613   6.421   2.390 -0.0545 -0.2707  0.5635
18475TIP3    H176840   1.591   6.422   2.296  0.4168  1.1176  0.4444
18475TIP3    H276841   1.655   6.506   2.405  0.2566 -0.6571  1.9497
18476TIP3   OH276842   0.275   4.082  13.335  0.4719 -0.5597  0.4106
18476TIP3    H176843   0.307   4.172  13.336  0.0190 -0.3978  0.8696
18476TIP3    H276844   0.310   4.043  13.415  0.4969 -0.7303  0.3169
18477TIP3   OH276845   6.446   5.176   1.600 -0.1417 -0.4850 -0.1371
18477TIP3    H176846   6.368   5.119   1.598 -0.1784 -0.4822  0.8089
18477TIP3    H276847   6.484   5.161   1.686  0.4528  0.1314 -0.2889
18478TIP3   OH276848   3.323   3.949  14.034 -0.2941 -0.0244  0.0551
18478TIP3    H176849   3.384   3.960  13.961 -0.0526  1.1978  0.4119
18478TIP3    H276850   3.372   3.897  14.098 -0.9743 -2.2687 -1.1488
18479TIP3   OH276851   1.201   2.220   4.185 -0.3858 -0.3009 -0.3582
18479TIP3    H176852   1.202   2.175   4.270 -0.1550  0.0399 -0.1765
18479TIP3    H276853   1.159   2.304   4.202 -2.1406 -0.9981 -1.0018
18480TIP3   OH276854   3.780   0.764   4.804  0.4961  0.9453 -0.2041
18480TIP3    H176855   3.704   0.722   4.846 -0.3594  2.8756  0.2898
18480TIP3    H276856   3.835   0.691   4.777 -1.3298 -0.5261 -0.1965
18481TIP3   OH276857   1.036   0.015  16.420  0.3927  0.1001 -0.0249
18481TIP3    H176858   1.083  -0.006  16.340  0.7052  3.1652 -0.7662
18481TIP3    H276859   1.032   0.111  16.422 -1.8346  0.0904  2.3394
18482TIP3   OH276860   0.651   5.314   1.929 -0.2781  0.2962 -0.0617
18482TIP3    H176861   0.609   5.328   2.014 -1.8814  1.0340 -0.9229
18482TIP3    H276862   0.740   5.288   1.950 -0.3076  1.5352  1.8317
18483TIP3   OH276863   5.047   2.959   2.617  0.2847  0.2191  0.1532
18483TIP3    H176864   4.979   2.994   2.559 -1.7301 -0.9301  1.6772
18483TIP3    H276865   5.067   2.873   2.582  0.6864  0.4060 -0.0794
18484TIP3   OH276866   1.474   1.397   1.458  0.1913  0.0647 -0.1583
18484TIP3    H176867   1.418   1.368   1.529 -0.3420  0.6627 -0.3209
18484TIP3    H276868   1.483   1.492   1.471  0.5330  0.0955 -0.5734
18485TIP3   OH276869   1.749   5.877   4.831 -0.2097 -0.6709 -0.0750
18485TIP3    H176870   1.820   5.813   4.826 -0.0409 -0.5125  0.2718
18485TIP3    H276871   1.752   5.922   4.747  1.5863  0.8947  0.7482
18486TIP3   OH276872   2.551   3.752   6.324 -0.0230  0.1775 -0.1070
18486TIP3    H176873   2.485   3.730   6.390  1.3232 -0.1022  1.1920
18486TIP3    H276874   2.627   3.781   6.375  1.9582 -2.3987 -1.3570
18487TIP3   OH276875   0.651   6.381  11.915  0.4316 -0.1101 -0.2606
18487TIP3    H176876   0.686   6.403  11.829 -0.9054  1.4641 -0.4501
18487TIP3    H276877   0.616   6.293  11.906  0.2348  0.0749 -1.3565
18488TIP3   OH276878   3.239   0.112   2.704  0.5639  0.8808 -0.5573
18488TIP3    H176879   3.302   0.169   2.747 -0.5660  0.2098  2.1918
18488TIP3    H276880   3.283   0.027   2.699  0.5079  0.8302 -0.2121
18489TIP3   OH276881   4.446   3.600  12.586  0.7305 -0.1842 -0.7244
18489TIP3    H176882   4.406   3.640  12.508 -0.4327  0.4660  0.1666
18489TIP3    H276883   4.433   3.506  12.575  1.2074 -0.1501 -1.6414
18490TIP3   OH276884   3.391   5.271   1.364 -0.1891 -0.7171  0.8757
18490TIP3    H176885   3.435   5.189   1.387 -0.1923 -0.2883  2.4856
18490TIP3    H276886   3.455   5.339   1.380  0.0003 -0.4077 -1.0018
18491TIP3   OH276887   3.021   5.447   1.941 -0.0572  0.2224 -0.1821
18491TIP3    H176888   3.103   5.471   1.899  0.0222 -0.3784 -0.3864
18491TIP3    H276889   3.046   5.417   2.028  0.0868 -1.0493 -0.6351
18492TIP3   OH276890   5.268   0.518  11.913  0.4410  0.4183  0.8017
18492TIP3    H176891   5.342   0.460  11.930 -0.3462 -0.8235  0.1221
18492TIP3    H276892   5.282   0.550  11.824 -0.5080 -0.9010  0.1468
18493TIP3   OH276893   5.018   6.242   3.348 -0.2650  0.9912 -0.0764
18493TIP3    H176894   4.988   6.257   3.438  0.2094  2.0236 -0.0725
18493TIP3    H276895   5.094   6.185   3.358  0.5060  2.0479  0.2955
18494TIP3   OH276896   0.770   4.041  16.056 -0.2222 -0.3336  0.1220
18494TIP3    H176897   0.851   3.991  16.071  0.5798  0.9290  0.1508
18494TIP3    H276898   0.789   4.127  16.092 -2.4229 -0.6503  2.2568
18495TIP3   OH276899   4.657   6.773  15.305 -0.1796 -0.6199 -0.2361
18495TIP3    H176900   4.641   6.818  15.388 -0.5608 -0.2000 -0.5287
18495TIP3    H276901   4.632   6.838  15.238  0.7601 -0.7058 -0.6837
18496TIP3   OH276902   2.650   4.883   3.551  0.2048 -0.2634  0.1250
18496TIP3    H176903   2.662   4.936   3.473  0.1853  1.0379  0.9825
18496TIP3    H276904   2.739   4.861   3.580  0.2096 -0.8994 -0.3403
18497TIP3   OH276905   6.373   2.907  16.969  0.1483  0.2055  0.0987
18497TIP3    H176906   6.311   2.850  16.924  0.3124  0.2274 -0.1620
18497TIP3    H276907   6.378   2.985  16.913  2.7304 -1.0214 -1.6055
18498TIP3   OH276908   1.377   2.054  12.770 -0.1054  0.0929 -0.2856
18498TIP3    H176909   1.352   1.981  12.827  0.4993  0.3261  0.2821
18498TIP3    H276910   1.457   2.024  12.727 -0.5582 -0.0815 -1.0197
18499TIP3   OH276911   1.978   3.626   1.262 -0.0330  0.9407 -0.0660
18499TIP3    H176912   2.017   3.565   1.199  0.0873  1.2734 -0.3202
18499TIP3    H276913   1.998   3.588   1.347  0.1836  0.7093 -0.2160
18500TIP3   OH276914   0.406   0.619  12.836 -0.2651 -0.2284 -0.3569
18500TIP3    H176915   0.420   0.524  12.842 -0.3833 -0.4018 -2.1938
18500TIP3    H276916   0.390   0.647  12.926  3.0272 -1.4121  0.7485
18501TIP3   OH276917   2.583   0.035   6.237 -0.2017  0.1493  0.2602
18501TIP3    H176918   2.533  -0.043   6.262  1.1612 -0.3371  1.6387
18501TIP3    H276919   2.518   0.106   6.237 -1.1746 -0.7127  0.4712
18502TIP3   OH276920   0.597   5.378   4.906 -0.3446 -0.1134  0.6868
18502TIP3    H176921   0.638   5.461   4.881 -1.8552  0.1053 -1.3521
18502TIP3    H276922   0.603   5.376   5.001  0.6381  1.8413  0.7267
18503TIP3   OH276923   6.420   2.596   4.642 -0.4589  0.6879  0.3517
18503TIP3    H176924   6.501   2.591   4.693  0.3647 -1.9138 -1.0409
18503TIP3    H276925   6.446   2.641   4.562 -0.2167 -0.5756 -0.3040
18504TIP3   OH276926   6.000   5.643  12.595  0.1856  0.3517 -0.5379
18504TIP3    H176927   6.002   5.684  12.681  1.6369 -0.5978 -0.0631
18504TIP3    H276928   5.966   5.555  12.611  1.2934 -0.1421 -0.7412
18505TIP3   OH276929   3.287   0.802  16.722  0.1473  0.7243  0.3168
18505TIP3    H176930   3.228   0.748  16.774 -1.5402  1.0712 -1.1350
18505TIP3    H276931   3.296   0.883  16.773  1.4026 -0.2513  1.7235
18506TIP3   OH276932   0.811   2.705  11.105 -0.2337  0.2094  0.1097
18506TIP3    H176933   0.767   2.626  11.135 -0.4191  0.9251  1.8183
18506TIP3    H276934   0.903   2.690  11.127  0.2771 -0.7754 -2.3626
18507TIP3   OH276935   2.718   2.309   3.184  0.1877 -0.0563 -0.0578
18507TIP3    H176936   2.769   2.337   3.108  0.9918 -2.5127 -0.5363
18507TIP3    H276937   2.689   2.220   3.161 -2.0207  0.2275  1.3410
18508TIP3   OH276938   6.311   4.097  11.081  0.2585 -0.1226 -0.6295
18508TIP3    H176939   6.384   4.081  11.141  1.1169 -0.3047 -1.6981
18508TIP3    H276940   6.319   4.190  11.058  0.1172 -0.1321 -0.7165
18509TIP3   OH276941   6.256   0.895  12.956 -0.8247 -0.0229  0.2050
18509TIP3    H176942   6.277   0.905  12.863  2.1941  1.9151  0.9308
18509TIP3    H276943   6.245   0.985  12.988  0.0061 -0.4980  2.0156
18510TIP3   OH276944   0.654   5.408   4.252 -0.3909 -0.3820 -0.3904
18510TIP3    H176945   0.692   5.485   4.295 -0.4546 -0.3030 -0.4758
18510TIP3    H276946   0.727   5.369   4.203 -0.2442 -0.6477  0.0374
18511TIP3   OH276947   5.237   2.143  12.685  0.0586 -0.0569  0.5730
18511TIP3    H176948   5.148   2.108  12.689  0.4852 -1.1317  1.1739
18511TIP3    H276949   5.245   2.178  12.596 -1.3413  1.1625  0.8875
18512TIP3   OH276950   4.879   6.166  16.608  0.2209  0.4690 -0.2633
18512TIP3    H176951   4.878   6.171  16.704 -2.3116  3.6067 -0.2920
18512TIP3    H276952   4.964   6.201  16.583  0.3443  0.9973  0.8263
18513TIP3   OH276953   6.535   1.127  11.621 -1.0072 -0.2333 -0.1733
18513TIP3    H176954   6.531   1.060  11.553 -0.3384 -0.0272 -0.4285
18513TIP3    H276955   6.504   1.083  11.700 -0.1633 -0.9852 -0.2412
18514TIP3   OH276956   6.816   4.114  13.203 -0.1336 -0.4867 -0.1450
18514TIP3    H176957   6.895   4.116  13.257  0.3950  0.3212 -0.9190
18514TIP3    H276958   6.755   4.173  13.247 -0.1653 -0.7908  0.2281
18515TIP3   OH276959   4.362   1.357  10.937  0.4696 -0.4870 -0.0731
18515TIP3    H176960   4.272   1.325  10.924 -0.4032  2.1052 -1.1351
18515TIP3    H276961   4.357   1.410  11.016  0.3474  1.7287 -1.4745
18516TIP3   OH276962   6.521   0.489  14.063  0.3083 -0.4725  0.4648
18516TIP3    H176963   6.615   0.473  14.061  0.0491 -2.2735 -1.8073
18516TIP3    H276964   6.485   0.425  14.001 -2.3301  0.7140  0.6565
18517TIP3   OH276965   5.199   1.052   2.765  0.5238  1.1745  0.0224
18517TIP3    H176966   5.267   0.984   2.762 -0.7131 -0.1052  0.0932
18517TIP3    H276967   5.120   1.008   2.732 -0.6115  2.2127  1.2662
18518TIP3   OH276968   0.936   5.429  16.589  0.2811 -0.1087  0.0335
18518TIP3    H176969   0.987   5.357  16.552  1.4006  0.7047 -0.0506
18518TIP3    H276970   0.859   5.436  16.531  1.1850  0.0870 -1.1855
18519TIP3   OH276971   5.743   5.674   2.091  0.1144 -0.1952  0.5502
18519TIP3    H176972   5.777   5.656   2.179  2.4020  0.0992 -0.2129
18519TIP3    H276973   5.763   5.767   2.076 -2.1760  0.3404  0.4840
18520TIP3   OH276974   2.611   1.981  13.715  0.0989 -0.1038  0.0897
18520TIP3    H176975   2.571   1.932  13.643 -0.0034  0.3990 -0.2065
18520TIP3    H276976   2.545   2.045  13.740  1.1443  1.6260 -1.2968
18521TIP3   OH276977   0.723   5.429  13.636  0.0964  0.6551  0.8153
18521TIP3    H176978   0.711   5.362  13.568  1.9955  1.6426 -0.6077
18521TIP3    H276979   0.792   5.394  13.692  1.2016  1.4045 -0.0186
18522TIP3   OH276980   5.511   6.601  11.051  0.7096 -0.2984 -0.3318
18522TIP3    H176981   5.428   6.617  11.095  0.0175 -2.4129 -0.7227
18522TIP3    H276982   5.487   6.583  10.960  1.1221 -3.9765  0.1231
18523TIP3   OH276983   4.361   3.773  14.663  0.2169  0.0951  0.1315
18523TIP3    H176984   4.276   3.803  14.630 -0.1744 -1.6954 -0.5687
18523TIP3    H276985   4.358   3.794  14.756 -1.5802 -1.1591  0.4063
18524TIP3   OH276986   5.291   3.622   6.081 -0.0175 -0.2502  0.3268
18524TIP3    H176987   5.218   3.602   6.139 -0.6193 -1.3557 -0.7605
18524TIP3    H276988   5.333   3.537   6.067 -0.7610 -0.2812 -1.9854
18525TIP3   OH276989   3.357   3.017  14.104 -0.5222 -0.0091  0.3077
18525TIP3    H176990   3.277   2.966  14.109 -0.0968 -0.6729  0.4929
18525TIP3    H276991   3.410   2.986  14.178  0.1579 -0.0191 -0.1752
18526TIP3   OH276992   0.062   5.221  11.674 -0.1535  0.2831  0.1876
18526TIP3    H176993  -0.025   5.260  11.664 -0.1995  0.3270  0.7148
18526TIP3    H276994   0.086   5.240  11.765  0.0036 -0.5579  0.3303
18527TIP3   OH276995   2.129   6.621   0.273  0.0786 -0.4291  0.0340
18527TIP3    H176996   2.139   6.632   0.367  0.6696 -1.3144  0.0830
18527TIP3    H276997   2.059   6.682   0.249  1.2635  1.2803  0.7123
18528TIP3   OH276998   2.845   4.842   1.304 -0.4634  0.0158  0.6235
18528TIP3    H176999   2.888   4.759   1.324  0.0118  0.2946  0.7676
18528TIP3    H277000   2.837   4.842   1.209 -0.5468 -0.2328  0.6289
18529TIP3   OH277001   2.923   3.940   4.152  0.0511  0.0614  0.6647
18529TIP3    H177002   2.893   3.999   4.083 -1.2880  0.6600  1.7079
18529TIP3    H277003   2.988   3.991   4.201  1.5745 -0.6232 -0.5358
18530TIP3   OH277004   4.085   2.438  13.310 -0.2203 -0.0860 -0.4063
18530TIP3    H177005   4.116   2.356  13.271 -0.2028 -0.3115  0.0789
18530TIP3    H277006   3.990   2.426  13.321 -0.1610 -0.1894  0.0145
18531TIP3   OH277007   1.802   5.586   0.871 -0.0794 -0.8792 -0.1163
18531TIP3    H177008   1.738   5.529   0.912 -1.0962 -1.0304 -1.8231
18531TIP3    H277009   1.750   5.650   0.823  1.0338 -0.6546 -1.0707
18532TIP3   OH277010   3.860   5.970   0.778 -0.1735  0.0856 -0.2727
18532TIP3    H177011   3.914   5.956   0.855 -0.3072  1.3268  0.0630
18532TIP3    H277012   3.795   6.035   0.805  0.2166  1.0876 -1.6324
18533TIP3   OH277013   0.138   0.694  12.391 -0.3141 -0.0730 -0.4899
18533TIP3    H177014   0.223   0.732  12.370 -0.4852  0.0484 -0.9697
18533TIP3    H277015   0.158   0.623  12.452  0.0858  0.2466 -0.2437
18534TIP3   OH277016   6.592   4.887  11.727 -0.3320  0.2589 -0.4148
18534TIP3    H177017   6.579   4.837  11.808  1.8091  0.6593  0.2396
18534TIP3    H277018   6.504   4.913  11.700 -1.2564 -1.5907  0.6774
18535TIP3   OH277019   3.941   2.753   0.571  0.2447 -0.3562 -0.0437
18535TIP3    H177020   3.856   2.788   0.543  2.1463  2.3088 -3.1483
18535TIP3    H277021   3.991   2.830   0.598  2.5758 -1.4592 -0.9585
18536TIP3   OH277022   2.735   2.658  11.980  0.1401  0.4445 -0.0739
18536TIP3    H177023   2.687   2.600  12.039  0.4320  0.3285  0.0544
18536TIP3    H277024   2.674   2.676  11.909 -0.5562  1.3205  0.7065
18537TIP3   OH277025   4.583   1.274  12.099 -0.1403  0.0252  0.7663
18537TIP3    H177026   4.500   1.320  12.091 -0.1719 -0.1845 -0.3957
18537TIP3    H277027   4.629   1.295  12.018  0.1902 -1.2903  0.5866
18538TIP3   OH277028   3.430   1.985   0.662  0.1689 -0.3657  0.0449
18538TIP3    H177029   3.391   1.905   0.628  0.0259  0.0934 -0.9172
18538TIP3    H277030   3.497   1.955   0.724 -0.3593 -1.1991  0.2283
18539TIP3   OH277031   2.348   4.097   2.720 -0.2545  0.2136 -0.3915
18539TIP3    H177032   2.388   4.090   2.633  0.9818 -0.9737  0.2256
18539TIP3    H277033   2.422   4.118   2.778 -1.0990  1.2175  0.3552
18540TIP3   OH277034   2.732   4.009   3.808  0.7747 -0.0916  0.0695
18540TIP3    H177035   2.775   4.090   3.833 -1.1281  1.1936 -0.5896
18540TIP3    H277036   2.705   3.969   3.891 -0.5714  1.3134  0.3465
18541TIP3   OH277037   6.648   2.579   3.367 -0.2955  0.2207  0.0312
18541TIP3    H177038   6.646   2.612   3.277 -1.1669 -0.0607 -0.0688
18541TIP3    H277039   6.667   2.486   3.358 -2.6427 -0.3287 -0.0753
18542TIP3   OH277040   3.650   5.803  16.893  0.0047  0.0898  0.2225
18542TIP3    H177041   3.599   5.870  16.938  0.1447  0.0398  0.4566
18542TIP3    H277042   3.740   5.836  16.893 -0.1608  0.5688 -0.9373
18543TIP3   OH277043   5.174   0.750   3.159  0.3420 -0.0665  0.0325
18543TIP3    H177044   5.265   0.728   3.178  0.7611  0.5883 -1.1211
18543TIP3    H277045   5.147   0.684   3.095 -0.3988 -0.9902  1.2480
18544TIP3   OH277046   2.325   4.115  15.485 -0.1155  0.0006  0.0200
18544TIP3    H177047   2.279   4.183  15.533 -0.7210  0.5813 -1.3382
18544TIP3    H277048   2.408   4.156  15.459 -0.5456  0.2862 -0.9288
18545TIP3   OH277049   0.494   6.313  16.230 -0.1314  0.4395 -0.1467
18545TIP3    H177050   0.494   6.332  16.136 -0.0513 -0.5605 -0.3580
18545TIP3    H277051   0.402   6.317  16.255 -0.3979 -1.4122 -0.7303
18546TIP3   OH277052   5.093   5.238   2.729 -0.3582 -0.4239 -0.7961
18546TIP3    H177053   5.041   5.267   2.654 -1.7061 -0.8727 -0.0697
18546TIP3    H277054   5.068   5.295   2.801  0.3282 -0.5069 -0.4765
18547TIP3   OH277055   0.262   6.265  16.742  0.7194 -0.0487  0.6951
18547TIP3    H177056   0.297   6.207  16.674  0.8995 -0.8017  1.4187
18547TIP3    H277057   0.183   6.302  16.703  0.9720 -0.2506 -0.0342
18548TIP3   OH277058   4.008   1.054  16.666  0.1863 -0.0410 -0.2257
18548TIP3    H177059   3.950   1.128  16.684  1.9557  1.9625 -2.1767
18548TIP3    H277060   3.949   0.984  16.636 -1.3975  1.0835  0.1078
18549TIP3   OH277061   5.758   4.686   2.935 -0.0006  0.0038 -0.1862
18549TIP3    H177062   5.713   4.706   3.017  0.6144  1.3312 -0.1497
18549TIP3    H277063   5.784   4.772   2.901  0.5270 -0.5954 -1.3273
18550TIP3   OH277064   4.668   0.743   0.170 -0.3433  0.2476 -0.5145
18550TIP3    H177065   4.699   0.794   0.245  1.9202  0.5176 -1.5580
18550TIP3    H277066   4.747   0.703   0.133 -1.7664 -2.2946 -1.0360
18551TIP3   OH277067   1.321   6.167   1.711 -0.0102 -0.1666 -0.2022
18551TIP3    H177068   1.293   6.087   1.666  0.8601 -0.4335 -0.2994
18551TIP3    H277069   1.408   6.184   1.676  0.0551  0.4907  0.2648
18552TIP3   OH277070   1.600   3.953  10.955 -0.4081  0.2596 -0.0400
18552TIP3    H177071   1.543   3.949  10.878 -0.1898 -0.3767 -0.1727
18552TIP3    H277072   1.688   3.954  10.919 -0.2040 -2.2834  0.2111
18553TIP3   OH277073   1.173   6.123   5.654  0.0496 -0.1994  0.6779
18553TIP3    H177074   1.257   6.121   5.609 -0.0230  0.9198  0.4761
18553TIP3    H277075   1.173   6.204   5.704 -1.4594  0.5565 -0.4470
18554TIP3   OH277076   5.057   5.331  14.903 -0.2917 -0.4673 -0.7357
18554TIP3    H177077   5.017   5.416  14.888 -1.3629 -0.2883  2.3732
18554TIP3    H277078   5.014   5.273  14.841 -1.6164  0.7464 -0.9957
18555TIP3   OH277079   6.654   5.294   4.242 -0.6358  0.3266 -0.0967
18555TIP3    H177080   6.714   5.257   4.178 -3.0695 -2.3835 -1.0111
18555TIP3    H277081   6.698   5.281   4.326  0.0624 -1.6313 -0.7150
18556TIP3   OH277082   4.365   2.933  12.214 -0.3086 -0.7260  0.5233
18556TIP3    H177083   4.400   2.952  12.301  1.0516  1.2064 -0.3831
18556TIP3    H277084   4.270   2.940  12.224 -0.1286  0.2813  1.6874
18557TIP3   OH277085   5.683   0.927   3.171  0.1970 -0.0605  0.5426
18557TIP3    H177086   5.627   0.852   3.152  0.7106 -0.4569  0.5888
18557TIP3    H277087   5.750   0.925   3.103 -0.3255  0.9108 -0.0244
18558TIP3   OH277088   3.968   1.598  11.498 -0.3724 -0.1651  0.1958
18558TIP3    H177089   3.983   1.503  11.496 -1.4653 -0.3758  0.9716
18558TIP3    H277090   3.936   1.615  11.587 -2.7813  0.4851 -0.7073
18559TIP3   OH277091   6.393   0.708   2.714 -0.1702  0.8652 -0.6761
18559TIP3    H177092   6.377   0.802   2.722 -2.0859  0.6158 -1.0423
18559TIP3    H277093   6.381   0.675   2.803  1.2755  1.0554 -0.4004
18560TIP3   OH277094   1.730   5.742  12.438 -0.0134  0.8542 -0.1795
18560TIP3    H177095   1.694   5.778  12.357 -0.9773  0.4567  0.0503
18560TIP3    H277096   1.703   5.804  12.506  2.5029  2.2665 -0.3743
18561TIP3   OH277097   2.485   4.356  15.282  0.3991 -0.8699 -0.1629
18561TIP3    H177098   2.407   4.369  15.336  1.0908 -1.6111  1.0640
18561TIP3    H277099   2.493   4.261  15.274  0.0043 -0.7820 -2.0867
18562TIP3   OH277100   6.252   2.541  15.945 -0.1891  0.2783  0.0638
18562TIP3    H177101   6.287   2.457  15.913  2.6201  2.4015 -3.1402
18562TIP3    H277102   6.288   2.549  16.033  1.2300 -1.0004 -0.3458
18563TIP3   OH277103   5.571   5.964   0.992 -0.1889 -0.0321  0.2037
18563TIP3    H177104   5.576   6.040   0.934 -1.2963 -0.4444 -0.4571
18563TIP3    H277105   5.605   5.891   0.941  1.6569  0.1348  1.1210
18564TIP3   OH277106   5.158   2.385  15.910  0.7153 -0.5616 -0.7574
18564TIP3    H177107   5.226   2.433  15.957  0.3644 -1.1796  0.4364
18564TIP3    H277108   5.163   2.296  15.945 -0.2753 -0.7815 -1.1200
18565TIP3   OH277109   3.006   4.038   5.775 -0.0140  0.2141  0.3159
18565TIP3    H177110   3.051   4.095   5.713  0.6014 -0.9312 -0.3080
18565TIP3    H277111   3.034   4.070   5.861  0.7966  0.4685 -0.0367
18566TIP3   OH277112   3.226   6.181  15.224  0.4541  0.0187  0.4977
18566TIP3    H177113   3.206   6.127  15.301  1.5096  0.6897  1.2687
18566TIP3    H277114   3.261   6.119  15.159  2.8224 -0.1479  1.8025
18567TIP3   OH277115   1.282   3.148  12.634 -0.4060  0.4233 -0.0369
18567TIP3    H177116   1.335   3.069  12.628  0.9524  1.3837 -1.8353
18567TIP3    H277117   1.192   3.119  12.619  0.0066 -0.8291 -0.1347
18568TIP3   OH277118   1.315   2.196   5.128 -0.0188  0.4379 -0.0310
18568TIP3    H177119   1.260   2.261   5.171 -0.7616  0.1924 -0.5777
18568TIP3    H277120   1.272   2.112   5.147  1.2392  0.0147  1.1549
18569TIP3   OH277121   2.027   5.160  12.666 -0.5329 -0.7933  0.2655
18569TIP3    H177122   2.094   5.160  12.734 -0.6400 -0.2836  0.3815
18569TIP3    H277123   2.074   5.144  12.585 -0.6833 -3.9022  0.6712
18570TIP3   OH277124   5.041   5.598   1.411  0.1501 -0.1826  0.0608
18570TIP3    H177125   5.071   5.676   1.456 -0.9938 -0.3956  1.2515
18570TIP3    H277126   5.013   5.539   1.481 -1.1217 -0.7682 -0.9039
18571TIP3   OH277127   6.579   4.771  11.998  0.4422 -0.6113  0.2298
18571TIP3    H177128   6.570   4.727  12.082  2.6055  1.0205  1.4399
18571TIP3    H277129   6.573   4.865  12.019  0.4586 -0.1799 -1.5152
18572TIP3   OH277130   1.274   5.669  10.094  0.2321  0.3716 -0.2117
18572TIP3    H177131   1.315   5.674  10.008 -1.0701 -0.6540 -0.9437
18572TIP3    H277132   1.206   5.736  10.093 -0.0315  0.1111 -0.1316
18573TIP3   OH277133   4.620   5.915  13.142  0.0889 -0.2539 -0.2262
18573TIP3    H177134   4.593   6.007  13.146 -1.5835 -0.7045 -0.0900
18573TIP3    H277135   4.550   5.872  13.093  0.8941 -1.4438 -0.3800
18574TIP3   OH277136   2.125   5.311   4.606 -0.3511  0.1965  0.0333
18574TIP3    H177137   2.118   5.316   4.702 -0.2483  0.8509  0.0116
18574TIP3    H277138   2.119   5.218   4.587  0.3507 -0.0089  0.7384
18575TIP3   OH277139   6.132   6.007  11.643  0.2554  0.2977 -0.4013
18575TIP3    H177140   6.212   6.023  11.692  0.7695 -0.9535 -0.7895
18575TIP3    H277141   6.146   6.052  11.559 -0.1883  1.5423  0.1700
18576TIP3   OH277142   3.167   3.670  13.809  0.3300 -0.1350  0.4807
18576TIP3    H177143   3.235   3.661  13.876 -0.2074 -0.3334  1.0023
18576TIP3    H277144   3.150   3.580  13.780  0.7409 -0.0298 -0.1134
18577TIP3   OH277145   1.492   0.560  15.598  0.5138  0.0398 -0.2434
18577TIP3    H177146   1.459   0.629  15.539  0.9893 -0.3745 -1.0146
18577TIP3    H277147   1.427   0.555  15.668  0.6853  1.5813  0.0689
18578TIP3   OH277148   2.177   6.463   0.774 -0.2995 -0.0541 -0.1865
18578TIP3    H177149   2.155   6.556   0.760 -0.1843 -0.1461 -1.0147
18578TIP3    H277150   2.256   6.449   0.723 -0.8259 -0.8362 -0.8133
18579TIP3   OH277151   5.763   3.045  12.238 -0.2786 -0.0863  0.1967
18579TIP3    H177152   5.843   3.069  12.286  0.1296  0.0726 -0.5488
18579TIP3    H277153   5.707   3.122  12.246  0.7634  0.9239 -1.6232
18580TIP3   OH277154   2.882   1.238   1.276  0.4541 -0.0383 -0.3419
18580TIP3    H177155   2.835   1.162   1.243 -0.8278  0.9705 -0.9571
18580TIP3    H277156   2.815   1.289   1.321  1.4163  0.4308  0.5840
18581TIP3   OH277157   5.739   5.193  14.104 -0.0272  0.0511 -0.3206
18581TIP3    H177158   5.788   5.241  14.171 -1.1153  1.0583 -0.2130
18581TIP3    H277159   5.678   5.258  14.068 -1.1144 -1.0881 -0.6103
18582TIP3   OH277160   2.213   0.023  15.711 -0.1397 -0.0382  0.0584
18582TIP3    H177161   2.297  -0.013  15.741 -0.5416 -0.3924  0.7921
18582TIP3    H277162   2.183   0.077  15.784 -1.1308 -0.9060  0.3167
18583TIP3   OH277163   2.749   5.062   4.923 -0.4070 -0.5321  0.4542
18583TIP3    H177164   2.786   5.145   4.954  0.3770 -0.6077 -0.2120
18583TIP3    H277165   2.738   5.009   5.002 -0.0157 -0.1343  0.7821
18584TIP3   OH277166   5.351   5.705   6.061 -0.0865 -0.1593 -0.4154
18584TIP3    H177167   5.290   5.678   6.129  0.7434 -1.0160  0.0023
18584TIP3    H277168   5.418   5.755   6.107 -0.6000  1.0601 -0.9192
18585TIP3   OH277169   5.482   5.615   2.234  0.4091  0.1048 -0.1117
18585TIP3    H177170   5.408   5.597   2.177  0.3728 -1.3521  0.3456
18585TIP3    H277171   5.535   5.678   2.186 -2.3232  3.1945  0.5745
18586TIP3   OH277172   1.075   3.844  15.664 -0.4618 -0.1288 -0.2129
18586TIP3    H177173   1.031   3.861  15.580  0.4982  1.4974 -0.4190
18586TIP3    H277174   1.033   3.764  15.696 -1.4544 -0.3176 -1.8268
18587TIP3   OH277175   1.953   5.771  10.636 -0.2713 -0.4809 -0.6181
18587TIP3    H177176   2.015   5.773  10.563  1.1051 -0.0850  0.5281
18587TIP3    H277177   1.981   5.843  10.693 -1.3073 -0.8063  0.3244
18588TIP3   OH277178   5.906   5.579  14.331 -0.2554 -0.6333  0.6555
18588TIP3    H177179   5.989   5.549  14.294 -0.9820 -1.2439 -0.5427
18588TIP3    H277180   5.931   5.627  14.410  1.2811 -0.1889 -0.0609
18589TIP3   OH277181   5.426   5.521  12.606  0.0267 -0.2636  0.1535
18589TIP3    H177182   5.392   5.602  12.645  0.5125  0.8236 -1.5469
18589TIP3    H277183   5.484   5.485  12.672 -0.2687  0.7345  0.9894
18590TIP3   OH277184   3.090   5.309   3.323  0.3564 -0.4729 -0.1358
18590TIP3    H177185   3.128   5.244   3.382 -0.8496 -1.4833 -0.4130
18590TIP3    H277186   3.108   5.274   3.235  0.0691 -0.2265 -0.2947
18591TIP3   OH277187   5.863   6.720   2.200  0.7258  0.7895 -0.2633
18591TIP3    H177188   5.929   6.766   2.253  0.8410  1.1753 -0.7387
18591TIP3    H277189   5.780   6.741   2.242  0.7630  1.5648 -0.5712
18592TIP3   OH277190   6.254   5.373  13.244  0.2312 -0.3201 -0.6057
18592TIP3    H177191   6.268   5.390  13.151 -0.1483  0.4431 -0.5373
18592TIP3    H277192   6.341   5.380  13.283  0.1924  0.8548 -0.6944
18593TIP3   OH277193   3.930   0.380  15.493  0.2397 -0.3232  0.3517
18593TIP3    H177194   3.952   0.304  15.548 -0.8836 -1.1903 -0.3529
18593TIP3    H277195   3.918   0.452  15.555 -0.1275 -1.0656  1.1587
18594TIP3   OH277196   0.933   4.166   4.137  0.1201 -0.1424  0.0370
18594TIP3    H177197   0.887   4.101   4.191  2.3222 -0.5237  1.5867
18594TIP3    H277198   0.896   4.154   4.050 -0.2805 -2.7934  0.4785
18595TIP3   OH277199   6.611   4.290  12.091  0.6123  0.2332 -0.5722
18595TIP3    H177200   6.572   4.373  12.067 -1.0896 -0.0596  0.9621
18595TIP3    H277201   6.553   4.224  12.054 -1.3968 -0.2180  2.9320
18596TIP3   OH277202   5.360   2.115   1.244  0.0687 -0.3853  0.6552
18596TIP3    H177203   5.388   2.064   1.319  0.2512 -0.6024  0.4387
18596TIP3    H277204   5.265   2.104   1.241  0.1398 -0.9407  0.4415
18597TIP3   OH277205   4.281   4.241  11.729 -0.1601 -0.2866  0.0568
18597TIP3    H177206   4.239   4.190  11.798 -0.4036  0.4604  0.4758
18597TIP3    H277207   4.362   4.273  11.768 -0.1567 -0.1017 -0.0969
18598TIP3   OH277208   0.510   2.970   2.033  0.5552 -0.1952  0.9235
18598TIP3    H177209   0.574   3.023   2.080  0.2822 -0.5335  1.6785
18598TIP3    H277210   0.540   2.973   1.942 -0.7022  3.1913  0.4613
18599TIP3   OH277211   6.627   2.191  13.611  0.1349 -0.2834 -0.0508
18599TIP3    H177212   6.650   2.203  13.703  0.2757  0.1360 -0.1377
18599TIP3    H277213   6.677   2.114  13.583 -1.3051 -1.5369  0.7075
18600TIP3   OH277214   3.510   5.617  13.181 -0.1069 -0.1531  0.4610
18600TIP3    H177215   3.466   5.562  13.116 -1.6677 -0.9861  2.1386
18600TIP3    H277216   3.472   5.704  13.168 -0.8693 -0.4496  0.6408
18601TIP3   OH277217   2.495   1.823   4.418  0.1724 -0.4856  0.0462
18601TIP3    H177218   2.430   1.894   4.415  1.1821  0.4568 -2.0589
18601TIP3    H277219   2.443   1.743   4.408 -0.8671  0.0329  1.0271
18602TIP3   OH277220   5.769   1.560   5.615 -0.4223  0.2664  0.7524
18602TIP3    H177221   5.813   1.481   5.584  2.3635  2.1452 -0.5441
18602TIP3    H277222   5.677   1.535   5.622 -0.0176 -2.4868 -1.6738
18603TIP3   OH277223   5.345   1.728  16.823  0.5465 -0.3576 -0.1450
18603TIP3    H177224   5.343   1.639  16.859 -3.9041  0.0986  1.3757
18603TIP3    H277225   5.298   1.721  16.740 -0.7717  0.6807  0.4843
18604TIP3   OH277226   1.731   4.237  16.106  0.1045 -0.4487  0.5027
18604TIP3    H177227   1.737   4.262  16.199  1.1697  0.6353  0.1732
18604TIP3    H277228   1.662   4.293  16.071 -0.1803 -0.7381  0.5944
18605TIP3   OH277229   4.363   0.533  13.679  0.3746 -0.0114  0.1523
18605TIP3    H177230   4.320   0.546  13.764 -1.0884  0.4074 -0.6382
18605TIP3    H277231   4.385   0.622  13.649 -2.3356  0.2004 -1.5074
18606TIP3   OH277232   6.455   4.239  11.864 -0.5215 -0.3329  0.4038
18606TIP3    H177233   6.527   4.270  11.809 -1.2715  1.0972  0.1621
18606TIP3    H277234   6.451   4.145  11.848 -0.0450 -0.1198 -1.1727
18607TIP3   OH277235   3.517   6.500   0.494  0.5259  0.2184  0.0825
18607TIP3    H177236   3.547   6.424   0.545  1.0967  1.2670  1.3741
18607TIP3    H277237   3.582   6.568   0.511 -1.0498  1.6613  0.6490
18608TIP3   OH277238   4.908   2.364   3.297  0.1092  0.3810 -0.4759
18608TIP3    H177239   4.924   2.376   3.391 -1.3405 -0.8481 -0.0330
18608TIP3    H277240   4.926   2.450   3.259 -0.2882  1.1942  1.0803
18609TIP3   OH277241   0.741   1.135  13.889 -0.2066 -0.1902  0.3432
18609TIP3    H177242   0.673   1.194  13.920 -1.6974 -1.8571  0.3643
18609TIP3    H277243   0.759   1.164  13.799 -0.5336  0.6025  0.5234
18610TIP3   OH277244   5.941   1.161   0.143  0.2729  0.3746 -0.8435
18610TIP3    H177245   5.904   1.085   0.187  0.0177 -0.1137 -1.8776
18610TIP3    H277246   6.036   1.150   0.152  0.2445 -0.2056 -1.2025
18611TIP3   OH277247   1.617   4.849  13.676  0.4343 -0.2597  0.1382
18611TIP3    H177248   1.552   4.780  13.673 -0.8925  0.9750 -0.6215
18611TIP3    H277249   1.675   4.830  13.602  0.2757 -0.7442  0.1377
18612TIP3   OH277250   4.212   3.876   0.713  0.0576  0.4942 -0.3684
18612TIP3    H177251   4.133   3.838   0.752  1.7314 -1.6284  1.2368
18612TIP3    H277252   4.258   3.916   0.788  2.2930 -1.7274 -0.4098
18613TIP3   OH277253   3.730   4.874   0.227  0.8671 -0.0266 -0.4142
18613TIP3    H177254   3.660   4.886   0.163  0.1172 -0.6604  0.2691
18613TIP3    H277255   3.788   4.808   0.187  0.3225 -0.5312 -0.3859
18614TIP3   OH277256   5.095   0.577   4.645 -0.0498  0.5748 -0.0166
18614TIP3    H177257   5.181   0.540   4.624 -0.2409  0.1341 -0.0298
18614TIP3    H277258   5.056   0.597   4.560 -1.9835 -3.7932 -0.4250
18615TIP3   OH277259   3.429   3.062   3.880  0.3424 -0.3204 -0.5861
18615TIP3    H177260   3.477   2.990   3.837  1.2819  0.7132 -1.3196
18615TIP3    H277261   3.352   3.075   3.825  0.3013 -0.6044 -0.5962
18616TIP3   OH277262   2.742   5.035  13.849  0.1242  0.2932 -0.0942
18616TIP3    H177263   2.737   5.059  13.757 -1.7114  2.6850  0.5047
18616TIP3    H277264   2.752   5.118  13.895 -0.6657 -0.6628  1.9475
18617TIP3   OH277265   0.040   6.408  14.019  0.4409  0.3059 -0.1078
18617TIP3    H177266  -0.025   6.475  14.001 -0.1894 -0.1299  0.4852
18617TIP3    H277267   0.076   6.385  13.933 -0.9183 -0.1784 -0.5708
18618TIP3   OH277268   0.166   6.179   3.687  0.1324  0.2586 -0.3159
18618TIP3    H177269   0.167   6.231   3.607  0.0732  1.1720  0.2579
18618TIP3    H277270   0.221   6.228   3.748 -2.4125  1.4043  1.2648
18619TIP3   OH277271   1.880   1.180   1.048 -0.4493  0.6268 -0.0746
18619TIP3    H177272   1.875   1.258   0.993  0.1324 -0.7707 -2.2324
18619TIP3    H277273   1.839   1.111   0.996  2.9022 -1.4926 -0.2226
18620TIP3   OH277274   2.385   4.945  16.461  0.5207 -0.3338 -0.0254
18620TIP3    H177275   2.379   4.862  16.413  0.8191 -0.2142 -0.2741
18620TIP3    H277276   2.434   5.003  16.402 -1.0193  0.5144 -0.5363
18621TIP3   OH277277   0.706   6.117  14.044 -0.2051  1.1910  0.1269
18621TIP3    H177278   0.736   6.034  14.008 -0.5724  1.4819 -0.8907
18621TIP3    H277279   0.783   6.155  14.085 -0.0874  0.2576  0.7827
18622TIP3   OH277280   4.856   1.547  11.903 -0.7776 -0.1771  0.3867
18622TIP3    H177281   4.893   1.595  11.829  2.4309 -0.6041  1.5712
18622TIP3    H277282   4.786   1.604  11.936  1.3336  2.6638  0.3190
18623TIP3   OH277283   5.822   3.981  13.711  0.2166 -0.5434  0.8231
18623TIP3    H177284   5.807   3.922  13.785  0.3540 -0.5355  0.8583
18623TIP3    H277285   5.875   4.053  13.747 -0.7255  0.0817  1.0021
18624TIP3   OH277286   4.962   3.581  10.682  0.3141  0.1518  0.5389
18624TIP3    H177287   4.999   3.668  10.671  0.4696 -0.2182 -4.7020
18624TIP3    H277288   4.873   3.589  10.647  0.0903 -1.5977  0.6089
18625TIP3   OH277289   2.097   1.006  14.799 -0.2854 -0.1204 -0.0261
18625TIP3    H177290   2.064   0.945  14.866 -0.7834  1.4099  1.1820
18625TIP3    H277291   2.024   1.016  14.738 -0.1798 -0.7655 -0.2694
18626TIP3   OH277292   2.702   0.411  12.015 -0.1215 -0.6533  0.2967
18626TIP3    H177293   2.675   0.325  12.046 -0.2702 -0.3152  1.1385
18626TIP3    H277294   2.793   0.400  11.988 -0.5166 -1.3680 -0.8070
18627TIP3   OH277295   1.271   6.457   4.637 -0.3090 -0.1322  0.0966
18627TIP3    H177296   1.221   6.470   4.717 -1.4058  1.5101 -0.7969
18627TIP3    H277297   1.347   6.515   4.647 -0.3059 -0.1326  0.0754
18628TIP3   OH277298   0.562   6.154   1.891 -0.2082 -0.5037  0.5750
18628TIP3    H177299   0.642   6.110   1.861 -0.6053 -0.2171 -1.0251
18628TIP3    H277300   0.574   6.164   1.985  1.5014 -0.7517  0.4235
18629TIP3   OH277301   1.473   2.157   3.231  0.5936 -0.5691 -0.4970
18629TIP3    H177302   1.516   2.083   3.274  1.1860  1.1110  2.0350
18629TIP3    H277303   1.383   2.157   3.266  0.5777 -0.1541 -0.5227
18630TIP3   OH277304   3.870   2.779   5.906  0.8436 -0.4389 -1.0033
18630TIP3    H177305   3.835   2.730   5.832  2.0790 -1.0043 -1.2395
18630TIP3    H277306   3.816   2.858   5.911  0.2361 -0.7823 -2.0058
18631TIP3   OH277307   6.128   1.102   3.308 -0.3370 -0.1212  0.4686
18631TIP3    H177308   6.142   1.182   3.359 -1.9201  0.3380  0.2527
18631TIP3    H277309   6.060   1.055   3.357 -0.3322 -0.6998 -0.0812
18632TIP3   OH277310   3.869   5.174   5.517  0.0373 -0.5099 -0.7010
18632TIP3    H177311   3.963   5.193   5.518 -0.3652  1.6351 -0.0100
18632TIP3    H277312   3.863   5.085   5.552  1.5831  0.5149  2.5353
18633TIP3   OH277313   4.522   3.193  14.262  0.5473 -0.6071 -0.7615
18633TIP3    H177314   4.596   3.136  14.244  0.3829 -0.9468 -0.3667
18633TIP3    H277315   4.559   3.282  14.262  0.7344 -0.6736 -1.7685
18634TIP3   OH277316   5.542   2.729   4.099  0.5413 -0.4494 -1.1409
18634TIP3    H177317   5.533   2.668   4.173  0.3053 -1.9795 -2.3819
18634TIP3    H277318   5.619   2.698   4.052 -1.4680 -2.0120 -3.7069
18635TIP3   OH277319   6.470   3.080   1.162  0.4494  0.4336 -0.2662
18635TIP3    H177320   6.391   3.036   1.194  1.8381 -0.1860  2.6714
18635TIP3    H277321   6.462   3.170   1.195  1.1630  0.2320  0.4877
18636TIP3   OH277322   5.590   5.408  12.785  0.0477  0.1300  0.2505
18636TIP3    H177323   5.655   5.398  12.717 -0.2789 -0.0978 -0.0320
18636TIP3    H277324   5.640   5.425  12.865  0.4403  0.1166  0.0048
18637TIP3   OH277325   6.090   1.894   5.481  0.9142  0.2305  0.0337
18637TIP3    H177326   6.030   1.937   5.420  0.3246 -0.4878  0.0946
18637TIP3    H277327   6.078   1.941   5.563  0.5696  0.2186 -0.0068
18638TIP3   OH277328   4.864   3.153  15.597 -0.1064  0.1121 -0.0969
18638TIP3    H177329   4.893   3.070  15.559 -0.3464 -0.0335  0.0401
18638TIP3    H277330   4.830   3.202  15.523  0.5562  0.3190 -0.2789
18639TIP3   OH277331   2.768   3.208   2.199 -0.4147 -0.3834  0.1165
18639TIP3    H177332   2.712   3.285   2.185 -1.8202 -1.2740  0.5981
18639TIP3    H277333   2.744   3.177   2.287  1.3021 -0.4558  0.5951
18640TIP3   OH277334   2.907   3.789   5.670 -0.2085 -0.2437  0.7569
18640TIP3    H177335   2.935   3.879   5.680 -0.8834 -0.0663  1.1267
18640TIP3    H277336   2.927   3.747   5.753 -0.6746 -0.2138  0.8861
18641TIP3   OH277337   3.439   3.109   6.257 -0.2190 -0.6223 -0.5792
18641TIP3    H177338   3.408   3.048   6.189  0.6414 -0.8699 -0.7606
18641TIP3    H277339   3.402   3.075   6.338 -1.1181 -0.4217 -0.8911
18642TIP3   OH277340   4.129   5.988  13.523  0.2085  0.0668  0.1702
18642TIP3    H177341   4.063   6.053  13.498  0.7564  0.5896  0.0857
18642TIP3    H277342   4.080   5.924  13.575 -0.1918  0.9139  0.8513
18643TIP3   OH277343   4.789   6.472  12.925  0.1517  0.0254  0.3778
18643TIP3    H177344   4.767   6.488  12.833  0.1124  2.8548  0.7694
18643TIP3    H277345   4.883   6.451  12.923  0.4327  1.1855 -0.2789
18644TIP3   OH277346   0.365   4.855   4.339  0.2655  0.2311  0.4046
18644TIP3    H177347   0.380   4.796   4.413  1.0149  0.6604  0.6010
18644TIP3    H277348   0.381   4.942   4.374 -0.2441  0.5066 -0.0388
18645TIP3   OH277349   1.551   4.394  11.758 -0.2564 -0.0639 -0.1155
18645TIP3    H177350   1.514   4.375  11.844 -2.2625 -0.6296 -1.0237
18645TIP3    H277351   1.474   4.398  11.700  0.9727  0.9160 -1.7699
18646TIP3   OH277352   2.757   6.500  16.513 -0.1006 -0.3016 -0.2255
18646TIP3    H177353   2.736   6.457  16.431  1.0471 -1.8018  0.2161
18646TIP3    H277354   2.674   6.535  16.545 -0.5963  0.0778 -1.8663
18647TIP3   OH277355   5.389   4.127   4.708  0.0756 -0.2386  0.4497
18647TIP3    H177356   5.389   4.176   4.790 -2.2433 -0.1709  0.4556
18647TIP3    H277357   5.366   4.037   4.734  0.6468 -0.5177  0.0086
18648TIP3   OH277358   4.349   4.741  13.530  0.6176 -0.5513 -0.1449
18648TIP3    H177359   4.338   4.796  13.453 -1.5883 -2.6885 -1.5089
18648TIP3    H277360   4.310   4.791  13.601 -1.1918 -0.2221 -1.3141
18649TIP3   OH277361   4.853   0.327  10.924 -0.0370  0.3652  0.4344
18649TIP3    H177362   4.777   0.276  10.895  1.4114 -2.2651  0.9819
18649TIP3    H277363   4.833   0.417  10.896 -2.4221 -0.5670 -1.2266
18650TIP3   OH277364   5.140   2.453   1.964  0.1444 -0.2443  0.0355
18650TIP3    H177365   5.223   2.496   1.946 -0.9313  1.0315 -2.4006
18650TIP3    H277366   5.140   2.375   1.909  0.6858 -1.6721  1.9265
18651TIP3   OH277367   2.820   5.701  13.868 -0.9019 -0.4920 -0.3704
18651TIP3    H177368   2.767   5.740  13.798  0.9487 -0.5325 -1.8822
18651TIP3    H277369   2.832   5.610  13.842 -2.0085 -1.1058  1.1700
18652TIP3   OH277370   1.352   4.215  10.230  1.1053 -0.0145  0.0011
18652TIP3    H177371   1.330   4.139  10.283  1.0029  0.0618  0.0697
18652TIP3    H277372   1.276   4.272  10.238  0.8868 -0.2042 -0.5966
18653TIP3   OH277373   6.464   0.638   5.136 -0.5021 -0.2214 -0.4238
18653TIP3    H177374   6.554   0.649   5.169 -0.4827  2.6979 -1.1414
18653TIP3    H277375   6.409   0.668   5.208 -0.6329  2.1529 -1.4158
18654TIP3   OH277376   1.987   3.215   4.864  0.6794  0.1405  0.2272
18654TIP3    H177377   2.078   3.237   4.884  1.3491  0.1465 -2.4620
18654TIP3    H277378   1.941   3.298   4.869  1.4097  0.6560 -1.0896
18655TIP3   OH277379   2.697   5.046  16.890  0.5002  0.0211  0.5014
18655TIP3    H177380   2.701   4.977  16.956  3.0613 -2.9614 -2.4358
18655TIP3    H277381   2.630   5.017  16.828  0.7144  0.8505 -0.1381
18656TIP3   OH277382   6.105   6.456  12.940 -0.1276 -0.2020 -0.3644
18656TIP3    H177383   6.144   6.397  13.005 -0.4356  0.2043  0.1940
18656TIP3    H277384   6.169   6.459  12.869  0.3286 -0.4505  0.0306
18657TIP3   OH277385   0.925   4.242   0.916  0.3565 -0.1364  0.4296
18657TIP3    H177386   0.893   4.249   1.006  0.2310 -0.4899  0.4127
18657TIP3    H277387   1.007   4.193   0.923  2.0062  2.4571  0.7226
18658TIP3   OH277388   2.596   6.201  13.445 -0.1479 -0.2115  0.2109
18658TIP3    H177389   2.596   6.292  13.474  0.8053 -0.0937 -0.1087
18658TIP3    H277390   2.510   6.188  13.407 -0.5173  0.3674  0.8282
18659TIP3   OH277391   2.461   0.318  15.229  0.0004  0.0819 -0.5216
18659TIP3    H177392   2.437   0.246  15.171  0.1523 -0.1485 -0.2997
18659TIP3    H277393   2.441   0.285  15.317 -1.6568  0.9630 -0.5197
18660TIP3   OH277394   1.752   2.807   3.886 -0.1469 -0.2673 -0.4240
18660TIP3    H177395   1.729   2.825   3.795  1.4829  0.0111 -0.8054
18660TIP3    H277396   1.809   2.880   3.911 -0.8668 -0.1434  0.9474
18661TIP3   OH277397   3.301   1.726   4.613 -0.5161  0.2637 -0.0897
18661TIP3    H177398   3.319   1.768   4.529 -0.9788 -0.2644 -0.4609
18661TIP3    H277399   3.212   1.751   4.634 -0.0933  1.1419  0.7055
18662TIP3   OH277400   2.012   4.877   2.795 -0.1248  0.3580 -0.0330
18662TIP3    H177401   2.071   4.916   2.859 -1.3029  1.6440  0.3073
18662TIP3    H277402   2.058   4.888   2.711  0.9810 -0.4590  0.4318
18663TIP3   OH277403   2.714   0.976  16.771 -0.2444 -0.1316 -0.1535
18663TIP3    H177404   2.693   1.020  16.689  1.1650 -0.2511 -0.6059
18663TIP3    H277405   2.810   0.970  16.772 -0.3318 -2.2414  0.3949
18664TIP3   OH277406   3.214   6.616   1.517 -0.1677 -0.2509  0.5985
18664TIP3    H177407   3.221   6.540   1.574  0.0869  1.5696  3.1585
18664TIP3    H277408   3.302   6.627   1.481  0.3760  0.0815  1.9754
18665TIP3   OH277409   2.296   0.835   0.372  0.7473  0.0419 -0.2464
18665TIP3    H177410   2.320   0.757   0.422 -1.5267 -0.2717  0.4882
18665TIP3    H277411   2.304   0.907   0.435 -1.5712 -0.2804  0.5364
18666TIP3   OH277412   3.050   1.651  11.032 -0.0054 -0.6192 -0.7107
18666TIP3    H177413   2.962   1.653  11.068  0.5822 -0.9776  0.8029
18666TIP3    H277414   3.097   1.721  11.076  0.8987 -1.4552 -0.3013
18667TIP3   OH277415   0.229   2.186  16.094  0.2510 -0.3561 -0.2050
18667TIP3    H177416   0.259   2.144  16.174  1.3891 -0.1563 -0.5172
18667TIP3    H277417   0.133   2.189  16.103  0.3682 -0.2946  1.1578
18668TIP3   OH277418   5.749   0.631   1.796  0.1533 -0.4876  0.9481
18668TIP3    H177419   5.762   0.536   1.799  2.7275 -0.2234  0.5478
18668TIP3    H277420   5.753   0.658   1.888 -1.1276 -0.7854  1.1112
18669TIP3   OH277421   1.434   1.482  15.130  0.4041  0.1791  0.2761
18669TIP3    H177422   1.354   1.490  15.182 -0.3576  0.5451 -0.9234
18669TIP3    H277423   1.432   1.556  15.070 -0.0430 -1.5368 -1.9856
18670TIP3   OH277424   4.640   6.645   1.786 -0.5595 -0.5270  0.0144
18670TIP3    H177425   4.718   6.697   1.810 -1.1447  1.3979 -1.9579
18670TIP3    H277426   4.569   6.685   1.837 -0.5251 -1.4095  0.7840
18671TIP3   OH277427   1.183   3.905   3.729 -0.0528 -0.1321 -0.7058
18671TIP3    H177428   1.189   3.998   3.707  0.6519 -0.6059 -2.7096
18671TIP3    H277429   1.179   3.860   3.644  2.6969 -2.1294  0.0671
18672TIP3   OH277430   2.114   1.563   2.931  1.0648 -0.5338 -0.1739
18672TIP3    H177431   2.023   1.576   2.904  1.3022 -2.0280 -1.8916
18672TIP3    H277432   2.142   1.649   2.961 -0.7755  0.0613 -0.0423
18673TIP3   OH277433   0.904   5.475   1.158  0.4378  0.0589  0.1018
18673TIP3    H177434   0.811   5.499   1.156  0.1361 -0.7465  2.0775
18673TIP3    H277435   0.923   5.462   1.251  1.3260 -4.3275 -0.5025
18674TIP3   OH277436   1.603   6.569  15.559  0.4227 -0.0812  0.1668
18674TIP3    H177437   1.562   6.496  15.514 -0.1396  0.1807  0.2470
18674TIP3    H277438   1.674   6.530  15.610  1.5701 -0.2854 -1.5261
18675TIP3   OH277439   4.769   1.310   6.059 -0.4857  0.8357 -0.5338
18675TIP3    H177440   4.786   1.394   6.102  1.5858  0.2093  0.0130
18675TIP3    H277441   4.677   1.314   6.033 -1.2780  2.0922  2.1053
18676TIP3   OH277442   1.081   3.414   6.330 -0.4137  0.4213  0.2627
18676TIP3    H177443   1.007   3.475   6.342 -0.4796  0.0312  2.0094
18676TIP3    H277444   1.159   3.468   6.344 -0.3607  0.6646 -0.8448
18677TIP3   OH277445   3.994   5.242  16.563 -0.6603  0.3115 -0.1806
18677TIP3    H177446   3.917   5.294  16.540 -1.6746 -0.1646  1.8936
18677TIP3    H277447   4.044   5.298  16.623 -0.5699 -0.2356  0.2641
18678TIP3   OH277448   3.781   4.692  16.303 -0.8013  0.0511  0.2074
18678TIP3    H177449   3.686   4.701  16.310 -0.9063  0.9988 -1.7912
18678TIP3    H277450   3.793   4.629  16.232  0.1035 -1.3014  1.4950
18679TIP3   OH277451   1.699   6.802  10.642 -0.0903  0.5138 -0.7041
18679TIP3    H177452   1.699   6.728  10.580  3.5355 -0.0946 -0.1718
18679TIP3    H277453   1.744   6.768  10.719 -0.3126  2.6704  0.4297
18680TIP3   OH277454   6.752   0.235  12.409  0.0923 -0.4096  0.1311
18680TIP3    H177455   6.776   0.197  12.325  1.6641 -0.7303  0.6859
18680TIP3    H277456   6.711   0.319  12.387  3.9940  1.4631 -0.9821
18681TIP3   OH277457   5.231   4.854  15.034 -0.0845 -0.0161  0.0838
18681TIP3    H177458   5.266   4.807  15.110  2.5272 -0.3467 -1.1934
18681TIP3    H277459   5.273   4.940  15.037  0.3443 -0.1584 -1.1447
18682TIP3   OH277460   3.775   3.452  14.603  0.5696  0.4638 -0.1602
18682TIP3    H177461   3.778   3.356  14.606 -0.8172  0.4071 -0.1819
18682TIP3    H277462   3.820   3.479  14.683  1.2614 -0.1902 -0.3133
18683TIP3   OH277463   2.268   1.588  13.118 -0.0635 -0.6769 -0.0618
18683TIP3    H177464   2.222   1.626  13.043 -2.1134  0.9409  1.8698
18683TIP3    H277465   2.355   1.628  13.115 -0.2311 -0.3396 -1.3243
18684TIP3   OH277466   0.267   3.475  10.822  0.2238  0.1249 -0.2705
18684TIP3    H177467   0.218   3.401  10.859  0.5665 -0.3015 -0.6547
18684TIP3    H277468   0.355   3.440  10.807  0.4176  0.6467 -0.3543
18685TIP3   OH277469   6.535   4.598   6.266 -0.4023 -1.1423  0.2043
18685TIP3    H177470   6.572   4.639   6.344 -0.5193 -0.2816 -0.1770
18685TIP3    H277471   6.441   4.596   6.283 -0.4937 -0.3818 -0.1617
18686TIP3   OH277472   4.359   1.535  11.153  0.0915 -0.4311  0.0426
18686TIP3    H177473   4.419   1.606  11.174  0.7319 -0.3264 -1.9527
18686TIP3    H277474   4.276   1.578  11.133 -0.1707 -0.4501  0.9987
18687TIP3   OH277475   1.588   0.191   5.011  0.0528 -0.4328  0.2917
18687TIP3    H177476   1.568   0.103   5.042  1.6077 -0.4921  1.2349
18687TIP3    H277477   1.683   0.191   4.997  0.2023  1.2826  0.9784
18688TIP3   OH277478   0.520   0.532   4.867  0.6594  0.4437  0.1447
18688TIP3    H177479   0.546   0.624   4.874  2.1063 -0.0371  1.7249
18688TIP3    H277480   0.506   0.504   4.957 -0.2013 -0.7930 -0.3413
18689TIP3   OH277481   0.749   4.880  13.713  0.0300  0.8274  0.0319
18689TIP3    H177482   0.810   4.953  13.708  0.1487  0.6545 -1.5133
18689TIP3    H277483   0.724   4.876  13.805  2.8890  0.4696  0.8961
18690TIP3   OH277484   5.503   1.990   4.967  0.7019 -0.0494 -0.4806
18690TIP3    H177485   5.504   2.020   4.876  1.8645  3.5694  0.5329
18690TIP3    H277486   5.438   2.046   5.010  1.1815 -0.6916  1.1670
18691TIP3   OH277487   3.411   0.870  14.174 -0.5305  0.1177 -0.7830
18691TIP3    H177488   3.472   0.892  14.103 -0.6564 -0.6878 -1.1500
18691TIP3    H277489   3.354   0.804  14.136 -1.0783  0.2302 -0.1582
18692TIP3   OH277490   3.130   4.319   4.520 -0.4216  0.7852 -0.7104
18692TIP3    H177491   3.104   4.350   4.607 -2.2896  0.2664 -1.0448
18692TIP3    H277492   3.198   4.381   4.492  0.2735  0.9115  1.1291
18693TIP3   OH277493   1.552   5.081  13.974  0.4624  0.0338  0.2825
18693TIP3    H177494   1.546   5.129  13.892  1.2000  1.0475  0.7923
18693TIP3    H277495   1.641   5.098  14.005 -0.1786  0.6814  1.8822
18694TIP3   OH277496   0.812   3.292  14.360  0.8840 -0.3813  0.2165
18694TIP3    H177497   0.902   3.271  14.337  0.7838 -0.7008  0.1052
18694TIP3    H277498   0.792   3.234  14.434  0.6869 -0.4949  0.0751
18695TIP3   OH277499   0.254   0.745   2.466 -0.0449  0.4197 -0.2095
18695TIP3    H177500   0.311   0.821   2.480 -0.3537  0.8503 -1.2363
18695TIP3    H277501   0.313   0.675   2.440  0.1551  0.5114 -0.0092
18696TIP3   OH277502   0.909   0.125  12.603  0.3116 -0.3466 -0.0979
18696TIP3    H177503   0.988   0.168  12.636  0.4164 -1.1424  0.7346
18696TIP3    H277504   0.888   0.059  12.669 -1.3381  0.1734 -0.0632
18697TIP3   OH277505   2.994   3.447   4.376  0.1393  0.7609  0.2534
18697TIP3    H177506   3.015   3.365   4.422 -0.0403  0.5915  0.0322
18697TIP3    H277507   2.918   3.426   4.323  0.7766  0.7529 -0.6804
18698TIP3   OH277508   6.127   3.777  16.209 -0.3632 -0.3092 -0.6069
18698TIP3    H177509   6.146   3.869  16.228 -2.3958 -0.3150  2.0215
18698TIP3    H277510   6.188   3.728  16.264 -0.9470 -0.4633 -0.0818
18699TIP3   OH277511   1.566   2.747   4.741  0.0016 -0.7770  0.5699
18699TIP3    H177512   1.511   2.714   4.811 -0.0815 -0.9058  0.4440
18699TIP3    H277513   1.606   2.669   4.703  0.5650 -0.6589  0.9030
18700TIP3   OH277514   2.615   0.458   6.179 -0.1317 -0.0345  0.5250
18700TIP3    H177515   2.668   0.508   6.241  1.7621 -0.7480 -0.4489
18700TIP3    H277516   2.678   0.415   6.122 -1.7823 -0.2837 -1.2332
18701TIP3   OH277517   4.619   6.167  12.900  0.2001 -0.3431 -0.5189
18701TIP3    H177518   4.658   6.220  12.831 -1.0104  1.6883  0.3015
18701TIP3    H277519   4.692   6.150  12.960  0.2970  1.9223  0.0955
18702TIP3   OH277520   5.168   5.206  15.947  0.6142 -0.0837  0.1022
18702TIP3    H177521   5.135   5.123  15.914 -0.1474 -0.9229  2.7062
18702TIP3    H277522   5.089   5.259  15.961  1.0710  1.0007 -1.2157
18703TIP3   OH277523   4.246   1.142   1.665 -1.0352 -0.9738 -0.1401
18703TIP3    H177524   4.274   1.095   1.587 -2.9170 -0.9942 -0.8492
18703TIP3    H277525   4.324   1.189   1.695 -0.0103 -1.8371 -1.3794
18704TIP3   OH277526   0.827   0.428   1.292  0.2251  0.4359  0.1221
18704TIP3    H177527   0.743   0.466   1.269  0.0601  0.4934  0.7861
18704TIP3    H277528   0.823   0.338   1.260 -0.1578  0.3876  0.3037
18705TIP3   OH277529   3.134   5.515  15.846 -0.0632 -0.5419 -0.0105
18705TIP3    H177530   3.136   5.587  15.909 -1.1236 -0.6106  0.1173
18705TIP3    H277531   3.130   5.558  15.760  0.5288 -0.4527  0.0022
18706TIP3   OH277532   2.787   0.635  15.920 -0.1258  0.1817  0.2740
18706TIP3    H177533   2.768   0.721  15.957 -0.3217 -0.3894  1.5492
18706TIP3    H277534   2.701   0.601  15.893  0.0481  0.7214 -1.0603
18707TIP3   OH277535   5.202   1.879  15.349  0.0862  0.1331 -0.6361
18707TIP3    H177536   5.256   1.932  15.291 -1.4177  1.3392 -1.0035
18707TIP3    H277537   5.187   1.933  15.426 -0.1959 -0.3631 -0.3339
18708TIP3   OH277538   3.189   5.346  16.931 -0.2877  0.0765 -1.2253
18708TIP3    H177539   3.147   5.268  16.966 -1.0152  0.4969 -1.1410
18708TIP3    H277540   3.218   5.321  16.844 -0.4467 -0.3060 -1.1689
18709TIP3   OH277541   1.707   1.704   1.733 -0.6470 -0.3366 -0.3165
18709TIP3    H177542   1.635   1.642   1.721 -0.7614 -0.5305  1.1718
18709TIP3    H277543   1.697   1.735   1.823  0.1906  0.8546 -0.6132
18710TIP3   OH277544   4.117   2.693   6.136  0.6839 -0.4137 -0.1006
18710TIP3    H177545   4.134   2.769   6.191  1.5881  0.0996 -1.0575
18710TIP3    H277546   4.081   2.628   6.196 -0.8135  0.9851  0.6066
18711TIP3   OH277547   6.697   0.633  16.717  0.1910 -0.1460 -0.1806
18711TIP3    H177548   6.661   0.579  16.786  1.9810 -0.8973  0.2315
18711TIP3    H277549   6.753   0.574  16.667  0.0724  0.7234 -1.3869
18712TIP3   OH277550   2.754   3.369  12.727 -0.0691  0.7384  0.2280
18712TIP3    H177551   2.843   3.382  12.756 -0.0963 -1.6921  1.7156
18712TIP3    H277552   2.730   3.282  12.760 -3.1902  1.5247  0.4225
18713TIP3   OH277553   0.799   2.309  13.229 -0.1958 -0.3018 -0.0791
18713TIP3    H177554   0.815   2.215  13.220  0.3136 -0.2169 -0.1289
18713TIP3    H277555   0.737   2.330  13.159 -0.4029 -0.6204  0.0068
18714TIP3   OH277556   0.467   1.259   0.313  0.5850  0.4461 -0.0949
18714TIP3    H177557   0.438   1.242   0.403  1.2262 -0.2097 -0.0002
18714TIP3    H277558   0.414   1.333   0.284 -1.4290 -0.9183 -0.0628
18715TIP3   OH277559   0.135   2.680   4.837 -0.8231 -0.4032 -0.3725
18715TIP3    H177560   0.088   2.758   4.806 -0.8509  0.7737  2.3609
18715TIP3    H277561   0.225   2.693   4.809 -0.3834  1.7168  1.6793
18716TIP3   OH277562   5.334   0.942  16.860 -0.4847  0.1586 -0.3146
18716TIP3    H177563   5.316   0.973  16.771 -0.2179  0.0687 -0.4003
18716TIP3    H277564   5.292   0.856  16.864  1.6981 -1.0267 -1.2260
18717TIP3   OH277565   2.008   5.286  11.252  0.3212  0.0178  0.8445
18717TIP3    H177566   2.076   5.247  11.198 -0.1619  0.5191 -0.1504
18717TIP3    H277567   1.976   5.361  11.201 -0.4108  0.2682  1.6458
18718TIP3   OH277568   5.032   5.446  12.274  0.5711  0.2447  0.0020
18718TIP3    H177569   5.023   5.452  12.179 -0.5921 -0.6041  0.0350
18718TIP3    H277570   5.122   5.417  12.288  1.0615  1.3203 -0.7872
18719TIP3   OH277571   3.659   1.779   2.651  0.1018 -0.2200  0.7544
18719TIP3    H177572   3.636   1.689   2.628  0.2026 -0.1013  0.1762
18719TIP3    H277573   3.577   1.828   2.639 -0.3538 -0.4878  2.5303
18720TIP3   OH277574   1.035   5.553  14.464 -0.0209 -0.5333 -0.5102
18720TIP3    H177575   0.952   5.506  14.477 -0.2742 -0.7951 -2.6797
18720TIP3    H277576   1.102   5.484  14.465 -0.0891 -0.6120 -0.8645
18721TIP3   OH277577   1.335   2.986   4.742  0.0122 -0.5339  0.4985
18721TIP3    H177578   1.360   2.897   4.717  0.7383  0.2497 -1.9103
18721TIP3    H277579   1.419   3.030   4.757 -0.1920  0.3600 -0.8377
18722TIP3   OH277580   4.531   2.530  15.326  0.1655  0.4060 -1.0968
18722TIP3    H177581   4.483   2.447  15.324  1.4840 -0.3858 -1.7218
18722TIP3    H277582   4.497   2.576  15.403 -0.9863 -0.4615 -1.0620
18723TIP3   OH277583   4.865   0.671  12.525 -1.0070 -0.3142 -0.2696
18723TIP3    H177584   4.895   0.711  12.443 -1.4400  0.0130 -0.2726
18723TIP3    H277585   4.930   0.699  12.590 -0.4099 -0.9453 -0.5769
18724TIP3   OH277586   3.152   4.136  15.770  0.4310 -0.0095  0.0977
18724TIP3    H177587   3.065   4.114  15.739  0.6307 -1.6055  0.5801
18724TIP3    H277588   3.140   4.215  15.823 -0.6675 -0.0757 -0.0398
18725TIP3   OH277589   0.418   0.577   0.834  0.1748 -0.3528 -0.2196
18725TIP3    H177590   0.335   0.579   0.881  0.0255 -2.2392 -0.3441
18725TIP3    H277591   0.470   0.648   0.873 -2.2311  2.4286 -1.6706
18726TIP3   OH277592   3.217   5.560  11.548 -0.7126 -0.1558  0.8020
18726TIP3    H177593   3.150   5.498  11.578 -0.6546  0.0401  1.3524
18726TIP3    H277594   3.287   5.505  11.513 -0.3227 -0.4550  1.9836
18727TIP3   OH277595   2.144   1.330   1.391 -0.4470  0.8364 -0.6293
18727TIP3    H177596   2.048   1.332   1.390 -0.5394 -0.4662  1.1356
18727TIP3    H277597   2.168   1.270   1.320 -1.0756 -0.6925  0.4015
18728TIP3   OH277598   4.674   3.848   0.225  1.0575 -0.0277  0.5122
18728TIP3    H177599   4.631   3.768   0.195  0.8940 -0.2001  1.1961
18728TIP3    H277600   4.679   3.839   0.320 -0.9148  1.7038  0.8815
18729TIP3   OH277601   5.726   3.249   2.749 -0.0835  0.0116 -0.0656
18729TIP3    H177602   5.726   3.345   2.756 -1.7756  0.1065 -0.9831
18729TIP3    H277603   5.808   3.229   2.704  1.3527  0.8180  2.0084
18730TIP3   OH277604   6.464   0.627  11.467 -0.3200 -0.0511  0.3573
18730TIP3    H177605   6.445   0.624  11.561  0.1395 -1.3320  0.4380
18730TIP3    H277606   6.418   0.705  11.436 -1.8263 -0.4837  1.3507
18731TIP3   OH277607   6.571   4.493   3.819  0.6609  0.0727 -0.0013
18731TIP3    H177608   6.567   4.582   3.783  2.8752 -0.3467 -1.4680
18731TIP3    H277609   6.598   4.439   3.745 -1.8919 -2.1042  0.5272
18732TIP3   OH277610   6.737   3.031  11.372  0.2372  0.1753 -0.5943
18732TIP3    H177611   6.655   3.051  11.326 -0.0197 -1.6842 -1.0024
18732TIP3    H277612   6.805   3.043  11.306 -0.0624 -1.7252 -1.3050
18733TIP3   OH277613   5.005   4.173  14.562 -0.5945  0.2987 -0.0571
18733TIP3    H177614   5.051   4.131  14.489 -0.4133  0.6409 -0.1444
18733TIP3    H277615   4.980   4.101  14.620  0.6012  0.1469  0.3074
18734TIP3   OH277616   0.339   5.701  12.759  0.2235 -0.2641  0.0193
18734TIP3    H177617   0.383   5.786  12.769  1.1382 -0.7116 -0.1253
18734TIP3    H277618   0.322   5.694  12.665  1.2026 -0.7462 -0.1328
18735TIP3   OH277619   5.204   4.329   2.754 -0.3445 -0.0901  0.3337
18735TIP3    H177620   5.293   4.362   2.769 -0.9433  1.5550  0.4931
18735TIP3    H277621   5.202   4.305   2.662  0.3094 -0.2845  0.3669
18736TIP3   OH277622   1.809   0.686   3.595 -0.4027  0.1885  0.0394
18736TIP3    H177623   1.740   0.752   3.601 -0.3076  0.6119 -2.4420
18736TIP3    H277624   1.768   0.612   3.551  0.3148 -0.1580 -0.0575
18737TIP3   OH277625   5.219   3.219  11.581 -0.0709 -0.1238 -0.0763
18737TIP3    H177626   5.131   3.182  11.593  1.7819 -5.5838 -0.5576
18737TIP3    H277627   5.222   3.245  11.489 -1.3746  1.0313  0.1752
18738TIP3   OH277628   1.910   0.634  11.046 -0.0958  0.1041 -0.5678
18738TIP3    H177629   1.885   0.723  11.020 -0.4249 -0.1116 -0.9952
18738TIP3    H277630   1.844   0.610  11.112  1.2377  0.9804  1.1835
18739TIP3   OH277631   5.902   3.151  12.450 -0.2422 -0.5508  0.2296
18739TIP3    H177632   5.834   3.215  12.471  0.0439 -0.2542  0.2685
18739TIP3    H277633   5.981   3.188  12.489  0.2562 -0.1024 -1.1590
18740TIP3   OH277634   4.620   1.554  13.575  0.1471 -0.2715 -0.0012
18740TIP3    H177635   4.715   1.558  13.584  0.1961 -0.7977 -0.2517
18740TIP3    H277636   4.588   1.554  13.665  0.4386 -1.2271  0.1082
18741TIP3   OH277637   4.832   4.570  13.611 -0.1152  0.3112  0.4555
18741TIP3    H177638   4.842   4.479  13.637 -0.6171  0.3739  0.8847
18741TIP3    H277639   4.745   4.574  13.570 -0.8739  0.9336  2.0128
18742TIP3   OH277640   4.881   1.485   4.975  0.2880  0.5585 -0.3789
18742TIP3    H177641   4.837   1.515   4.896  0.1920  1.9102  0.1680
18742TIP3    H277642   4.928   1.562   5.008  1.3160 -0.2937  0.2247
18743TIP3   OH277643   3.127   3.581  14.175  0.1024  0.2432 -0.4626
18743TIP3    H177644   3.176   3.583  14.092  1.1093  0.5802  0.1279
18743TIP3    H277645   3.107   3.673  14.193 -1.0333  0.0834 -0.8527
18744TIP3   OH277646   5.578   1.499  15.802 -0.0744  0.3847 -0.3576
18744TIP3    H177647   5.506   1.559  15.823 -0.0605  0.4862 -0.5973
18744TIP3    H277648   5.534   1.417  15.782 -0.1987  0.7043 -1.4659
18745TIP3   OH277649   6.775   4.224   3.951 -0.4801 -0.1576  0.3005
18745TIP3    H177650   6.813   4.210   4.038 -2.8903 -0.1450  1.4184
18745TIP3    H277651   6.726   4.306   3.959 -0.2586  0.1529 -1.2636
18746TIP3   OH277652   5.146   1.758   0.181  0.2261 -0.0959  0.5851
18746TIP3    H177653   5.066   1.769   0.233  0.1168 -0.2530  0.4516
18746TIP3    H277654   5.193   1.686   0.223  0.3449  0.0599  0.7214
18747TIP3   OH277655   3.893   5.385   3.710 -0.4391 -0.3886 -0.0350
18747TIP3    H177656   3.928   5.296   3.701 -0.1621 -0.3054  0.1971
18747TIP3    H277657   3.900   5.403   3.804 -0.7938 -0.2437 -0.0383
18748TIP3   OH277658   0.948   1.854  16.473 -0.0946  0.5860  0.8720
18748TIP3    H177659   0.936   1.811  16.388  2.7532  2.4095 -0.6297
18748TIP3    H277660   0.872   1.911  16.483  0.3342  1.6644 -1.3938
18749TIP3   OH277661   5.792   1.575   4.179  0.5660 -0.1386 -0.1397
18749TIP3    H177662   5.769   1.584   4.087  1.1249 -0.1112 -0.2755
18749TIP3    H277663   5.811   1.482   4.190  1.8510  0.0862 -0.3701
18750TIP3   OH277664   4.813   3.817  15.972 -0.4755 -0.1023  0.7681
18750TIP3    H177665   4.899   3.804  15.931 -0.1622  2.3282  0.4708
18750TIP3    H277666   4.771   3.884  15.918 -1.3182  0.9334  2.6091
18751TIP3   OH277667   4.401   0.266  14.913 -0.0606 -0.0016 -0.4132
18751TIP3    H177668   4.490   0.270  14.878  0.1336 -0.8006 -0.0438
18751TIP3    H277669   4.363   0.351  14.893  0.3067 -0.1478 -1.8458
18752TIP3   OH277670   6.325   2.207  13.442 -0.0105 -0.0511 -0.1854
18752TIP3    H177671   6.282   2.260  13.509  1.2858 -1.5181  1.9235
18752TIP3    H277672   6.262   2.202  13.371 -1.5805  1.3236  1.0351
18753TIP3   OH277673   1.488   3.316  16.509 -0.2549  0.3443 -0.7718
18753TIP3    H177674   1.403   3.275  16.523  0.2854 -0.8284 -0.7618
18753TIP3    H277675   1.475   3.376  16.436 -1.5987  1.8266  0.6060
18754TIP3   OH277676   4.445   4.188  12.396  0.3293  0.3511 -0.2356
18754TIP3    H177677   4.461   4.272  12.438 -1.0508  0.6368 -0.2376
18754TIP3    H277678   4.369   4.152  12.442  1.1014 -1.0629 -0.0004
18755TIP3   OH277679   0.038   2.586  10.390 -0.1553 -0.4400 -0.2920
18755TIP3    H177680  -0.038   2.556  10.340  1.4225 -1.9954 -1.9060
18755TIP3    H277681   0.111   2.577  10.330  1.3071  1.2424  1.1345
18756TIP3   OH277682   0.207   4.630  14.714  0.3319  0.0695  0.1759
18756TIP3    H177683   0.235   4.570  14.645 -1.9645 -0.7778 -0.1359
18756TIP3    H277684   0.201   4.715  14.672 -1.2885 -0.4839 -0.8120
18757TIP3   OH277685   2.752   6.006  13.243 -0.0591  0.1319  0.0621
18757TIP3    H177686   2.770   6.099  13.256 -0.1085 -0.0004  1.2068
18757TIP3    H277687   2.694   5.982  13.316 -1.9278 -0.2808 -1.4797
18758TIP3   OH277688   0.258   0.390  12.299 -0.7515  0.0775  0.3152
18758TIP3    H177689   0.215   0.320  12.251 -1.3959  0.7615 -0.1354
18758TIP3    H277690   0.204   0.405  12.376 -2.1112  1.7985 -0.8929
18759TIP3   OH277691   2.522   3.877   4.304 -0.1650  0.3189 -0.1705
18759TIP3    H177692   2.575   3.862   4.383 -1.7696 -0.9562  0.7305
18759TIP3    H277693   2.474   3.795   4.292 -1.3734  1.1732 -1.3865
18760TIP3   OH277694   1.771   3.688   1.046 -0.0765 -0.1280  0.7754
18760TIP3    H177695   1.826   3.677   1.124  0.2829  0.5773  0.6204
18760TIP3    H277696   1.686   3.713   1.081  0.4641  1.6340  0.8923
18761TIP3   OH277697   5.956   1.227  13.607  0.0829  0.5082 -1.0583
18761TIP3    H177698   5.996   1.236  13.520  1.3165  1.7389 -0.4094
18761TIP3    H277699   5.918   1.313  13.624 -1.4431 -0.1539 -0.9492
18762TIP3   OH277700   2.474   4.943  16.731 -0.0820 -0.2137 -0.0935
18762TIP3    H177701   2.427   4.952  16.648  1.1847 -0.0078 -0.8224
18762TIP3    H277702   2.527   4.864  16.720  0.4984  0.1124  0.3082
18763TIP3   OH277703   3.898   3.861  12.889 -0.1642 -0.8254 -0.2515
18763TIP3    H177704   3.952   3.941  12.890 -2.2563  0.6655 -0.1744
18763TIP3    H277705   3.885   3.840  12.981 -1.6694  0.2827 -0.1649
18764TIP3   OH277706   1.749   1.248   3.531  0.5057 -0.4029 -0.0121
18764TIP3    H177707   1.727   1.266   3.623 -0.3084 -1.1895 -0.0411
18764TIP3    H277708   1.737   1.332   3.487 -0.9157 -0.4273  0.2772
18765TIP3   OH277709   2.530   4.668  11.287 -0.6239  0.6355  0.6331
18765TIP3    H177710   2.593   4.736  11.313 -0.1277 -0.2913  2.0046
18765TIP3    H277711   2.452   4.689  11.338 -1.3590  1.6061 -0.8384
18766TIP3   OH277712   0.171   1.218   3.787  0.3316  0.6047 -0.0765
18766TIP3    H177713   0.105   1.234   3.855 -0.2607 -1.6972 -0.0358
18766TIP3    H277714   0.251   1.254   3.824 -0.2596  0.5899  1.2964
18767TIP3   OH277715   3.337   5.271   0.799  0.0569 -0.3624 -0.3745
18767TIP3    H177716   3.335   5.354   0.845  2.1897 -0.7015  0.4420
18767TIP3    H277717   3.328   5.294   0.706  0.8885  0.8131 -0.1797
18768TIP3   OH277718   5.984   5.206   4.112 -0.4048  0.0688  0.3000
18768TIP3    H177719   5.924   5.186   4.040 -0.4849  0.3571  0.2828
18768TIP3    H277720   5.948   5.287   4.150 -1.9287 -1.4755  2.3696
18769TIP3   OH277721   2.683   5.777  13.649  0.0428  0.2204  0.2760
18769TIP3    H177722   2.665   5.868  13.625  1.3798  0.7952  1.3230
18769TIP3    H277723   2.716   5.737  13.568  3.6120  1.8696  0.7385
18770TIP3   OH277724   2.196   4.476  14.758 -0.0020  0.1640  0.3717
18770TIP3    H177725   2.255   4.459  14.684  0.8279 -1.1824  1.2955
18770TIP3    H277726   2.253   4.470  14.835 -0.5145  3.0439  1.1079
18771TIP3   OH277727   6.348   1.270  14.524 -0.4451 -0.1463  0.2683
18771TIP3    H177728   6.336   1.197  14.463 -0.1295  0.3808 -0.4441
18771TIP3    H277729   6.311   1.345  14.477  1.7190  0.7045 -0.2157
18772TIP3   OH277730   5.787   5.852  15.800 -0.1211 -0.3482 -0.2050
18772TIP3    H177731   5.863   5.906  15.823  0.1503 -0.4070 -0.9268
18772TIP3    H277732   5.818   5.798  15.727 -0.7925 -0.5291 -0.3591
18773TIP3   OH277733   0.482   5.793   4.921 -0.3649  0.4153 -0.0664
18773TIP3    H177734   0.533   5.741   4.984 -1.3300  1.1753  1.4213
18773TIP3    H277735   0.399   5.746   4.913 -0.4918  0.6701 -0.2601
18774TIP3   OH277736   4.353   6.375   4.543 -0.1268 -0.7544 -0.1330
18774TIP3    H177737   4.301   6.385   4.464 -2.4099  1.5334  1.4862
18774TIP3    H277738   4.327   6.291   4.579 -0.9019 -0.7194 -0.5926
18775TIP3   OH277739   2.561   5.534  16.667  0.2233  0.1221  0.4670
18775TIP3    H177740   2.624   5.519  16.596 -0.9593  0.4127 -0.6703
18775TIP3    H277741   2.616   5.547  16.744  1.5657  0.3371 -0.4836
18776TIP3   OH277742   4.818   6.534   0.546  0.1496 -0.2498 -0.0084
18776TIP3    H177743   4.758   6.478   0.595  0.0386  0.6525  0.9076
18776TIP3    H277744   4.833   6.487   0.464 -2.8926  0.1502 -0.8923
18777TIP3   OH277745   4.862   2.010  14.580 -1.5688  0.0203 -0.8042
18777TIP3    H177746   4.784   2.066  14.572 -1.1611  0.7167 -0.0618
18777TIP3    H277747   4.840   1.947  14.648 -1.8360 -0.4120 -1.2813
18778TIP3   OH277748   3.906   5.367   1.645 -0.6025 -0.5869 -0.0531
18778TIP3    H177749   3.908   5.331   1.556  0.3508 -0.2959 -0.1603
18778TIP3    H277750   3.994   5.400   1.659 -2.0046  4.4706 -1.1183
18779TIP3   OH277751   4.573   2.942   0.498  0.0373 -0.7434 -0.1439
18779TIP3    H177752   4.586   3.017   0.440  1.5506  1.0312  2.2458
18779TIP3    H277753   4.527   2.979   0.574  1.4520 -2.0013  1.4184
18780TIP3   OH277754   1.253   3.443   3.975 -0.1413 -0.1961 -0.1908
18780TIP3    H177755   1.281   3.463   4.065  0.3564  1.2420 -0.6463
18780TIP3    H277756   1.185   3.376   3.986 -0.4900  0.3652  1.3059
18781TIP3   OH277757   0.822   1.765  10.728  0.5840  0.2257  0.6632
18781TIP3    H177758   0.910   1.802  10.730  0.0019  1.6303  1.3348
18781TIP3    H277759   0.830   1.682  10.776  1.1107  1.3504  2.6211
18782TIP3   OH277760   5.411   5.673  15.203  0.2839  0.3145 -0.4041
18782TIP3    H177761   5.506   5.670  15.210  0.2549 -2.1502 -0.3212
18782TIP3    H277762   5.379   5.631  15.283 -0.8904  1.2034 -0.3753
18783TIP3   OH277763   4.455   4.705  16.577  0.0164 -0.0610 -0.2089
18783TIP3    H177764   4.410   4.657  16.646  0.0812 -0.5830 -0.5224
18783TIP3    H277765   4.482   4.638  16.515  0.8024  0.2993 -0.2670
18784TIP3   OH277766   5.928   5.383   5.503  0.1151 -0.1468 -0.2172
18784TIP3    H177767   5.985   5.428   5.565  0.1183  1.7132 -1.5109
18784TIP3    H277768   5.842   5.382   5.545  0.7353 -1.7765  1.1557
18785TIP3   OH277769   6.371   6.369  15.918 -0.1978 -0.4018  0.0195
18785TIP3    H177770   6.337   6.325  15.995 -1.4179  1.4510  0.6293
18785TIP3    H277771   6.426   6.304  15.874  0.0220 -1.6904  2.0979
18786TIP3   OH277772   1.907   2.539  11.821  0.7287  0.5371 -0.2313
18786TIP3    H177773   1.928   2.477  11.892 -0.4179  0.6037  0.2001
18786TIP3    H277774   1.815   2.521  11.801  0.6455  1.4778 -0.7468
18787TIP3   OH277775   1.155   5.056   1.908 -0.1557  0.2039 -0.4878
18787TIP3    H177776   1.240   5.078   1.946 -0.1874 -0.8538  0.2583
18787TIP3    H277777   1.176   5.012   1.826 -0.0479  1.4462 -1.1397
18788TIP3   OH277778   4.390   5.329  15.440 -0.1195 -0.2471 -0.0826
18788TIP3    H177779   4.320   5.364  15.495  0.0430 -0.5296  0.3071
18788TIP3    H277780   4.465   5.386  15.460  0.2751 -1.0807  0.8981
18789TIP3   OH277781   5.115   0.631  15.357 -0.1171 -0.5371  0.2393
18789TIP3    H177782   5.140   0.564  15.420  0.7698  2.0777  2.9009
18789TIP3    H277783   5.025   0.654  15.381  0.3088  0.6381  0.7893
18790TIP3   OH277784   1.858   3.561  13.288 -0.8887 -0.2601 -0.6153
18790TIP3    H177785   1.770   3.526  13.303 -0.0437 -2.3119 -0.0797
18790TIP3    H277786   1.856   3.595  13.199 -2.4326  0.4493 -0.3363
18791TIP3   OH277787   5.051   5.970  14.454  0.3046  0.0249  0.1925
18791TIP3    H177788   4.990   5.947  14.384  1.5106  0.4188 -1.0423
18791TIP3    H277789   5.108   6.037  14.415  0.6438  0.6885  1.7530
18792TIP3   OH277790   0.109   4.673   2.636  0.2517 -0.0655  0.7673
18792TIP3    H177791   0.197   4.707   2.620 -0.0620  0.4964  0.1791
18792TIP3    H277792   0.063   4.746   2.677  0.2347 -0.5716  1.6770
18793TIP3   OH277793   0.443   0.349   2.767 -0.7562 -0.2359 -0.0472
18793TIP3    H177794   0.448   0.404   2.690 -2.8627 -1.9108 -1.5082
18793TIP3    H277795   0.499   0.273   2.747 -0.4920 -0.2012  0.5278
18794TIP3   OH277796   1.870   5.274  14.668  0.1746 -0.4586  0.9495
18794TIP3    H177797   1.821   5.193  14.653 -0.6887  0.2394 -0.1843
18794TIP3    H277798   1.841   5.303  14.755 -1.9182  0.2440  0.0614
18795TIP3   OH277799   3.039   4.624  15.774 -0.1092 -0.3021 -0.3359
18795TIP3    H177800   3.042   4.642  15.680  1.7298 -0.3244 -0.3178
18795TIP3    H277801   3.107   4.559  15.788  1.0118  1.1493  1.2958
18796TIP3   OH277802   1.002   5.217  11.671  0.0016 -0.1580 -0.2588
18796TIP3    H177803   1.080   5.253  11.713  0.5658 -0.3051 -1.1565
18796TIP3    H277804   0.930   5.269  11.706  0.8591  2.6057 -2.2840
18797TIP3   OH277805   3.038   6.315   1.284  0.1682 -0.0992 -0.1159
18797TIP3    H177806   3.051   6.284   1.194 -1.0033 -0.3383 -0.2236
18797TIP3    H277807   2.976   6.388   1.275  1.4605  1.0921  0.3271
18798TIP3   OH277808   0.566   1.603   3.428 -0.3425 -0.6182  0.3233
18798TIP3    H177809   0.597   1.693   3.415  0.3239 -1.1233 -2.2131
18798TIP3    H277810   0.487   1.612   3.482 -0.2812  1.4806  0.1437
18799TIP3   OH277811   5.966   4.539   5.062  0.2254  0.0883 -0.6540
18799TIP3    H177812   5.995   4.585   5.142 -0.8562 -1.8547  0.9491
18799TIP3    H277813   5.993   4.597   4.991  1.5326  1.7764  1.0811
18800TIP3   OH277814   4.131   5.266  12.351  0.3497 -0.0169 -0.2180
18800TIP3    H177815   4.137   5.284  12.257 -1.1760 -0.3619 -0.4148
18800TIP3    H277816   4.057   5.320  12.380 -1.1274 -2.1461  0.1523
18801TIP3   OH277817   4.935   3.720   5.397  0.0218 -0.1134 -0.3533
18801TIP3    H177818   4.871   3.791   5.398  1.0756  0.8775 -1.1921
18801TIP3    H277819   4.919   3.674   5.314  0.3694  0.1185 -0.5513
18802TIP3   OH277820   6.309   3.991  14.354 -0.2474 -0.1541 -0.1463
18802TIP3    H177821   6.399   4.012  14.377 -0.6887  0.6964  0.8819
18802TIP3    H277822   6.302   3.896  14.369  1.1431 -0.7507 -2.7129
18803TIP3   OH277823   6.248   1.580  15.895 -0.0870 -0.1925 -0.0784
18803TIP3    H177824   6.316   1.623  15.947 -0.4794  0.8744 -0.4164
18803TIP3    H277825   6.287   1.570  15.808  0.5133 -1.8387  0.3356
18804TIP3   OH277826   3.161   3.128   2.570  0.0381  0.2642 -0.0577
18804TIP3    H177827   3.125   3.039   2.571 -0.4164  0.4514  0.3283
18804TIP3    H277828   3.086   3.185   2.586  0.2108  0.7669 -0.9276
18805TIP3   OH277829   2.217   4.391   1.059  0.1985  0.0584 -0.4051
18805TIP3    H177830   2.164   4.313   1.072 -2.0238  1.5711  0.1991
18805TIP3    H277831   2.166   4.445   0.998 -0.1456  2.5412  1.8805
18806TIP3   OH277832   5.829   6.077   1.209 -0.3926 -0.1865  0.5391
18806TIP3    H177833   5.791   6.029   1.282 -1.0282 -0.6692 -0.0897
18806TIP3    H277834   5.918   6.099   1.237 -0.3621 -1.0532  1.1389
18807TIP3   OH277835   3.585   4.989  13.409 -0.3951 -0.0442 -0.0199
18807TIP3    H177836   3.524   4.956  13.475  0.2680 -0.9882  0.1502
18807TIP3    H277837   3.665   4.940  13.424  0.5484  1.4551  0.0132
18808TIP3   OH277838   0.951   4.178  11.691 -0.2240 -0.7881  0.1046
18808TIP3    H177839   0.906   4.132  11.620 -0.6713 -1.2285  0.6502
18808TIP3    H277840   0.913   4.266  11.691 -0.5148 -0.9119  0.0485
18809TIP3   OH277841   2.737   0.337  15.305  0.2070  0.3556  0.0796
18809TIP3    H177842   2.663   0.368  15.252  0.4989  1.5595  0.3506
18809TIP3    H277843   2.799   0.302  15.241 -0.2293  0.1047 -0.2145
18810TIP3   OH277844   5.149   5.509   4.120 -0.2452 -0.1094 -0.9467
18810TIP3    H177845   5.158   5.499   4.215  0.3424 -3.5704 -1.2315
18810TIP3    H277846   5.165   5.602   4.104  1.1392  0.3140  2.1786
18811TIP3   OH277847   4.150   0.284  16.503 -0.4807 -0.1060 -0.3903
18811TIP3    H177848   4.109   0.199  16.484 -1.0769 -0.0093  0.4411
18811TIP3    H277849   4.077   0.343  16.517 -0.2006 -0.4883  3.7455
18812TIP3   OH277850   2.770   5.716  16.827  0.0943 -0.1438  0.0504
18812TIP3    H177851   2.760   5.804  16.863 -1.5222 -0.4537  0.4234
18812TIP3    H277852   2.822   5.669  16.891 -0.6047  0.0264  0.7527
18813TIP3   OH277853   1.501   2.626   3.745  0.8608  0.0714  0.0656
18813TIP3    H177854   1.442   2.589   3.679  1.5578 -2.1456  0.6044
18813TIP3    H277855   1.587   2.628   3.703  1.0080  0.1891  0.3657
18814TIP3   OH277856   4.760   1.499   0.094  0.1494  0.1736 -0.5827
18814TIP3    H177857   4.769   1.594   0.086 -1.4966  0.4950  0.6620
18814TIP3    H277858   4.846   1.468   0.121 -0.1521  1.8089  2.6304
18815TIP3   OH277859   5.363   1.225  13.762 -0.6126 -0.1971  0.5280
18815TIP3    H177860   5.309   1.301  13.741  0.7184  1.0844  1.5140
18815TIP3    H277861   5.439   1.232  13.704  0.0705 -0.1244  1.4140
18816TIP3   OH277862   5.391   1.981   5.564 -0.0537  0.2063  0.2512
18816TIP3    H177863   5.423   1.957   5.651 -0.6121  1.0898  0.7042
18816TIP3    H277864   5.400   2.076   5.559 -0.0283  0.1711 -0.6618
18817TIP3   OH277865   5.429   1.088  10.990 -0.1180 -0.5268 -0.0848
18817TIP3    H177866   5.416   1.072  10.897 -0.8670  1.2069 -0.3062
18817TIP3    H277867   5.494   1.158  10.994 -2.0028  1.2721  0.5664
18818TIP3   OH277868   1.621   3.655  14.302  0.2206 -0.2299 -0.4483
18818TIP3    H177869   1.593   3.587  14.363  0.3739 -0.1852 -0.3264
18818TIP3    H277870   1.708   3.680  14.333  0.3187 -0.2415 -0.7155
18819TIP3   OH277871   2.577   4.991  14.856 -0.7611  0.0180 -0.2911
18819TIP3    H177872   2.580   4.911  14.803 -2.1744 -0.0335 -0.3411
18819TIP3    H277873   2.645   5.047  14.819 -0.7887 -0.5671 -1.2647
18820TIP3   OH277874   0.389   4.186  10.999  0.6757  0.2290 -0.1858
18820TIP3    H177875   0.302   4.222  11.014  0.0106 -0.9899 -0.9165
18820TIP3    H277876   0.430   4.247  10.937 -0.0579  0.2708 -0.6513
18821TIP3   OH277877   1.795   3.538   4.641  0.7607  0.3462 -0.1853
18821TIP3    H177878   1.867   3.511   4.585 -0.2834 -1.3997 -0.7498
18821TIP3    H277879   1.760   3.616   4.598  1.0792  0.0640 -0.9854
18822TIP3   OH277880   5.551   0.719  14.355  1.0104 -0.7084  0.0862
18822TIP3    H177881   5.542   0.776  14.431 -2.8723 -1.7426  0.6268
18822TIP3    H277882   5.533   0.631  14.389 -0.2331 -1.2861 -1.8969
18823TIP3   OH277883   3.867   0.051  11.957 -0.2837 -0.2337 -0.0273
18823TIP3    H177884   3.935  -0.017  11.964 -1.9893 -1.9321  0.8851
18823TIP3    H277885   3.901   0.112  11.891  0.9788 -2.3607 -1.4463
18824TIP3   OH277886   1.634   6.004   1.441  0.1454  0.3103  0.3246
18824TIP3    H177887   1.689   5.934   1.476 -0.1312  0.0729  0.2931
18824TIP3    H277888   1.630   6.069   1.512  0.3867  0.2860  0.3613
18825TIP3   OH277889   6.050   1.614  11.336 -0.0166  0.5753  0.2081
18825TIP3    H177890   5.963   1.580  11.315  0.6043 -0.7017 -0.3950
18825TIP3    H277891   6.044   1.639  11.428 -1.0134  0.4844  0.1859
18826TIP3   OH277892   5.711   2.576  14.879  0.0711  0.0949 -0.1469
18826TIP3    H177893   5.631   2.524  14.864  0.7143 -0.4572 -1.9467
18826TIP3    H277894   5.774   2.540  14.817  0.1359  3.9439 -2.5965
18827TIP3   OH277895   0.802   4.947  12.057  0.9335  0.3173  0.2374
18827TIP3    H177896   0.762   4.863  12.081  0.2276  0.3525 -0.7601
18827TIP3    H277897   0.856   4.927  11.980  2.1386  0.4544  1.0224
18828TIP3   OH277898   5.221   0.006   2.922  0.2246  0.2747 -0.5956
18828TIP3    H177899   5.252  -0.048   2.994 -0.2690 -0.6569 -1.0607
18828TIP3    H277900   5.125   0.002   2.928  0.1643  1.7306 -0.1831
18829TIP3   OH277901   2.040   4.806   1.140 -0.2720 -0.7181 -0.3137
18829TIP3    H177902   2.063   4.714   1.149  0.5969 -0.5107 -0.2991
18829TIP3    H277903   2.114   4.853   1.178 -1.0650 -0.0204  0.4115
18830TIP3   OH277904   1.710   2.134   4.974 -0.5209  0.4780  0.2298
18830TIP3    H177905   1.776   2.180   4.923  0.1879  0.7619  1.3763
18830TIP3    H277906   1.643   2.109   4.910  0.9320 -0.3006 -1.0503
18831TIP3   OH277907   1.455   0.466   1.442  0.8735 -0.0401  0.0507
18831TIP3    H177908   1.384   0.521   1.409  0.8416  0.2831  0.6431
18831TIP3    H277909   1.424   0.437   1.528  2.1336  1.4381  1.0675
18832TIP3   OH277910   6.722   0.622  11.180 -0.2469  0.3335 -0.0463
18832TIP3    H177911   6.770   0.701  11.154 -0.3501  0.0811 -1.0182
18832TIP3    H277912   6.705   0.576  11.098 -2.3958  0.5336  0.2301
18833TIP3   OH277913   2.607   3.222  15.379  0.5659  0.4609 -0.0851
18833TIP3    H177914   2.699   3.197  15.372  0.3142 -0.0345 -2.1840
18833TIP3    H277915   2.608   3.311  15.413  1.8346  0.6290 -0.5519
18834TIP3   OH277916   3.234   1.761   5.188 -0.4175  0.1420 -0.1243
18834TIP3    H177917   3.295   1.779   5.259  0.1868  0.8778 -0.8050
18834TIP3    H277918   3.261   1.821   5.117 -0.8099 -0.7782 -1.0795
18835TIP3   OH277919   4.436   2.356   4.989  0.3501 -0.0033  0.0788
18835TIP3    H177920   4.400   2.412   5.057  1.9045  1.2109 -0.0495
18835TIP3    H277921   4.497   2.412   4.941 -0.2961 -0.9749 -1.9856
18836TIP3   OH277922   2.530   0.895   2.048  0.5440  0.5306 -0.5039
18836TIP3    H177923   2.477   0.944   1.984 -1.4284 -0.4179  0.2938
18836TIP3    H277924   2.620   0.910   2.021 -0.0905  2.4788 -1.8003
18837TIP3   OH277925   0.668   0.597   4.560  0.2645 -0.1775  0.0671
18837TIP3    H177926   0.703   0.520   4.515  1.6235  0.4052  0.0800
18837TIP3    H277927   0.677   0.577   4.653 -0.1122 -0.3200  0.0734
18838TIP3   OH277928   1.737   1.238  10.734 -0.3572  0.3838 -0.2848
18838TIP3    H177929   1.799   1.165  10.740 -0.3904  0.4347  0.9202
18838TIP3    H277930   1.672   1.209  10.671  1.0044  0.4172 -1.7743
18839TIP3   OH277931   4.418   2.818  14.867 -0.2037  0.8470  0.4780
18839TIP3    H177932   4.475   2.791  14.940  0.2531  0.6217  0.0451
18839TIP3    H277933   4.353   2.748  14.862  0.3895  0.3087  0.0013
18840TIP3   OH277934   2.341   6.013   0.455 -0.5770  0.1312 -0.0678
18840TIP3    H177935   2.321   5.979   0.542 -0.4450  1.9775  0.7316
18840TIP3    H277936   2.285   6.090   0.446 -1.2206 -0.4957 -1.9925
18841TIP3   OH277937   0.727   2.809   4.499 -0.4541  0.0206 -0.3217
18841TIP3    H177938   0.759   2.890   4.540  1.0561 -2.3808  3.8297
18841TIP3    H277939   0.632   2.812   4.513 -0.1856  0.2011  1.7002
18842TIP3   OH277940   6.414   3.656   2.716  0.2725 -0.1959  0.3026
18842TIP3    H177941   6.400   3.750   2.730 -0.5581 -0.0911 -1.0841
18842TIP3    H277942   6.506   3.650   2.689  0.4512  0.1686  0.8193
18843TIP3   OH277943   1.060   4.448  14.596 -0.1974  0.1694  0.4864
18843TIP3    H177944   1.062   4.396  14.677  1.1986  0.5385  0.7114
18843TIP3    H277945   1.108   4.527  14.616  3.3658 -1.2188 -1.6445
18844TIP3   OH277946   2.402   4.895   5.453 -0.7633 -0.2384 -0.5453
18844TIP3    H177947   2.458   4.823   5.423 -0.5813 -0.3334  0.0090
18844TIP3    H277948   2.350   4.857   5.524  0.7751  0.6731  1.1672
18845TIP3   OH277949   4.578   6.569  14.928 -0.2764  0.2216 -0.6327
18845TIP3    H177950   4.570   6.618  15.010  0.6528 -0.8863  0.1543
18845TIP3    H277951   4.526   6.490  14.942 -0.8425  0.4436 -1.4546
18846TIP3   OH277952   4.374   2.807  16.892 -0.0718  0.0218  0.1718
18846TIP3    H177953   4.396   2.756  16.969  1.3979  1.3269  0.6617
18846TIP3    H277954   4.320   2.879  16.926 -0.8106 -0.3035 -0.2806
18847TIP3   OH277955   1.980   2.450   4.181  0.2491  0.5778 -0.2522
18847TIP3    H177956   2.039   2.419   4.249 -0.5779  0.7315  0.5514
18847TIP3    H277957   1.919   2.508   4.227  1.1472  2.6597 -1.5085
18848TIP3   OH277958   4.622   1.176   6.655  0.2985 -0.3932 -0.0484
18848TIP3    H177959   4.594   1.105   6.598 -0.9468  1.4110 -1.8169
18848TIP3    H277960   4.716   1.183   6.639  0.3095 -1.1932 -0.3810
18849TIP3   OH277961   4.643   2.279  16.888 -0.2288  0.6269 -0.3093
18849TIP3    H177962   4.720   2.306  16.937  0.1973 -1.3823  0.2037
18849TIP3    H277963   4.678   2.230  16.813 -0.9757 -1.1043  0.4208
18850TIP3   OH277964   6.785   1.279   2.352 -0.2157  0.1897 -0.1330
18850TIP3    H177965   6.823   1.214   2.412  0.6130  0.9972  0.2328
18850TIP3    H277966   6.717   1.323   2.404  1.0450  1.4456  0.5235
18851TIP3   OH277967   2.157   3.704  16.573  0.3350 -0.3355 -0.1341
18851TIP3    H177968   2.068   3.674  16.555  0.8348 -1.4617 -0.8089
18851TIP3    H277969   2.150   3.799  16.573 -0.9685 -0.4105  0.3420
18852TIP3   OH277970   0.390   0.610   3.450  0.1485  0.1769 -1.1011
18852TIP3    H177971   0.347   0.527   3.468 -0.5654  0.4290 -1.5528
18852TIP3    H277972   0.337   0.675   3.497 -0.9690  0.6799 -2.9230
18853TIP3   OH277973   5.806   3.076  14.192  0.2759 -0.1998  0.1697
18853TIP3    H177974   5.890   3.094  14.150 -0.8544  0.1489 -2.1137
18853TIP3    H277975   5.743   3.128  14.143 -1.1227  0.7669  2.8193
18854TIP3   OH277976   4.310   2.249   1.645  0.0436 -0.3406 -0.2397
18854TIP3    H177977   4.384   2.281   1.697  0.7277  0.1941 -1.5140
18854TIP3    H277978   4.346   2.238   1.557 -1.3552 -0.2737 -0.8303
18855TIP3   OH277979   4.674   1.002   0.024  0.0689  0.3689 -0.0049
18855TIP3    H177980   4.766   1.007  -0.000  0.1102  3.1367  0.4502
18855TIP3    H277981   4.667   0.923   0.077  2.3161  0.4561  0.4997
18856TIP3   OH277982   5.896   1.299  15.599  0.4528 -0.4425 -0.4102
18856TIP3    H177983   5.989   1.288  15.621  1.1644  0.7432 -2.5183
18856TIP3    H277984   5.852   1.225  15.641  2.6319 -2.1247 -0.9327
18857TIP3   OH277985   0.417   4.793  15.746  0.2060 -0.5216  0.3310
18857TIP3    H177986   0.427   4.714  15.693 -0.6219 -1.7133  1.8560
18857TIP3    H277987   0.500   4.838  15.739 -0.2143 -0.0444 -2.8178
18858TIP3   OH277988   5.875   0.797  15.316  0.3036  0.0930 -0.1201
18858TIP3    H177989   5.863   0.841  15.232 -0.7846 -0.7359 -0.4193
18858TIP3    H277990   5.954   0.837  15.353  1.0516  0.1482 -1.7326
18859TIP3   OH277991   3.393   5.544   2.858  0.2042 -0.1714 -0.6725
18859TIP3    H177992   3.449   5.614   2.826  1.1111 -0.4374  0.2839
18859TIP3    H277993   3.340   5.585   2.926 -1.9893  0.4878 -2.6546
18860TIP3   OH277994   3.753   4.445  16.887  0.1397  0.1605  0.2799
18860TIP3    H177995   3.819   4.424  16.821 -1.4285 -1.1966 -0.9445
18860TIP3    H277996   3.789   4.410  16.969  1.4035  0.4433 -0.1348
18861TIP3   OH277997   5.353   1.114   1.934  0.0753 -0.0811 -0.2866
18861TIP3    H177998   5.330   1.024   1.959  1.9528 -0.4399  0.3727
18861TIP3    H277999   5.329   1.167   2.010 -1.1655  0.0114 -0.7319
18862TIP3   OH278000   5.983   2.517   5.062  0.3104  0.5215  0.9878
18862TIP3    H178001   5.937   2.517   4.978  0.0409 -0.7106  1.1154
18862TIP3    H278002   6.074   2.533   5.038  0.4270 -0.9113  0.3066
18863TIP3   OH278003   0.821   5.521  12.641  0.0798 -0.1178  0.4558
18863TIP3    H178004   0.750   5.512  12.577  0.0519 -1.2176  0.6270
18863TIP3    H278005   0.899   5.493  12.593  0.2887  0.3548  0.5062
18864TIP3   OH278006   3.305   4.578  12.790  0.1799  0.0184 -0.1069
18864TIP3    H178007   3.247   4.568  12.865 -0.9467 -1.9610 -1.1565
18864TIP3    H278008   3.390   4.602  12.827 -0.8480  1.2218  1.6023
18865TIP3   OH278009   0.521   6.484  13.709 -0.3924 -0.8046 -0.1447
18865TIP3    H178010   0.492   6.561  13.758  0.5125 -0.6391  0.1423
18865TIP3    H278011   0.563   6.428  13.774  0.5097 -0.7413 -0.6625
18866TIP3   OH278012   3.779   1.656   2.292  0.0648 -0.2337 -0.3845
18866TIP3    H178013   3.786   1.751   2.300 -0.9978 -0.0034 -1.7092
18866TIP3    H278014   3.826   1.635   2.212 -0.2452 -0.7327 -0.4399
18867TIP3   OH278015   0.533   5.294   2.882  0.6648 -0.1869  0.1366
18867TIP3    H178016   0.487   5.248   2.812  0.2358  0.4276  0.0029
18867TIP3    H278017   0.626   5.286   2.859  0.7410 -2.4629  1.0422
18868TIP3   OH278018   3.610   1.489  15.815  1.0094  0.1960 -0.0973
18868TIP3    H178019   3.659   1.412  15.845  0.4740 -0.3843 -0.6899
18868TIP3    H278020   3.541   1.500  15.880  0.6503 -0.2632 -0.3971
18869TIP3   OH278021   2.585   3.202  12.017  0.1953  0.6946  0.8128
18869TIP3    H178022   2.584   3.119  12.065 -0.6386  0.4282  0.3489
18869TIP3    H278023   2.595   3.269  12.085 -0.7043  0.3113  1.3421
18870TIP3   OH278024   4.932   2.604  12.746 -0.1692 -0.0031 -0.2106
18870TIP3    H178025   4.864   2.548  12.707 -0.4968 -0.6862  1.2476
18870TIP3    H278026   5.001   2.542  12.771  0.5032  0.5526 -0.6741
18871TIP3   OH278027   3.197   1.499  15.042  0.6723  0.3386 -0.2733
18871TIP3    H178028   3.263   1.459  14.984  0.4936 -0.9853  0.4132
18871TIP3    H278029   3.248   1.531  15.116  0.4516 -2.1188  1.0448
18872TIP3   OH278030   1.734   6.784   3.789 -0.5065  0.0347 -0.6906
18872TIP3    H178031   1.798   6.773   3.860 -1.7271 -0.3490  0.4001
18872TIP3    H278032   1.655   6.813   3.834 -1.3128 -0.2232 -1.9192
18873TIP3   OH278033   2.389   0.868   5.324 -0.0308 -0.4315 -0.1175
18873TIP3    H178034   2.297   0.855   5.304 -0.5925  0.2166  1.8587
18873TIP3    H278035   2.392   0.881   5.419  2.0221  0.1364 -0.2067
18874TIP3   OH278036   4.674   1.588  15.690 -0.6542  0.1987  0.3290
18874TIP3    H178037   4.721   1.652  15.637  1.7299 -1.5059  0.2248
18874TIP3    H278038   4.593   1.572  15.642  0.1170  0.8435 -1.2478
18875TIP3   OH278039   1.077   4.483   0.018 -0.1018  0.4354  0.2624
18875TIP3    H178040   0.983   4.497   0.021 -0.1139  0.3355  2.9965
18875TIP3    H278041   1.100   4.490  -0.075 -3.2399 -2.6223 -0.9579
18876TIP3   OH278042   4.377   3.980   3.119  0.3345  0.2491  0.8245
18876TIP3    H178043   4.348   4.033   3.045 -0.0536 -0.8418  0.1848
18876TIP3    H278044   4.303   3.924   3.139 -0.1842  1.5961  3.0888
18877TIP3   OH278045   4.741   2.981  11.946 -0.2231 -0.1238  0.7444
18877TIP3    H178046   4.660   2.972  11.998 -1.7994  1.2417 -1.3127
18877TIP3    H278047   4.761   3.074  11.949 -1.7743  0.4895 -2.9020
18878TIP3   OH278048   5.653   0.297   0.204  0.1914 -0.0848 -0.1569
18878TIP3    H178049   5.703   0.218   0.181  1.6726  0.7249  0.1424
18878TIP3    H278050   5.577   0.264   0.251  0.1989 -1.3975 -1.0054
18879TIP3   OH278051   0.905   4.767  12.805  0.2476  0.2491  0.5478
18879TIP3    H178052   0.846   4.733  12.872  0.4015  0.8097  0.9809
18879TIP3    H278053   0.969   4.819  12.854  2.0835 -1.6357  0.2828
18880TIP3   OH278054   2.319   4.976   0.985  0.4002  0.2945  0.3791
18880TIP3    H178055   2.275   5.006   0.906  0.3816  1.3142  0.7648
18880TIP3    H278056   2.411   4.965   0.959  0.6168  1.7123  0.4732
18881TIP3   OH278057   0.886   5.296   4.069  0.2937  0.1889 -0.0537
18881TIP3    H178058   0.956   5.296   4.135 -1.7436 -2.8124  2.4362
18881TIP3    H278059   0.851   5.207   4.071 -1.0749  0.4291 -4.0940
18882TIP3   OH278060   6.661   6.609  16.834  0.1106  0.3027  0.3026
18882TIP3    H178061   6.577   6.634  16.796 -0.1518 -1.0723 -0.0859
18882TIP3    H278062   6.711   6.575  16.760  0.9286  0.8651  0.5799
18883TIP3   OH278063   5.507   6.520  11.657 -0.1487 -0.5229 -0.0944
18883TIP3    H178064   5.562   6.442  11.660  0.2747 -0.4455 -2.8868
18883TIP3    H278065   5.418   6.487  11.664  0.0457 -1.2677 -0.8980
18884TIP3   OH278066   3.283   6.638  12.587 -0.1173 -0.7593 -0.4429
18884TIP3    H178067   3.209   6.623  12.529  0.4111 -0.1428 -1.3048
18884TIP3    H278068   3.249   6.696  12.655 -0.6280 -1.1370 -0.3728
18885TIP3   OH278069   2.366   1.496  16.173  0.0792 -0.3272 -0.2798
18885TIP3    H178070   2.422   1.490  16.096 -0.1358  1.6215 -0.6344
18885TIP3    H278071   2.425   1.521  16.244 -0.2235  1.2915 -0.5625
18886TIP3   OH278072   4.567   2.733  11.342  0.7431 -0.3904  0.3253
18886TIP3    H178073   4.582   2.760  11.252 -1.9587 -0.8101 -0.3451
18886TIP3    H278074   4.592   2.810  11.395  0.8505  0.4498 -0.9125
18887TIP3   OH278075   4.275   0.017   0.035  0.5106 -0.2758 -0.1808
18887TIP3    H178076   4.226   0.082  -0.016 -0.9213 -1.3555 -0.2428
18887TIP3    H278077   4.300  -0.050  -0.028  3.5542  0.9816 -0.4821
18888TIP3   OH278078   3.499   4.577  16.907  0.0317 -0.0947  0.1316
18888TIP3    H178079   3.535   4.489  16.895 -0.3854 -0.5241  1.8138
18888TIP3    H278080   3.555   4.617  16.973 -2.2245 -0.6238  2.5119
18889TIP3   OH278081   5.397   1.001  10.726 -0.2134 -0.7152 -0.2827
18889TIP3    H178082   5.358   0.921  10.691  0.1267 -0.6654 -0.7972
18889TIP3    H278083   5.473   1.017  10.670  0.6551 -0.9063  0.8078
18890TIP3   OH278084   3.676   2.660   3.521 -0.0058  0.2379 -0.2866
18890TIP3    H178085   3.764   2.621   3.519 -0.3206 -0.4886 -0.3179
18890TIP3    H278086   3.622   2.594   3.564 -0.8998 -0.0675 -1.8290
18891TIP3   OH278087   3.765   5.805  10.444 -0.2138 -0.0311 -0.2902
18891TIP3    H178088   3.764   5.817  10.539  0.2795 -0.3735 -0.2341
18891TIP3    H278089   3.706   5.731  10.428  0.1846 -0.3829 -0.1767
18892TIP3   OH278090   1.389   1.145   1.294 -0.0444  0.3491 -0.0366
18892TIP3    H178091   1.477   1.115   1.272 -0.0541 -1.5163  2.0923
18892TIP3    H278092   1.401   1.201   1.371 -0.5498  1.7555 -0.9565
18893TIP3   OH278093   4.119   0.735  13.243 -0.3320  0.1169 -0.3548
18893TIP3    H178094   4.026   0.761  13.237 -0.6281 -0.5756  0.9063
18893TIP3    H278095   4.127   0.697  13.330  1.5934  1.9083  0.3121
18894TIP3   OH278096   2.171   3.079   1.959 -0.1087  0.0879  0.4038
18894TIP3    H178097   2.152   3.028   2.038 -0.2440  0.5721  0.6917
18894TIP3    H278098   2.089   3.126   1.941  0.0085  0.1926  0.1377
18895TIP3   OH278099   4.703   2.105  15.734  0.2743  0.1278  1.3986
18895TIP3    H178100   4.789   2.140  15.709  1.0531 -1.9863  0.8356
18895TIP3    H278101   4.705   2.104  15.830  0.7136  0.4923  1.3973
18896TIP3   OH278102   0.982   0.779   3.120  0.2619 -0.2911 -0.1729
18896TIP3    H178103   1.067   0.822   3.130 -0.1886  0.7980 -0.7595
18896TIP3    H278104   1.000   0.686   3.127  1.4518 -0.0495  0.0629
18897TIP3   OH278105   5.439   1.551   1.368 -0.2527  0.1633 -0.6345
18897TIP3    H178106   5.525   1.566   1.328 -0.9410  1.2407 -1.8066
18897TIP3    H278107   5.456   1.555   1.462  0.8068  1.5378 -0.8461
18898TIP3   OH278108   5.589   0.057   2.862  0.6570 -0.1260 -0.1528
18898TIP3    H178109   5.608  -0.026   2.820  2.5403  0.0594  0.2440
18898TIP3    H278110   5.523   0.037   2.928 -1.5065 -0.6265 -2.3412
18899TIP3   OH278111   4.262   5.622   2.089 -0.0054 -0.9523  0.0893
18899TIP3    H178112   4.347   5.635   2.131 -0.2217 -0.0806  0.2713
18899TIP3    H278113   4.276   5.647   1.998  0.1550 -1.6595 -0.0798
18900TIP3   OH278114   2.237   5.989   0.085  0.3012 -0.1314  0.3161
18900TIP3    H178115   2.287   6.058   0.041  1.3162  1.3403  3.4611
18900TIP3    H278116   2.146   6.008   0.062  0.7752  0.3713 -1.2832
18901TIP3   OH278117   4.158   1.048  15.336  0.0661 -0.0894  0.2950
18901TIP3    H178118   4.138   1.103  15.411 -1.7240 -0.4840  0.1698
18901TIP3    H278119   4.166   0.960  15.373  0.2977 -0.1218  0.1660
18902TIP3   OH278120   3.702   4.839  16.814 -0.0462  0.3134  0.0672
18902TIP3    H178121   3.658   4.906  16.866  0.4645 -0.6449  1.8109
18902TIP3    H278122   3.760   4.795  16.875 -0.9196 -2.2394 -0.8018
18903TIP3   OH278123   1.599   1.265   0.784  0.6435 -0.1713 -0.2658
18903TIP3    H178124   1.540   1.190   0.778 -0.2422  0.4417  0.5248
18903TIP3    H278125   1.642   1.269   0.698  1.6208 -2.2969  0.0664
18904TIP3   OH278126   0.810   4.669   5.556  0.2457  0.1733 -0.3073
18904TIP3    H178127   0.897   4.656   5.520 -0.1260 -1.6090 -0.6888
18904TIP3    H278128   0.752   4.624   5.494 -0.8236  0.4602  0.4624
18905TIP3   OH278129   2.241   3.468   0.713 -0.1054 -0.6366 -0.1428
18905TIP3    H178130   2.157   3.491   0.673 -0.4309 -1.7874 -0.1607
18905TIP3    H278131   2.307   3.506   0.655 -0.5631 -2.2367 -1.8300
18906TIP3   OH278132   6.759   3.917   3.292 -0.5246  0.4561  0.0038
18906TIP3    H178133   6.750   4.012   3.286 -1.3309  0.5435  1.9226
18906TIP3    H278134   6.682   3.888   3.341 -0.7179 -1.3062 -1.2391
18907TIP3   OH278135   5.985   6.020   5.167 -0.7792 -0.1588 -0.2828
18907TIP3    H178136   6.034   6.096   5.198  0.8820 -1.3182  0.0523
18907TIP3    H278137   5.937   6.052   5.090 -3.1773  2.1878  2.0062
18908TIP3   OH278138   0.772   3.796   4.410 -0.1989  0.3096  0.6064
18908TIP3    H178139   0.867   3.798   4.400 -0.2215  0.2852  0.3611
18908TIP3    H278140   0.751   3.702   4.415 -0.1125  0.3385  1.7199
18909TIP3   OH278141   0.439   0.415  10.860  0.2220 -0.0943  0.0549
18909TIP3    H178142   0.447   0.326  10.896 -2.4598 -1.2873 -1.9423
18909TIP3    H278143   0.497   0.415  10.784  2.0012  0.7262  1.3475
18910TIP3   OH278144   2.944   6.109   6.281 -0.0470  0.0074 -0.1874
18910TIP3    H178145   2.995   6.098   6.362 -0.6572 -3.4609 -0.1305
18910TIP3    H278146   2.854   6.120   6.311 -0.2347 -0.9815 -0.3773
18911TIP3   OH278147   6.068   1.704  15.359 -0.4692  0.4903 -0.2542
18911TIP3    H178148   6.095   1.712  15.268 -0.6410  0.0446 -0.3448
18911TIP3    H278149   6.110   1.623  15.390 -0.4190  0.6323  0.0604
18912TIP3   OH278150   4.830   3.159   3.592  0.2451 -0.0534 -0.2052
18912TIP3    H178151   4.813   3.079   3.641  2.3082 -0.6777 -0.3956
18912TIP3    H278152   4.752   3.213   3.606 -0.7838 -1.6948  0.7057
18913TIP3   OH278153   6.011   5.809   2.183 -0.2465 -0.0473 -0.3697
18913TIP3    H178154   5.982   5.772   2.266  0.1677  0.4260 -0.0035
18913TIP3    H278155   5.961   5.890   2.173  0.5850  0.5319  0.0353
18914TIP3   OH278156   4.602   1.795   3.560  0.4955  0.2941 -0.0556
18914TIP3    H178157   4.618   1.852   3.486  1.1792  0.7881  0.4546
18914TIP3    H278158   4.668   1.726   3.552  1.1145  0.7986  0.5234
18915TIP3   OH278159   4.772   2.591  16.181  0.2723 -0.0396  0.2249
18915TIP3    H178160   4.846   2.646  16.208 -0.2952  2.1121 -2.2429
18915TIP3    H278161   4.793   2.564  16.092 -2.1353  1.2399 -0.8285
18916TIP3   OH278162   4.268   3.518   4.017 -0.0958 -0.2091  0.3097
18916TIP3    H178163   4.281   3.441   4.073  0.7256  0.1590  0.6487
18916TIP3    H278164   4.191   3.562   4.055 -1.1242 -1.3124 -0.4260
18917TIP3   OH278165   0.414   0.480   0.457  0.8603 -0.2501  0.0010
18917TIP3    H178166   0.430   0.395   0.498  0.9997 -0.3192 -0.2000
18917TIP3    H278167   0.336   0.467   0.403  0.7147 -0.1751  0.1875
18918TIP3   OH278168   5.191   2.982   0.640 -0.3397 -0.2318 -0.0804
18918TIP3    H178169   5.113   2.939   0.605  1.2049 -1.7990 -1.8428
18918TIP3    H278170   5.222   3.038   0.569  1.5586 -1.6864 -0.5067
18919TIP3   OH278171   3.322   0.260   3.652  0.3859  0.8740  0.5537
18919TIP3    H178172   3.318   0.174   3.694 -1.8911 -0.3691 -1.9043
18919TIP3    H278173   3.315   0.322   3.724 -1.1065 -1.0711  2.2059
18920TIP3   OH278174   4.393   6.541   5.846  0.4062 -0.3577 -0.3524
18920TIP3    H178175   4.449   6.607   5.805  0.5167  0.7967  1.5514
18920TIP3    H278176   4.443   6.512   5.923 -1.8781  1.3667  1.9380
18921TIP3   OH278177   0.932   1.483  13.878  0.1469  1.1469 -0.4772
18921TIP3    H178178   0.923   1.575  13.854  0.4539  1.4650  0.6096
18921TIP3    H278179   0.914   1.480  13.972  1.7267  0.3509 -0.1617
18922TIP3   OH278180   4.662   3.307  12.622 -0.1129  0.2403  0.6808
18922TIP3    H178181   4.702   3.289  12.707  0.1816 -0.0523  0.4811
18922TIP3    H278182   4.582   3.254  12.621  1.2941 -2.0208 -0.3482
18923TIP3   OH278183   3.559   6.717   2.203  0.1573 -0.6232 -0.2871
18923TIP3    H178184   3.611   6.652   2.156 -0.8256 -2.4193  0.9694
18923TIP3    H278185   3.594   6.715   2.292 -0.2440  0.1981 -0.1011
18924TIP3   OH278186   0.651   3.448  14.184  0.1307  0.2552 -0.0385
18924TIP3    H178187   0.713   3.421  14.252  0.8076 -1.3554 -1.2298
18924TIP3    H278188   0.667   3.388  14.111  0.1491  2.5406 -2.0443
18925TIP3   OH278189   2.055   2.995  14.312  0.6733  0.2257 -0.4138
18925TIP3    H178190   2.099   2.913  14.288  0.4465 -0.5156  1.4958
18925TIP3    H278191   2.096   3.061  14.257  1.2920 -1.0626 -1.5868
18926TIP3   OH278192   2.319   6.158  11.411 -0.0561  0.1482  0.4748
18926TIP3    H178193   2.342   6.142  11.320  0.4224  0.4558  0.5401
18926TIP3    H278194   2.335   6.252  11.424  1.5500 -0.2230  1.3497
18927TIP3   OH278195   6.175   1.466   1.695  0.0367  0.5229  0.2225
18927TIP3    H178196   6.239   1.524   1.735  0.0275  0.0460  0.9437
18927TIP3    H278197   6.093   1.515   1.698  0.2434  0.9070 -0.1893
18928TIP3   OH278198   0.339   6.604   0.936 -0.2081 -0.4710  0.3130
18928TIP3    H178199   0.401   6.566   0.999 -0.5149 -0.6262  0.5211
18928TIP3    H278200   0.295   6.674   0.984 -0.5798 -0.7158  0.3335
18929TIP3   OH278201   6.632   1.631  16.227  0.0764  0.7130 -0.2369
18929TIP3    H178202   6.574   1.561  16.258  0.2416  0.5350 -0.3321
18929TIP3    H278203   6.663   1.674  16.306  2.3823 -1.2191  0.0049
18930TIP3   OH278204   0.465   6.640   3.977  0.2651 -0.3366  0.3483
18930TIP3    H178205   0.442   6.603   3.892  2.1208  0.7958 -0.7260
18930TIP3    H278206   0.398   6.707   3.992  0.8442  0.6412 -1.1085
18931TIP3   OH278207   1.974   5.015  13.606 -0.4201 -0.0172 -0.0319
18931TIP3    H178208   1.999   4.932  13.565 -0.8421 -0.0370 -0.2633
18931TIP3    H278209   1.921   5.059  13.539  0.9644  1.0765 -0.4651
18932TIP3   OH278210   2.780   3.691  16.935 -0.4020 -0.2049 -0.0158
18932TIP3    H178211   2.760   3.780  16.964  0.2214 -0.0083 -0.1745
18932TIP3    H278212   2.772   3.694  16.840 -3.1513 -1.0256  0.1096
18933TIP3   OH278213   6.232   5.496   2.355  0.1665  0.1664  0.5784
18933TIP3    H178214   6.304   5.449   2.313 -1.2557 -0.8219 -0.8750
18933TIP3    H278215   6.233   5.463   2.445  0.5918 -1.0161  0.1700
18934TIP3   OH278216   0.808   5.749   1.321 -0.8760 -0.4621 -0.1296
18934TIP3    H178217   0.774   5.802   1.393 -0.6513 -1.3229  0.6186
18934TIP3    H278218   0.735   5.747   1.258 -1.2228 -0.0485  0.2451
18935TIP3   OH278219   6.087   4.233  16.865  0.0155  0.2306 -0.0563
18935TIP3    H178220   6.126   4.270  16.944 -0.5391  0.9691 -0.1220
18935TIP3    H278221   6.064   4.309  16.811  0.2958 -0.2546 -0.8900
18936TIP3   OH278222   5.748   0.969   5.742  0.0071  0.1692  0.1109
18936TIP3    H178223   5.652   0.967   5.745 -0.0614  0.6481 -1.0379
18936TIP3    H278224   5.776   0.957   5.832 -1.1281 -0.5459  0.3840
18937TIP3   OH278225   6.044   2.114  15.457  0.0325 -0.6297  0.0094
18937TIP3    H178226   5.971   2.175  15.469  0.1887 -0.5883  0.8140
18937TIP3    H278227   6.003   2.028  15.457 -0.0698 -0.5815 -0.0403
18938TIP3   OH278228   3.245   6.304  16.687 -0.0948 -0.4310  0.0763
18938TIP3    H178229   3.178   6.248  16.649 -0.0827 -1.4617  1.5125
18938TIP3    H278230   3.277   6.356  16.613 -1.0791 -1.3139 -1.0101
18939TIP3   OH278231   4.447   0.689   5.748  0.2051 -0.2233 -0.1723
18939TIP3    H178232   4.527   0.708   5.699 -0.4393 -2.0528 -2.0811
18939TIP3    H278233   4.446   0.593   5.756 -0.9126 -0.1149  1.4228
18940TIP3   OH278234   2.405   1.505  15.054  0.2820 -0.0732  0.2583
18940TIP3    H178235   2.373   1.594  15.038 -1.6100 -0.7030  0.3016
18940TIP3    H278236   2.414   1.500  15.149  0.5427  0.1312  0.2437
18941TIP3   OH278237   0.073   1.942   3.098  0.3774 -0.7120  0.0496
18941TIP3    H178238  -0.002   1.895   3.133  1.3774 -1.5964  1.0691
18941TIP3    H278239   0.120   1.974   3.175  1.6206 -1.0938 -0.5152
18942TIP3   OH278240   0.473   4.363   3.476 -0.1991  0.1352 -0.3627
18942TIP3    H178241   0.395   4.377   3.529  1.2502 -0.3857  2.0928
18942TIP3    H278242   0.537   4.426   3.510  1.2945 -1.2917 -0.3900
18943TIP3   OH278243   0.309   5.851   1.966  0.2050  0.1922  0.1916
18943TIP3    H178244   0.246   5.781   1.981 -1.2473  1.3815 -0.0374
18943TIP3    H278245   0.327   5.847   1.872  0.1966  0.0663  0.1952
18944TIP3   OH278246   1.895   2.894  11.651  0.0063  1.0839 -0.1030
18944TIP3    H178247   1.948   2.964  11.614  1.7374  0.4522  1.0439
18944TIP3    H278248   1.901   2.907  11.745  0.5624 -0.6876  0.1493
18945TIP3   OH278249   6.096   2.289  16.681  0.1826 -0.7063  0.0496
18945TIP3    H178250   6.150   2.245  16.616 -0.8196 -0.9029 -0.6691
18945TIP3    H278251   6.024   2.229  16.697 -2.2390  1.3191 -2.3201
18946TIP3   OH278252   3.297   5.303   5.111  0.6405  0.4720  0.1324
18946TIP3    H178253   3.304   5.220   5.158  0.7256 -0.1603 -0.9780
18946TIP3    H278254   3.347   5.289   5.030  0.1577  1.4036 -0.3366
18947TIP3   OH278255   5.898   0.510  13.586  0.4660 -0.5065 -0.0115
18947TIP3    H178256   5.805   0.534  13.585  0.5313 -0.1619  0.9815
18947TIP3    H278257   5.940   0.573  13.528 -0.0873 -1.4763 -1.5266
18948TIP3   OH278258   6.674   1.774   2.733 -0.1977  0.0842  0.2956
18948TIP3    H178259   6.758   1.731   2.751 -0.7743 -1.3459 -0.2906
18948TIP3    H278260   6.662   1.765   2.638 -2.1456 -1.9811  0.6552
18949TIP3   OH278261   5.491   2.665  14.309 -0.1692  0.1583 -0.3303
18949TIP3    H178262   5.580   2.646  14.279  0.0178 -1.5210  1.0954
18949TIP3    H278263   5.488   2.760  14.320  0.5549  0.5409 -2.9714
18950TIP3   OH278264   6.258   1.603  10.872 -0.2791 -0.5538 -0.0476
18950TIP3    H178265   6.338   1.648  10.900 -0.6990  0.3630 -0.3008
18950TIP3    H278266   6.289   1.520  10.837  0.4546 -0.7814  1.0656
18951TIP3   OH278267   0.842   3.188   3.201  0.4027  0.4964 -0.4008
18951TIP3    H178268   0.798   3.213   3.282  0.5221 -0.3809 -0.0504
18951TIP3    H278269   0.902   3.261   3.182 -0.3149  1.1384 -0.2262
18952TIP3   OH278270   4.976   4.312  11.909 -0.2160 -0.4659 -0.0055
18952TIP3    H178271   5.003   4.370  11.838 -0.3344 -0.7057 -0.2464
18952TIP3    H278272   4.883   4.296  11.892  0.0338 -1.4734 -0.4678
18953TIP3   OH278273   1.922   2.745  16.541  0.8362  0.0735 -0.5173
18953TIP3    H178274   1.950   2.785  16.459 -1.1440  1.8169 -0.4150
18953TIP3    H278275   1.834   2.780  16.557  0.2512 -1.9448  1.2257
18954TIP3   OH278276   6.005   5.939  16.747  0.1435 -0.0710  0.3221
18954TIP3    H178277   6.067   5.877  16.710 -1.7732 -1.8928 -0.0447
18954TIP3    H278278   5.955   5.888  16.811 -0.8261  1.3644  0.7600
18955TIP3   OH278279   0.163   6.707  12.893 -0.2067 -0.4149  0.0759
18955TIP3    H178280   0.157   6.796  12.858  0.7062  0.2293  1.4742
18955TIP3    H278281   0.132   6.714  12.983 -1.8996 -1.9023 -0.3200
18956TIP3   OH278282   1.092   2.497  14.518 -0.6306  0.1947 -0.3242
18956TIP3    H178283   1.120   2.456  14.436 -0.5954 -0.8389  0.1934
18956TIP3    H278284   1.040   2.572  14.491  0.7204  0.8285 -1.3056
18957TIP3   OH278285   2.610   2.953   0.904  0.4242 -0.2599 -0.0235
18957TIP3    H178286   2.567   2.923   0.824  0.3147 -0.6931  0.1932
18957TIP3    H278287   2.684   2.894   0.916  1.8228  1.1951 -1.0308
18958TIP3   OH278288   1.492   3.011   1.853  0.5296 -0.4570  0.6472
18958TIP3    H178289   1.445   2.999   1.771  0.8916 -1.7903  0.6131
18958TIP3    H278290   1.507   2.922   1.886  0.5249  0.0429  2.0871
18959TIP3   OH278291   6.601   2.727   1.027  0.0723  0.2359 -0.0960
18959TIP3    H178292   6.605   2.652   0.968 -0.2498 -0.6038  0.9090
18959TIP3    H278293   6.546   2.791   0.982  1.8665  0.6639 -1.8122
18960TIP3   OH278294   0.845   3.584   6.344 -0.3458 -0.6133  0.2247
18960TIP3    H178295   0.764   3.543   6.376 -0.6074 -0.0113  0.3525
18960TIP3    H278296   0.844   3.672   6.382 -0.1911 -0.2087 -0.6841
18961TIP3   OH278297   5.247   4.161  12.433 -0.5343  0.1125 -0.1078
18961TIP3    H178298   5.257   4.232  12.495 -0.9932 -1.6303  2.0826
18961TIP3    H278299   5.333   4.118  12.431 -0.5910  0.0084 -0.5087
18962TIP3   OH278300   0.828   1.773   0.516  0.1123 -0.2170  0.2281
18962TIP3    H178301   0.780   1.847   0.554 -0.2248 -1.1113  1.6367
18962TIP3    H278302   0.902   1.760   0.575 -0.6453 -1.9060  0.8844
18963TIP3   OH278303   4.810   0.211  16.603  0.0623 -0.7282  0.3830
18963TIP3    H178304   4.836   0.267  16.676 -0.4025  0.3755 -0.2575
18963TIP3    H278305   4.774   0.272  16.538  1.7665 -1.4879 -1.3777
18964TIP3   OH278306   1.453   4.379   3.445  0.4476 -0.2856 -0.0139
18964TIP3    H178307   1.370   4.393   3.399  0.3678  0.7440  0.4254
18964TIP3    H278308   1.504   4.324   3.386 -0.3205 -0.4391 -0.5513
18965TIP3   OH278309   2.095   1.343   2.772 -0.1314  0.1571 -0.0862
18965TIP3    H178310   2.111   1.422   2.823  0.3457 -1.3886  2.3309
18965TIP3    H278311   2.043   1.287   2.830 -0.1773 -1.4503 -1.5883
18966TIP3   OH278312   3.978   3.964   2.386 -0.0795  0.0781  0.2515
18966TIP3    H178313   3.935   4.006   2.461  1.2346  1.2336  0.3807
18966TIP3    H278314   3.938   4.004   2.309 -0.0969  0.2526  0.3523
18967TIP3   OH278315   4.875   6.038   1.657  0.3912  0.2783  0.0446
18967TIP3    H178316   4.789   6.016   1.622  0.2758  1.0174 -0.1675
18967TIP3    H278317   4.857   6.072   1.745  0.7706 -2.5164  1.2867
18968TIP3   OH278318   5.451   2.851   0.586 -0.1756  0.0605  0.4382
18968TIP3    H178319   5.377   2.908   0.606  0.8120  1.5118  0.0679
18968TIP3    H278320   5.413   2.763   0.587 -1.5880  0.6230  1.7406
18969TIP3   OH278321   1.673   2.718  13.366  0.3929  0.2916  0.4185
18969TIP3    H178322   1.580   2.702  13.353  0.4914 -1.1708  1.2583
18969TIP3    H278323   1.712   2.704  13.280 -0.2272  1.7148 -0.1316
18970TIP3   OH278324   3.578   0.120   1.011  0.4786  0.0157 -0.1237
18970TIP3    H178325   3.499   0.067   1.008  0.8379 -0.4822 -1.9996
18970TIP3    H278326   3.649   0.057   1.021  0.7635  0.3390 -0.0745
18971TIP3   OH278327   0.543   3.994   0.813 -0.2955  0.1072  0.3056
18971TIP3    H178328   0.509   4.084   0.812 -1.8499 -0.4554  0.0060
18971TIP3    H278329   0.591   3.986   0.731 -0.0610  0.6930  0.3791
18972TIP3   OH278330   2.291   4.932   4.891  0.1696 -0.0488  0.1269
18972TIP3    H178331   2.229   4.996   4.856 -1.6445 -1.8601 -0.1059
18972TIP3    H278332   2.300   4.956   4.983 -1.1409  0.0746  0.2413
18973TIP3   OH278333   6.200   0.392   4.670  0.0661 -0.5352 -0.0026
18973TIP3    H178334   6.267   0.437   4.620 -0.9335 -0.2246 -1.0977
18973TIP3    H278335   6.248   0.323   4.717  1.1353 -0.3945 -0.8405
18974TIP3   OH278336   6.171   1.442   3.042  0.0655 -0.4743 -0.1578
18974TIP3    H178337   6.176   1.469   2.950 -1.5725 -0.9970 -0.4391
18974TIP3    H278338   6.224   1.363   3.047  2.0927  0.8072 -0.0850
18975TIP3   OH278339   3.712   4.536   0.634 -0.1883  0.3087  0.5079
18975TIP3    H178340   3.686   4.601   0.569 -1.1233  1.6879  2.1725
18975TIP3    H278341   3.654   4.462   0.618 -0.7366  0.8157  0.0835
18976TIP3   OH278342   0.107   0.314   4.501 -0.0626 -0.0074 -0.1867
18976TIP3    H178343   0.056   0.333   4.580 -1.3604 -0.9230 -0.7601
18976TIP3    H278344   0.168   0.387   4.493 -0.7361  0.7063  0.9913
18977TIP3   OH278345   3.305   2.990  11.280  0.2196 -1.0550 -0.5787
18977TIP3    H178346   3.338   3.033  11.359 -1.0981 -2.0745  0.6008
18977TIP3    H278347   3.227   3.040  11.256  1.1183 -0.2027 -1.8101
18978TIP3   OH278348   0.187   5.122   4.565  0.5281 -0.2800  0.3666
18978TIP3    H178349   0.270   5.093   4.603  0.9253  0.5010  0.1125
18978TIP3    H278350   0.125   5.115   4.637  0.0699 -3.8138 -0.2062
18979TIP3   OH278351   1.292   3.303  13.844  0.3648  0.1208 -0.1990
18979TIP3    H178352   1.198   3.323  13.844  0.5087  0.8216 -0.4957
18979TIP3    H278353   1.334   3.384  13.874  0.7822 -0.7416  1.6767
18980TIP3   OH278354   2.494   2.220  14.432 -0.1660  0.1764 -0.1827
18980TIP3    H178355   2.571   2.245  14.484 -1.1429  0.8707  1.0002
18980TIP3    H278356   2.474   2.131  14.462 -2.5648  1.6197  3.1251
18981TIP3   OH278357   4.284   0.196  16.259  0.4165  0.0396 -0.2779
18981TIP3    H178358   4.287   0.167  16.351  0.6072  1.2890  0.1288
18981TIP3    H278359   4.194   0.177  16.231  0.0474  0.5728  0.4966
18982TIP3   OH278360   6.382   5.120   2.818 -0.5477 -0.2303  0.2364
18982TIP3    H178361   6.368   5.172   2.897 -1.1446 -1.7111  1.1509
18982TIP3    H278362   6.458   5.065   2.838  0.2783  0.4771 -0.8341
18983TIP3   OH278363   3.447   4.359   0.963  0.0747  0.0518 -0.5113
18983TIP3    H178364   3.364   4.322   0.935 -0.6111 -0.7501  2.2635
18983TIP3    H278365   3.509   4.287   0.958 -0.3710 -0.5087  1.1443
18984TIP3   OH278366   3.289   1.054  13.921 -0.4129  0.0152 -0.1854
18984TIP3    H178367   3.304   0.976  13.867 -3.4685 -0.2147 -0.8985
18984TIP3    H278368   3.287   1.126  13.858 -0.5624  0.2360  0.0713
18985TIP3   OH278369   5.639   4.242   2.503  0.1710 -0.3417 -0.0336
18985TIP3    H178370   5.643   4.325   2.457  1.0094  0.2508  1.0698
18985TIP3    H278371   5.683   4.180   2.445  0.6064  0.2468 -0.3422
18986TIP3   OH278372   6.178   0.201   3.117  0.6245  0.2195 -0.1365
18986TIP3    H178373   6.206   0.177   3.205 -0.2610  1.3666  0.4854
18986TIP3    H278374   6.107   0.263   3.130  0.2810  0.1976 -1.6686
18987TIP3   OH278375   6.558   5.585  12.009  0.0956  0.4585 -0.7102
18987TIP3    H178376   6.508   5.616  11.934 -0.9747 -2.0656 -1.1428
18987TIP3    H278377   6.499   5.598  12.084 -1.0665 -1.8879 -1.1260
18988TIP3   OH278378   3.870   1.884  15.170  0.2352  0.3429 -0.2574
18988TIP3    H178379   3.914   1.800  15.165 -0.1504  0.1610 -0.7379
18988TIP3    H278380   3.795   1.875  15.111 -0.3100  0.7202  0.3578
18989TIP3   OH278381   6.167   1.487  11.853 -0.6041  0.0283 -0.5536
18989TIP3    H178382   6.258   1.515  11.856 -1.0017  1.4105 -0.3124
18989TIP3    H278383   6.170   1.398  11.819  0.9692 -0.6774  1.2858
18990TIP3   OH278384   0.206   2.238  15.629  0.6779 -0.0227  0.5557
18990TIP3    H178385   0.140   2.172  15.652 -0.2875  0.7359  0.0292
18990TIP3    H278386   0.159   2.301  15.574  1.7026  0.8461  0.6414
18991TIP3   OH278387   1.179   4.209  15.331  0.9948  0.0277 -0.0509
18991TIP3    H178388   1.146   4.290  15.291  1.0887  0.6850  1.1309
18991TIP3    H278389   1.261   4.191  15.286  0.7399  0.3328 -0.6434
18992TIP3   OH278390   0.297   1.211   0.543 -0.1027 -0.2374 -0.2656
18992TIP3    H178391   0.223   1.257   0.503 -1.1169 -1.6372 -0.1079
18992TIP3    H278392   0.300   1.243   0.633  0.8483  1.3629 -0.8182
18993TIP3   OH278393   0.390   3.994   5.705 -0.4720 -0.0971  0.2282
18993TIP3    H178394   0.384   3.983   5.800 -0.0570 -0.5199  0.2095
18993TIP3    H278395   0.398   3.904   5.672 -1.0022  0.0225 -0.2349
18994TIP3   OH278396   3.387   5.849   1.484  0.8148 -0.0129  0.1868
18994TIP3    H178397   3.423   5.921   1.537  0.9020 -0.2948  0.5111
18994TIP3    H278398   3.366   5.781   1.547 -0.1132  0.0692 -0.0277
18995TIP3   OH278399   5.652   3.685   4.327 -0.0275  0.0190 -0.7859
18995TIP3    H178400   5.602   3.755   4.368 -2.1036 -2.4464  1.2368
18995TIP3    H278401   5.738   3.690   4.369 -0.9608 -0.1378  1.2830
18996TIP3   OH278402   4.378   2.291  15.356 -0.0410  0.4725 -0.0142
18996TIP3    H178403   4.391   2.242  15.437  1.3176 -0.1105 -0.5482
18996TIP3    H278404   4.284   2.284  15.338 -0.2145 -0.1123  1.0569
18997TIP3   OH278405   3.638   2.531  14.334 -0.5861  0.4836 -0.0868
18997TIP3    H178406   3.580   2.504  14.405 -0.2409 -5.2768 -1.4523
18997TIP3    H278407   3.726   2.524  14.370 -0.5055 -0.1681 -0.3767
18998TIP3   OH278408   5.382   6.636  14.270  0.4416 -0.0012  0.3490
18998TIP3    H178409   5.460   6.594  14.307  0.7173 -0.9484 -1.1745
18998TIP3    H278410   5.340   6.680  14.343  0.6422 -2.2193  1.8871
18999TIP3   OH278411   2.015   0.781  14.943 -0.8627 -0.6013 -0.1063
18999TIP3    H178412   1.974   0.699  14.970  1.7970 -1.7454  0.8381
18999TIP3    H278413   2.007   0.838  15.020 -1.4110 -0.5098 -0.2308
19000TIP3   OH278414   6.512   3.808  10.938  0.2354 -0.5123 -0.5653
19000TIP3    H178415   6.458   3.798  11.016  1.0301 -0.3536  0.0099
19000TIP3    H278416   6.557   3.891  10.949 -0.8441  0.3053 -1.9526
19001TIP3   OH278417   0.050   1.650  12.646 -0.3526 -0.5062  0.5995
19001TIP3    H178418   0.108   1.709  12.599 -1.6599 -0.3684 -0.9300
19001TIP3    H278419  -0.034   1.696  12.650 -0.9367 -1.5512  0.8755
19002TIP3   OH278420   5.454   0.643   2.506  0.2123 -0.1774  0.9253
19002TIP3    H178421   5.549   0.641   2.505  0.2061 -0.8920  0.8889
19002TIP3    H278422   5.430   0.695   2.429  0.5736  1.5774  1.9413
19003TIP3   OH278423   1.791   2.112  10.552  0.5145 -0.6070 -0.2275
19003TIP3    H178424   1.786   2.018  10.533 -0.4573 -0.7941  0.8868
19003TIP3    H278425   1.802   2.117  10.647 -0.6091  0.4095 -0.1227
19004TIP3   OH278426   2.054   5.697  11.986 -0.2182 -0.3333  0.2170
19004TIP3    H178427   2.003   5.677  11.907  1.4755 -0.7243 -0.8372
19004TIP3    H278428   2.070   5.791  11.981 -0.0436 -0.3712  0.0360
19005TIP3   OH278429   1.354   5.927  12.495  0.5985 -0.2486 -0.2215
19005TIP3    H178430   1.364   6.022  12.498  0.3604 -0.2071 -0.6066
19005TIP3    H278431   1.265   5.914  12.462  0.6994 -0.6042 -0.3584
19006TIP3   OH278432   5.878   6.149  13.283  0.2738 -0.2307 -0.4227
19006TIP3    H178433   5.946   6.205  13.246 -0.4238  1.4776  0.7297
19006TIP3    H278434   5.891   6.155  13.378 -0.3040 -1.4355 -0.2394
19007TIP3   OH278435   5.156   1.054  14.774 -0.2959 -1.0180 -0.3425
19007TIP3    H178436   5.103   1.066  14.852 -1.2866 -1.6515 -0.8992
19007TIP3    H278437   5.197   1.139  14.759  0.0267 -0.9359  0.9394
19008TIP3   OH278438   0.274   6.317  11.250  0.0770  0.1568  0.1107
19008TIP3    H178439   0.276   6.413  11.239  1.9754  0.1737  0.2629
19008TIP3    H278440   0.329   6.285  11.179  1.3864 -0.6590  1.4640
19009TIP3   OH278441   2.743   3.091  14.468  0.9160 -0.2396  0.3430
19009TIP3    H178442   2.731   3.049  14.554 -1.2176  0.7111  0.5914
19009TIP3    H278443   2.779   3.177  14.489 -1.8066  0.9421  0.6109
19010TIP3   OH278444   0.543   4.521  15.116  0.2837  0.0562 -0.2279
19010TIP3    H178445   0.475   4.575  15.077 -1.4617  0.3445  2.8835
19010TIP3    H278446   0.497   4.443  15.147  1.8178 -0.8213 -0.0215
19011TIP3   OH278447   2.344   3.358  15.048 -0.2345 -0.1495  0.2941
19011TIP3    H178448   2.359   3.402  14.964 -1.6998  1.0613  0.6079
19011TIP3    H278449   2.250   3.337  15.047 -0.3426  0.1363  1.7153
19012TIP3   OH278450   4.199   4.819  10.149  0.0299  0.1615  0.1193
19012TIP3    H178451   4.228   4.876  10.220  0.8137 -0.2424  0.1351
19012TIP3    H278452   4.122   4.862  10.113  1.4170  1.9891 -0.7998
19013TIP3   OH278453   6.451   1.091  14.779  0.3003 -0.1539 -0.4006
19013TIP3    H178454   6.438   1.170  14.727  1.8955  0.5065  0.1585
19013TIP3    H278455   6.461   1.021  14.714  0.5890  0.3871 -0.9489
19014TIP3   OH278456   3.651   1.068   3.098  0.1220 -0.1720  0.3312
19014TIP3    H178457   3.641   1.128   3.172 -0.8879 -0.7225  0.6558
19014TIP3    H278458   3.697   0.992   3.135 -1.5554 -1.0273  0.7499
19015TIP3   OH278459   0.354   6.796  16.559 -0.1314  0.0891  0.2367
19015TIP3    H178460   0.292   6.850  16.608  0.3733  0.8057  0.1050
19015TIP3    H278461   0.433   6.796  16.612 -0.6104 -1.8647  1.0281
19016TIP3   OH278462   2.705   1.695   2.076  0.0403 -0.0247  0.4968
19016TIP3    H178463   2.766   1.641   2.026  0.4096 -1.4074  2.3244
19016TIP3    H278464   2.646   1.732   2.010  1.7290 -0.0965 -1.1360
19017TIP3   OH278465   4.770   3.974  11.694  0.7254  0.2055 -0.6013
19017TIP3    H178466   4.865   3.978  11.685  0.7435  0.5166 -0.3337
19017TIP3    H278467   4.737   4.037  11.630  0.7973  1.5318  0.6078
19018TIP3   OH278468   2.732   4.624   6.030  0.3660 -0.0266 -0.6258
19018TIP3    H178469   2.744   4.719   6.034 -3.2812  0.5471  0.7167
19018TIP3    H278470   2.723   4.597   6.121  1.5931 -1.7586 -0.9738
19019TIP3   OH278471   4.522   4.686   1.506  0.0325  0.3595  0.6348
19019TIP3    H178472   4.605   4.697   1.553  0.4172  2.3989 -0.4189
19019TIP3    H278473   4.488   4.775   1.496 -1.0724 -0.2083 -1.1007
19020TIP3   OH278474   4.950   6.405  15.502 -0.1307  0.0494  0.3950
19020TIP3    H178475   5.036   6.366  15.488 -0.2949 -0.3812  0.5670
19020TIP3    H278476   4.967   6.499  15.511  0.3717 -0.0783  0.8379
19021TIP3   OH278477   6.080   1.320   2.148 -0.7144 -0.0280  0.2403
19021TIP3    H178478   6.014   1.266   2.103  1.1781 -1.1566 -1.3656
19021TIP3    H278479   6.092   1.395   2.090  1.9219 -1.6129 -1.4615
19022TIP3   OH278480   2.845   2.401  15.639  0.0221 -0.2065 -0.4639
19022TIP3    H178481   2.787   2.330  15.669 -0.0529  0.3932  0.8742
19022TIP3    H278482   2.829   2.472  15.701  0.5847  0.7580 -1.4007
19023TIP3   OH278483   6.370   0.551  15.206  0.2123 -0.4364  0.2069
19023TIP3    H178484   6.352   0.461  15.232  2.0836 -0.8124  0.3169
19023TIP3    H278485   6.433   0.583  15.271 -0.8184  1.1544  0.4974
19024TIP3   OH278486   2.654   0.547  11.771 -0.2041 -0.4346 -0.3258
19024TIP3    H178487   2.729   0.606  11.763  0.5596 -1.5129 -1.4536
19024TIP3    H278488   2.659   0.514  11.861  0.3342 -0.0538 -0.2116
19025TIP3   OH278489   1.946   4.453  14.651 -0.0095 -0.1402  0.1403
19025TIP3    H178490   1.978   4.459  14.561 -2.1795 -0.2670 -0.6876
19025TIP3    H278491   2.025   4.463  14.705  1.1193  1.7478 -1.7123
19026TIP3   OH278492   3.061   6.344  12.724 -0.7712 -0.5743 -0.7910
19026TIP3    H178493   3.034   6.258  12.756  1.0275 -1.1299 -0.6419
19026TIP3    H278494   3.117   6.326  12.649  1.2452  0.3179  0.4176
19027TIP3   OH278495   1.071   2.889  11.120 -0.7790  0.4247 -0.1590
19027TIP3    H178496   1.009   2.862  11.187 -1.0051  0.6708 -0.2698
19027TIP3    H278497   1.099   2.806  11.079 -2.2093  0.3937 -1.1532
19028TIP3   OH278498   3.599   3.268   1.459 -0.5015 -0.2588  0.9800
19028TIP3    H178499   3.628   3.285   1.548  0.3266 -0.9409  0.8525
19028TIP3    H278500   3.659   3.202   1.426 -0.3048  0.5479 -0.3588
19029TIP3   OH278501   5.783   6.139   0.484 -0.5243  0.4314 -0.1327
19029TIP3    H178502   5.805   6.211   0.425 -0.2656  0.3900 -0.0860
19029TIP3    H278503   5.837   6.154   0.562  0.3014 -0.3782 -0.5321
19030TIP3   OH278504   4.553   5.194   4.448 -0.1706  0.1735  0.7378
19030TIP3    H178505   4.506   5.122   4.406 -0.8563  0.5271  0.8858
19030TIP3    H278506   4.598   5.238   4.376 -1.7697  1.1029  0.2442
19031TIP3   OH278507   6.011   5.197   4.516  0.3452  0.1023 -0.1324
19031TIP3    H178508   6.102   5.224   4.525  0.1743  0.5162  0.3810
19031TIP3    H278509   5.983   5.175   4.605  0.4702 -1.7892 -0.5185
19032TIP3   OH278510   5.065   4.370  13.979 -0.4048  0.5872  0.3402
19032TIP3    H178511   5.026   4.347  14.063  0.8471  1.3655  1.1747
19032TIP3    H278512   5.109   4.454  13.995  0.9670  0.1135 -0.7249
19033TIP3   OH278513   4.215   4.088   4.953  0.1358 -0.8130 -0.0414
19033TIP3    H178514   4.181   4.139   5.027 -0.1620 -1.0856  0.0090
19033TIP3    H278515   4.288   4.038   4.991  0.3418 -0.5339 -0.0604
19034TIP3   OH278516   5.556   6.336  12.013 -0.5343  0.5136 -0.9169
19034TIP3    H178517   5.543   6.430  12.027  0.9778  0.3707  2.3012
19034TIP3    H278518   5.648   6.328  11.989  1.2229 -0.3178  4.6558
19035TIP3   OH278519   5.053   1.602  12.777  0.0412  0.2926 -0.0797
19035TIP3    H178520   5.117   1.570  12.714 -0.4587  0.1773 -0.5353
19035TIP3    H278521   5.027   1.525  12.827 -0.4882  0.1393 -0.5740
19036TIP3   OH278522   3.733   3.784  11.418  0.2305 -0.0548 -0.5112
19036TIP3    H178523   3.700   3.697  11.396 -0.7902  0.0586  0.4556
19036TIP3    H278524   3.736   3.831  11.335  0.2032 -0.8211 -0.9504
19037TIP3   OH278525   2.564   6.060  16.541  0.5369  0.6045  0.3528
19037TIP3    H178526   2.588   6.116  16.614 -0.5077 -1.0914  2.1019
19037TIP3    H278527   2.631   5.991  16.541  0.8893  0.9209 -0.7376
19038TIP3   OH278528   0.485   0.206  11.480  0.2189 -0.5223 -0.1715
19038TIP3    H178529   0.402   0.192  11.526 -0.0164 -0.4474 -0.5680
19038TIP3    H278530   0.461   0.204  11.388  0.6650 -0.5198 -0.2864
19039TIP3   OH278531   1.946   5.750   1.068  0.4911 -0.0404  0.0133
19039TIP3    H178532   2.002   5.802   1.011 -0.2916  0.4189 -0.3436
19039TIP3    H278533   1.884   5.707   1.009 -0.2495  0.3419  0.4842
19040TIP3   OH278534   2.676   5.041   3.318  0.4655 -0.2143 -0.1639
19040TIP3    H178535   2.619   5.117   3.326  1.2680  0.2426  1.7227
19040TIP3    H278536   2.662   5.010   3.229 -0.4974  1.6417 -0.7102
19041TIP3   OH278537   2.666   3.522   0.565  0.6420 -0.0438  0.2207
19041TIP3    H178538   2.608   3.591   0.598  1.6082  0.5122  0.7895
19041TIP3    H278539   2.644   3.514   0.472 -1.0295 -0.5301  0.6184
19042TIP3   OH278540   0.210   3.607  13.661 -0.1915 -0.7302  0.3516
19042TIP3    H178541   0.231   3.667  13.589  2.8342 -2.4287 -0.3573
19042TIP3    H278542   0.144   3.653  13.712 -0.7080  1.5789 -2.1631
19043TIP3   OH278543   6.109   0.071   2.311  0.1305  0.0053  0.6371
19043TIP3    H178544   6.198   0.098   2.290 -0.5468  2.6063  0.7700
19043TIP3    H278545   6.117   0.023   2.394  1.3800  0.2115  0.6491
19044TIP3   OH278546   1.338   6.001  13.829  0.3172  0.3982 -0.1665
19044TIP3    H178547   1.273   6.039  13.888  1.0123 -0.0194  0.9045
19044TIP3    H278548   1.336   5.907  13.848  1.0048  0.3398 -0.3337
19045TIP3   OH278549   1.445   1.150   4.110 -0.1920  0.1622  0.0533
19045TIP3    H178550   1.484   1.075   4.066  0.9833  0.0326  1.2483
19045TIP3    H278551   1.404   1.114   4.189 -0.1288  0.6959  0.3379
19046TIP3   OH278552   1.913   4.445   6.088 -0.2301  0.5179 -0.1848
19046TIP3    H178553   1.923   4.501   6.011  0.1937 -0.9109 -1.2113
19046TIP3    H278554   2.003   4.431   6.119 -0.3794  0.8729  0.4118
19047TIP3   OH278555   5.489   0.768   4.343  0.1244 -0.5276 -0.2725
19047TIP3    H178556   5.395   0.774   4.328 -0.0336  0.5517  0.9423
19047TIP3    H278557   5.528   0.780   4.256 -0.8140  2.3060 -0.4300
19048TIP3   OH278558   2.153   3.180  14.141 -0.2929 -0.3112 -0.4349
19048TIP3    H178559   2.236   3.208  14.103  0.5381 -1.1386  0.6924
19048TIP3    H278560   2.111   3.261  14.171  1.3749 -0.0532  1.4195
19049TIP3   OH278561   5.510   3.449   1.403 -0.5998 -1.1128 -0.4748
19049TIP3    H178562   5.509   3.411   1.490 -0.3367 -0.2690 -0.0971
19049TIP3    H278563   5.540   3.378   1.346  0.8362 -1.2012  0.3544
19050TIP3   OH278564   6.100   2.709  11.046  0.1075  0.0099  0.2702
19050TIP3    H178565   6.058   2.762  11.114  0.6798  1.2166 -0.2807
19050TIP3    H278566   6.056   2.735  10.965 -0.0759 -0.8910  0.0645
19051TIP3   OH278567   6.643   3.137   2.305  0.4483  0.4872 -0.0541
19051TIP3    H178568   6.586   3.063   2.325  0.4732  0.1557 -1.1431
19051TIP3    H278569   6.600   3.181   2.232  0.2369  1.7834  0.8210
19052TIP3   OH278570   1.403   1.799  12.919 -0.2911  0.6076 -0.2905
19052TIP3    H178571   1.370   1.830  13.003 -1.7670 -0.5052 -0.4050
19052TIP3    H278572   1.328   1.754  12.880  1.1170 -1.1765 -1.0564
19053TIP3   OH278573   3.158   4.043  16.434 -0.9079 -0.1445 -0.2527
19053TIP3    H178574   3.123   4.126  16.401 -0.7603  0.7765  1.7355
19053TIP3    H278575   3.253   4.052  16.425 -0.9561 -0.7156 -1.3808
19054TIP3   OH278576   5.737   2.338  10.942  0.2714  0.1346 -0.4188
19054TIP3    H178577   5.753   2.333  11.036 -0.1269  2.4766 -0.1684
19054TIP3    H278578   5.814   2.382  10.907  0.2426 -0.3790 -1.1537
19055TIP3   OH278579   0.259   3.243  16.640  0.3167  0.1280  0.6880
19055TIP3    H178580   0.309   3.164  16.661  0.6366  0.2534  0.4048
19055TIP3    H278581   0.173   3.210  16.612  0.5012 -0.1295  0.4131
19056TIP3   OH278582   5.072   4.646   5.363  0.6613  1.2669 -0.6323
19056TIP3    H178583   5.033   4.733   5.349 -0.5865  0.5403 -1.9832
19056TIP3    H278584   5.150   4.663   5.415 -1.8977  2.7876  3.2458
19057TIP3   OH278585   0.112   3.562  15.166 -0.0092  0.3362 -0.0664
19057TIP3    H178586   0.114   3.543  15.073 -0.9951  0.5648 -0.1505
19057TIP3    H278587   0.038   3.623  15.176 -0.5499 -0.4616  0.9879
19058TIP3   OH278588   5.553   6.439  12.832  0.3530  0.3479 -0.4127
19058TIP3    H178589   5.646   6.427  12.811  0.8142  2.6161  0.0107
19058TIP3    H278590   5.507   6.413  12.752  1.5224  1.2953 -1.4393
19059TIP3   OH278591   5.620   2.509   3.509  0.5199  0.0451  0.1829
19059TIP3    H178592   5.675   2.586   3.521  0.7599 -0.1200  0.1369
19059TIP3    H278593   5.546   2.523   3.569  0.2597  0.5943 -0.2567
19060TIP3   OH278594   5.250   1.075   3.504 -0.2465 -0.1478 -0.0422
19060TIP3    H178595   5.253   0.989   3.462 -2.6898  1.0660 -3.0985
19060TIP3    H278596   5.322   1.123   3.463 -1.9396  0.6804 -2.2829
19061TIP3   OH278597   5.238   1.536   5.513 -0.0646 -0.2858  0.2200
19061TIP3    H178598   5.229   1.555   5.419 -1.7001 -0.0655  0.3803
19061TIP3    H278599   5.155   1.567   5.551  0.6626 -0.1546  1.7801
19062TIP3   OH278600   2.817   4.458  12.096 -0.3142 -0.0474  0.0471
19062TIP3    H178601   2.816   4.454  12.001  0.9510 -0.0457  0.0155
19062TIP3    H278602   2.741   4.511  12.119 -1.1104 -0.7483 -0.9078
19063TIP3   OH278603   5.935   1.546  13.970 -0.4307 -0.2026 -0.0407
19063TIP3    H178604   5.997   1.597  14.022  0.9274 -2.5343  0.8023
19063TIP3    H278605   5.939   1.584  13.883  2.5002 -0.4278 -0.1128
19064TIP3   OH278606   2.554   5.340  15.235 -0.2220  0.2487 -0.1987
19064TIP3    H178607   2.542   5.279  15.162 -0.9564  0.9023 -0.6499
19064TIP3    H278608   2.649   5.352  15.241  0.2188 -3.1523  1.8296
19065TIP3   OH278609   1.135   1.150  10.865  0.2557  0.5834 -0.0075
19065TIP3    H178610   1.112   1.238  10.894 -2.0988 -0.0041  0.1964
19065TIP3    H278611   1.099   1.092  10.934  1.0775 -0.5542 -0.5032
19066TIP3   OH278612   0.018   0.066  14.447  0.0604  0.1301 -0.2396
19066TIP3    H178613  -0.015  -0.019  14.477  1.7792 -0.2132  0.8015
19066TIP3    H278614   0.053   0.108  14.526 -0.3467  1.6303 -0.8211
19067TIP3   OH278615   5.901   2.512   3.912 -0.0478  0.2935  0.1128
19067TIP3    H178616   5.912   2.589   3.857  1.6835  0.7641  1.0618
19067TIP3    H278617   5.986   2.498   3.953 -0.3762 -1.9790  0.1774
19068TIP3   OH278618   2.799   2.253   0.553 -0.0012  0.4713 -0.2564
19068TIP3    H178619   2.822   2.260   0.460 -2.0991  1.3888 -0.7767
19068TIP3    H278620   2.788   2.159   0.568  2.6809  0.0809 -0.2481
19069TIP3   OH278621   1.552   2.490   2.653 -0.1175 -0.2548 -0.6865
19069TIP3    H178622   1.522   2.401   2.669  0.5085 -0.2857  0.4173
19069TIP3    H278623   1.475   2.545   2.672  0.4512 -0.3174  2.2899
19070TIP3   OH278624   6.418   6.037   2.661 -0.3129 -0.6574  0.4624
19070TIP3    H178625   6.354   6.057   2.593 -0.1926  0.0290  0.5454
19070TIP3    H278626   6.496   6.010   2.613 -1.0389 -2.8162  0.3647
19071TIP3   OH278627   2.925   3.821  16.118 -0.1848  0.2816 -0.0373
19071TIP3    H178628   3.016   3.795  16.106 -0.4243 -1.2351  1.0166
19071TIP3    H278629   2.913   3.896  16.061  1.0277 -1.0490 -2.1827
19072TIP3   OH278630   5.296   4.795   0.429 -0.0575 -0.6699 -0.2821
19072TIP3    H178631   5.304   4.699   0.429  0.9872 -0.5961 -1.5117
19072TIP3    H278632   5.351   4.823   0.502 -0.3253 -0.9917  0.0498
19073TIP3   OH278633   2.588   2.021   1.781  0.1833 -0.7932  0.3421
19073TIP3    H178634   2.565   1.938   1.822 -0.4244 -0.4358  0.7364
19073TIP3    H278635   2.524   2.031   1.710  1.2859 -1.4591 -0.7999
19074TIP3   OH278636   0.706   3.959   3.609 -0.3127  0.2377 -0.1229
19074TIP3    H178637   0.791   3.973   3.568 -0.6318 -1.2699 -1.4238
19074TIP3    H278638   0.682   4.044   3.646  0.5629  1.3742 -2.0212
19075TIP3   OH278639   5.650   6.305  11.101  1.2703  0.1967 -0.1717
19075TIP3    H178640   5.638   6.395  11.073  0.1301 -0.0330 -0.4771
19075TIP3    H278641   5.633   6.306  11.195  0.0587  0.1026 -0.3810
19076TIP3   OH278642   2.486   3.234   2.055  0.1319 -0.2984  0.1982
19076TIP3    H178643   2.543   3.242   1.979 -1.5317  0.9430 -0.9986
19076TIP3    H278644   2.425   3.164   2.032 -0.2486 -0.0611  0.4714
19077TIP3   OH278645   1.201   0.590   0.679  0.3743  0.4407  0.7249
19077TIP3    H178646   1.284   0.561   0.717  0.6162 -0.4839 -0.4733
19077TIP3    H278647   1.202   0.558   0.589 -1.2168  0.5519  0.6319
19078TIP3   OH278648   0.257   2.054  11.247 -0.2215 -0.2868  0.2579
19078TIP3    H178649   0.333   2.003  11.277  0.0231 -0.8647 -1.2130
19078TIP3    H278650   0.295   2.135  11.213 -0.3677 -0.1180  0.5016
19079TIP3   OH278651   6.698   0.831  13.159 -0.4268  0.0218  0.6339
19079TIP3    H178652   6.612   0.794  13.138 -0.4951 -0.6947  2.1021
19079TIP3    H278653   6.728   0.868  13.076 -1.6703 -0.6831 -0.1685
19080TIP3   OH278654   0.500   0.754   5.673 -0.0274 -0.1491  0.3389
19080TIP3    H178655   0.569   0.688   5.663 -0.1885 -0.3809  0.7521
19080TIP3    H278656   0.427   0.720   5.621  0.0103 -0.1220  0.2671
19081TIP3   OH278657   3.987   6.360   1.243 -0.3156  0.1961 -0.4023
19081TIP3    H178658   3.961   6.271   1.267 -2.0494  0.9827  0.8760
19081TIP3    H278659   4.039   6.391   1.318  0.7972  0.0834 -1.1060
19082TIP3   OH278660   3.833   2.980  11.765  0.0782  0.9284 -0.2813
19082TIP3    H178661   3.766   2.990  11.833 -2.4957  1.2016 -2.6566
19082TIP3    H278662   3.869   3.068  11.754  1.0350  0.7507  1.1251
19083TIP3   OH278663   2.753   6.563   3.520 -1.0237 -0.4291 -0.3176
19083TIP3    H178664   2.712   6.491   3.568 -0.6500 -0.1811  0.3876
19083TIP3    H278665   2.776   6.626   3.588  0.2195 -0.4090 -0.7415
19084TIP3   OH278666   2.315   5.507   4.605  0.3892  0.1708  0.1293
19084TIP3    H178667   2.272   5.422   4.595  1.1479 -0.4597  1.8635
19084TIP3    H278668   2.284   5.540   4.689 -0.3475  1.9155 -0.7845
19085TIP3   OH278669   5.288   4.176   2.225 -0.6774 -0.5082 -0.3255
19085TIP3    H178670   5.274   4.268   2.203 -0.6010 -0.5693 -0.6357
19085TIP3    H278671   5.384   4.166   2.227 -0.6689 -0.3316  0.7659
19086TIP3   OH278672   0.180   1.727   5.432 -0.0282  0.7196  0.3817
19086TIP3    H178673   0.106   1.785   5.414 -0.8774 -0.0225  1.3759
19086TIP3    H278674   0.210   1.753   5.519  0.1307  0.2226  0.4757
19087TIP3   OH278675   2.416   3.725  10.754 -0.3886  0.4688  0.5521
19087TIP3    H178676   2.455   3.761  10.833  0.4907  3.0749 -0.9405
19087TIP3    H278677   2.328   3.763  10.751 -1.6259 -2.0344  1.7262
19088TIP3   OH278678   6.607   2.148  15.751 -0.5488  0.0692  0.3875
19088TIP3    H178679   6.687   2.125  15.703 -0.9285  1.4068 -0.9850
19088TIP3    H278680   6.570   2.063  15.777  0.4242 -0.6516 -0.4526
19089TIP3   OH278681   4.660   1.507   4.814 -0.4420  0.2296  0.5846
19089TIP3    H178682   4.607   1.489   4.891 -2.3206  1.9745 -0.2069
19089TIP3    H278683   4.608   1.476   4.740 -0.6683  2.4160 -0.2470
19090TIP3   OH278684   6.768   2.651  11.887  0.2201  0.7008 -0.0761
19090TIP3    H178685   6.793   2.615  11.802  0.2162  0.2945  0.0934
19090TIP3    H278686   6.718   2.730  11.866 -0.3121  0.2657 -0.4660
19091TIP3   OH278687   1.069   0.347  13.850  0.0522  0.1139 -0.5113
19091TIP3    H178688   1.082   0.390  13.935  0.5818  0.0780 -0.5749
19091TIP3    H278689   1.099   0.411  13.786  0.5113 -0.2182 -0.6248
19092TIP3   OH278690   0.853   1.360  16.732 -0.2376 -0.2804 -0.2537
19092TIP3    H178691   0.863   1.380  16.825  1.9482  1.0227 -0.7024
19092TIP3    H278692   0.931   1.308  16.710  0.4664  1.3328 -1.8022
19093TIP3   OH278693   1.863   5.103  16.721  0.1581 -0.0563  0.0582
19093TIP3    H178694   1.910   5.177  16.682  2.2706 -1.3379 -0.0177
19093TIP3    H278695   1.840   5.047  16.646 -0.9741  0.2450  0.1635
19094TIP3   OH278696   2.972   1.051  11.785  0.2550  0.0737 -0.0470
19094TIP3    H178697   3.048   1.024  11.836  1.3961 -0.9255 -2.1366
19094TIP3    H278698   2.935   0.970  11.751 -0.0995  0.7249 -1.2791
19095TIP3   OH278699   6.407   5.058  15.261  0.4146 -0.4080  0.1415
19095TIP3    H178700   6.454   5.000  15.320 -1.2135 -1.0379  0.8924
19095TIP3    H278701   6.456   5.054  15.179  3.1281  1.0094  1.5632
19096TIP3   OH278702   5.136   2.012   2.222  0.4917  0.0693  0.4270
19096TIP3    H178703   5.121   2.104   2.199  0.4545  0.6914  2.7156
19096TIP3    H278704   5.069   1.992   2.287 -0.2828 -2.0022 -0.8972
19097TIP3   OH278705   2.167   5.384   0.178 -0.8005 -0.1723  0.4154
19097TIP3    H178706   2.234   5.450   0.193  0.0310 -0.5747 -1.2816
19097TIP3    H278707   2.164   5.373   0.083 -0.8312 -2.6192  0.6165
19098TIP3   OH278708   3.784   2.197  13.674  0.0854  0.1096  0.9559
19098TIP3    H178709   3.768   2.177  13.766  0.6341  0.3317  1.1018
19098TIP3    H278710   3.803   2.290  13.672 -5.6008  1.6358 -0.1016
19099TIP3   OH278711   6.617   1.567   4.541 -0.2638 -0.1820  0.1192
19099TIP3    H178712   6.603   1.587   4.448 -0.4703 -0.5825  0.0602
19099TIP3    H278713   6.663   1.644   4.576 -0.5779  0.1612 -0.2136
19100TIP3   OH278714   6.443   4.752   0.646 -0.2585  0.4936  0.8200
19100TIP3    H178715   6.512   4.740   0.711 -0.5567 -2.5092  0.7153
19100TIP3    H278716   6.466   4.690   0.576 -1.3151  1.8261 -0.7892
19101TIP3   OH278717   3.412   1.464  12.583  0.0836 -0.2645  0.4915
19101TIP3    H178718   3.395   1.546  12.630  3.2828  0.6562  0.2448
19101TIP3    H278719   3.351   1.401  12.622 -1.2928  1.7942  1.8794
19102TIP3   OH278720   1.717   0.903   1.383 -0.3019 -0.3945  0.0468
19102TIP3    H178721   1.687   0.950   1.305 -0.0007  0.2192  0.2993
19102TIP3    H278722   1.643   0.907   1.443 -0.7983 -1.4799 -0.4595
19103TIP3   OH278723   1.871   3.027  12.713  0.5938 -0.4596  0.3418
19103TIP3    H178724   1.792   3.078  12.728 -0.0173 -0.8697 -1.2299
19103TIP3    H278725   1.845   2.936  12.730  0.5082 -0.6746 -0.8610
19104TIP3   OH278726   3.595   3.136  11.897 -0.1378 -0.2480 -0.4621
19104TIP3    H178727   3.649   3.215  11.898 -0.2999 -0.1414  0.8230
19104TIP3    H278728   3.551   3.135  11.982 -2.3450 -0.2175 -1.5260
19105TIP3   OH278729   3.196   6.003   4.372  0.0930 -0.2480 -0.3000
19105TIP3    H178730   3.254   6.038   4.304  0.5563 -0.8874 -0.2426
19105TIP3    H278731   3.121   5.970   4.323  0.4760 -0.8116 -0.5265
19106TIP3   OH278732   2.520   2.378  15.611  0.5309  0.2108  0.3330
19106TIP3    H178733   2.571   2.381  15.530 -0.8632 -1.5416 -0.6633
19106TIP3    H278734   2.480   2.465  15.617  1.4793  0.7094 -0.2658
19107TIP3   OH278735   1.071   4.857  13.174 -0.2206  0.2094  0.4517
19107TIP3    H178736   1.049   4.879  13.265 -0.9157 -0.6271  0.4928
19107TIP3    H278737   1.085   4.762  13.174  1.6566  0.4396  0.0523
19108TIP3   OH278738   2.108   5.160   3.725  0.5605  0.0573  0.6852
19108TIP3    H178739   2.069   5.177   3.811 -0.8007 -1.8599  0.5084
19108TIP3    H278740   2.054   5.209   3.664 -1.2939 -1.9962  0.5245
19109TIP3   OH278741   0.838   0.987  12.934  0.3443  0.7380  0.0250
19109TIP3    H178742   0.798   0.933  12.865  1.7695 -0.0051 -0.2479
19109TIP3    H278743   0.775   0.983  13.006 -0.9655  1.1572 -1.0518
19110TIP3   OH278744   2.624   3.120   4.337  0.0026  0.3263  0.8758
19110TIP3    H178745   2.657   3.107   4.427  1.6095  1.0526  0.4294
19110TIP3    H278746   2.606   3.031   4.306  0.6902 -0.0398  1.4733
19111TIP3   OH278747   3.787   3.879   5.925 -0.8832 -0.5911  0.1789
19111TIP3    H178748   3.769   3.895   6.017 -1.7092  0.9661 -0.2198
19111TIP3    H278749   3.722   3.931   5.878  0.3393 -0.3065 -1.2878
19112TIP3   OH278750   6.129   6.043   3.563  1.4042  0.0009  0.8224
19112TIP3    H178751   6.117   6.136   3.583 -0.0459 -0.1042  0.5690
19112TIP3    H278752   6.159   6.042   3.472 -0.5929  0.1811  0.1158
19113TIP3   OH278753   2.488   2.850   3.853 -0.7338 -0.0115  0.4414
19113TIP3    H178754   2.526   2.879   3.770 -1.2675 -0.1541  0.1433
19113TIP3    H278755   2.430   2.922   3.880 -0.2271  0.2253  0.9165
19114TIP3   OH278756   6.026   5.998  15.890  0.3056  0.1487 -0.0901
19114TIP3    H178757   6.007   6.018  15.982  2.1527 -0.8342  0.5609
19114TIP3    H278758   6.041   6.083  15.850 -2.9722  0.8374 -0.1737
19115TIP3   OH278759   2.552   4.137   5.000  0.6026 -0.2010  0.9095
19115TIP3    H178760   2.476   4.138   5.058 -0.2660 -0.6611 -0.1700
19115TIP3    H278761   2.626   4.118   5.057 -0.2821 -1.1192  1.7992
19116TIP3   OH278762   5.800   2.503  16.615  0.2684  0.2393 -0.6336
19116TIP3    H178763   5.753   2.477  16.535 -2.3854 -1.2329  1.2277
19116TIP3    H278764   5.755   2.582  16.645 -1.1817 -1.1939  1.1901
19117TIP3   OH278765   5.453   2.103  10.700 -0.3050 -0.6318  0.0665
19117TIP3    H178766   5.537   2.146  10.685 -0.8946  0.2973 -0.7196
19117TIP3    H278767   5.450   2.032  10.635  0.6650 -1.9282  1.3621
19118TIP3   OH278768   3.392   0.112  12.522 -0.1465  0.4736 -0.1565
19118TIP3    H178769   3.319   0.152  12.474 -0.1364  1.3509  0.5226
19118TIP3    H278770   3.404   0.027  12.481 -0.4759  0.9811 -1.3570
19119TIP3   OH278771   3.808   1.737  16.751  0.0185  0.5857 -0.0928
19119TIP3    H178772   3.885   1.794  16.751 -0.6534  1.5012 -0.7806
19119TIP3    H278773   3.739   1.788  16.710 -1.6837  0.7364  2.6778
19120TIP3   OH278774   3.774   3.499   0.344 -0.7890 -0.2012  0.1822
19120TIP3    H178775   3.780   3.594   0.338 -0.5960 -0.1872  0.5895
19120TIP3    H278776   3.683   3.482   0.365 -1.0562 -0.1601 -0.8740
19121TIP3   OH278777   0.952   3.771  12.461  0.0983 -0.5350  0.6377
19121TIP3    H178778   1.010   3.801  12.391  0.4829 -2.0233  0.2910
19121TIP3    H278779   0.907   3.695  12.424 -0.4014 -0.7612  1.6804
19122TIP3   OH278780   1.619   5.780  13.656 -0.5604 -0.1900 -0.0516
19122TIP3    H178781   1.697   5.800  13.708 -1.4293  1.3218  0.7198
19122TIP3    H278782   1.648   5.710  13.596  1.3954  0.3758  0.1622
19123TIP3   OH278783   2.812   4.747   2.702  0.0596  0.4155 -0.1593
19123TIP3    H178784   2.884   4.690   2.673  0.6482  0.8670  0.3870
19123TIP3    H278785   2.810   4.737   2.797  1.0294  2.2764  0.1070
19124TIP3   OH278786   0.086   2.326   0.066  0.7077 -0.3745 -0.5129
19124TIP3    H178787   0.054   2.406   0.107 -1.4655 -0.9015 -1.0869
19124TIP3    H278788   0.054   2.256   0.122  3.1550 -0.9018  0.3654
19125TIP3   OH278789   5.503   2.305  14.306 -0.1939  0.0917 -0.1648
19125TIP3    H178790   5.567   2.295  14.236  1.2806  0.7972  1.0134
19125TIP3    H278791   5.556   2.308  14.386 -1.8854 -2.4170  1.2020
19126TIP3   OH278792   4.863   4.193   5.366  0.1152  0.3299 -0.2201
19126TIP3    H178793   4.919   4.115   5.358  0.6327  0.8589 -2.1212
19126TIP3    H278794   4.917   4.255   5.415  0.1599 -0.0861  0.2684
19127TIP3   OH278795   6.230   2.334  16.320 -0.2895 -0.1440 -0.2686
19127TIP3    H178796   6.152   2.315  16.269 -1.2015  2.0120  0.1887
19127TIP3    H278797   6.243   2.257  16.376 -2.4179 -0.3403  0.0258
19128TIP3   OH278798   0.094   5.255  16.427 -0.0477  0.2565 -0.1081
19128TIP3    H178799   0.116   5.341  16.464  0.6199  0.6953 -1.4732
19128TIP3    H278800   0.002   5.242  16.450  0.2792  0.5888  1.5174
19129TIP3   OH278801   3.168   4.473  15.281  0.2759 -0.0248 -0.7943
19129TIP3    H178802   3.163   4.384  15.245  1.0228  0.6243 -2.6226
19129TIP3    H278803   3.106   4.473  15.354 -0.6148 -1.7025 -1.5019
19130TIP3   OH278804   1.297   3.681   1.301 -0.1975  0.1314 -0.2460
19130TIP3    H178805   1.389   3.661   1.287  1.0417  4.3103  0.5316
19130TIP3    H278806   1.261   3.691   1.213  0.3394 -0.5221 -0.5512
19131TIP3   OH278807   6.766   5.397   2.064  0.3638 -0.2323  0.0204
19131TIP3    H178808   6.822   5.406   2.142 -0.3911  0.7269  0.4830
19131TIP3    H278809   6.807   5.328   2.013  1.1794 -0.5244  1.0230
19132TIP3   OH278810   2.931   2.669   2.420  0.5822  0.4906  0.1153
19132TIP3    H178811   2.939   2.662   2.324 -0.1032 -0.7974  0.1275
19132TIP3    H278812   2.837   2.674   2.435  0.6693  0.2217  0.7494
19133TIP3   OH278813   3.179   3.738  12.333 -0.7190  0.0216  0.2731
19133TIP3    H178814   3.122   3.766  12.261  0.7316 -0.0884 -0.9458
19133TIP3    H278815   3.169   3.643  12.336  0.4069 -0.1532 -0.8485
19134TIP3   OH278816   5.670   3.894   1.981 -0.5337  0.6174 -0.8926
19134TIP3    H178817   5.741   3.957   1.993 -0.8432  0.6598  1.1458
19134TIP3    H278818   5.598   3.945   1.943 -1.0314  1.7723  1.3961
19135TIP3   OH278819   3.967   1.404   4.492  0.1087  0.2910  0.8369
19135TIP3    H178820   3.912   1.331   4.465  0.4497 -0.0127  0.9505
19135TIP3    H278821   3.907   1.478   4.500 -0.0761  0.2720 -0.2520
19136TIP3   OH278822   0.378   3.073   4.514 -0.4695  0.4041 -0.5815
19136TIP3    H178823   0.283   3.080   4.527 -0.3403  2.4501 -0.4824
19136TIP3    H278824   0.414   3.148   4.561  1.3232 -0.9188  0.2615
19137TIP3   OH278825   1.746   4.097  11.463 -0.1378 -0.7022 -0.4514
19137TIP3    H178826   1.822   4.107  11.520 -1.3769 -1.9779  1.5980
19137TIP3    H278827   1.777   4.046  11.389  1.4856  0.7949 -0.8794
19138TIP3   OH278828   4.135   5.417   4.921  0.4434 -0.3551 -0.2093
19138TIP3    H178829   4.058   5.414   4.864  0.6671 -0.2355 -0.5221
19138TIP3    H278830   4.106   5.376   5.003 -0.6290  1.6277  0.4930
19139TIP3   OH278831   6.341   2.259  13.849 -0.2196  0.5626 -0.5328
19139TIP3    H178832   6.286   2.289  13.777  0.4952  0.4851 -1.1162
19139TIP3    H278833   6.279   2.245  13.921 -1.3125 -1.5036 -1.7425
19140TIP3   OH278834   3.787   3.228   5.089 -0.3233  0.0590  0.2690
19140TIP3    H178835   3.704   3.182   5.102 -0.0861 -0.6983 -0.7934
19140TIP3    H278836   3.846   3.162   5.054 -0.1291  1.2711 -1.8784
19141TIP3   OH278837   2.798   2.121   1.057  0.0642  0.1733 -0.3584
19141TIP3    H178838   2.825   2.210   1.078  0.5694  0.0093 -0.3093
19141TIP3    H278839   2.789   2.078   1.142  1.5367 -0.3215 -0.4300
19142TIP3   OH278840   0.295   0.296  14.448 -0.5947  0.3306  0.1497
19142TIP3    H178841   0.231   0.345  14.396 -0.2018  0.6580 -0.0335
19142TIP3    H278842   0.326   0.227  14.390 -0.9073  0.0693  0.2955
19143TIP3   OH278843   4.815   0.525  12.221 -0.1419  0.1027  0.7926
19143TIP3    H178844   4.767   0.452  12.261  0.4894  0.4955  2.3014
19143TIP3    H278845   4.900   0.526  12.265  2.1269 -1.6932 -3.0188
19144TIP3   OH278846   4.268   5.110   4.975  0.1977  0.3586  0.5071
19144TIP3    H178847   4.198   5.148   5.028 -0.2289  0.8655 -0.3775
19144TIP3    H278848   4.342   5.103   5.034 -0.3621  0.5772  1.2532
19145TIP3   OH278849   4.547   4.555  13.528  0.1570  0.0204  0.1164
19145TIP3    H178850   4.525   4.465  13.552 -1.0996  0.3861  0.4184
19145TIP3    H278851   4.463   4.601  13.530  1.0702  1.7383  2.1899
19146TIP3   OH278852   2.131   5.197   2.940  0.2143  0.0351 -0.0565
19146TIP3    H178853   2.130   5.209   2.845  0.7852 -0.4507 -0.1258
19146TIP3    H278854   2.109   5.105   2.953  1.0923 -0.1447  0.2330
19147TIP3   OH278855   5.845   2.280  15.889 -0.1720  0.0827  0.1467
19147TIP3    H178856   5.829   2.207  15.949 -0.0513  0.2699  0.4102
19147TIP3    H278857   5.935   2.266  15.858  0.5100  1.0746  1.5639
19148TIP3   OH278858   6.542   3.302  16.049  0.0418  0.0908 -0.1167
19148TIP3    H178859   6.487   3.281  15.974  0.5868  1.4103 -0.9284
19148TIP3    H278860   6.566   3.217  16.086 -1.7488 -0.5350 -0.2923
19149TIP3   OH278861   1.436   5.343   0.039 -0.1485 -0.1675  0.2045
19149TIP3    H178862   1.483   5.259   0.045  0.4895  0.1842  0.1797
19149TIP3    H278863   1.498   5.402  -0.002 -0.7671  0.2012 -0.2174
19150TIP3   OH278864   0.682   5.221  12.326  0.1640  0.4039 -0.0036
19150TIP3    H178865   0.671   5.147  12.385 -2.8632 -0.1045 -1.0299
19150TIP3    H278866   0.740   5.189  12.257  2.6797  0.5996  1.8632
19151TIP3   OH278867   5.842   3.498   2.005 -0.6785 -0.3215 -0.0468
19151TIP3    H178868   5.911   3.533   2.062 -1.7712 -0.6949  1.5618
19151TIP3    H278869   5.837   3.560   1.932  0.5742  0.3242  0.3886
19152TIP3   OH278870   3.450   5.247  14.878  0.1052  0.0054  0.1338
19152TIP3    H178871   3.485   5.159  14.862 -0.2610  0.3727 -3.3890
19152TIP3    H278872   3.515   5.289  14.935  1.4778 -1.7678 -0.0331
19153TIP3   OH278873   5.903   0.878  15.048 -1.1469 -0.3456 -0.1234
19153TIP3    H178874   5.934   0.967  15.038 -1.3456 -0.1661  0.7902
19153TIP3    H278875   5.956   0.827  14.987 -1.4409  0.4773 -1.0892
19154TIP3   OH278876   0.457   4.712  16.178  0.4095  0.8889 -0.2242
19154TIP3    H178877   0.380   4.657  16.171 -0.1060  1.5856 -0.1283
19154TIP3    H278878   0.423   4.801  16.187  1.1965  1.1060  0.8365
19155TIP3   OH278879   2.766   4.217  13.730  0.7288 -0.8160 -0.0974
19155TIP3    H178880   2.802   4.225  13.642  1.1975  0.8840  0.2114
19155TIP3    H278881   2.831   4.259  13.787 -0.2737 -0.5008  0.8617
19156TIP3   OH278882   5.986   2.600  12.867 -0.1590 -0.1714  0.3331
19156TIP3    H178883   5.894   2.589  12.889 -0.8487  0.6193 -1.9686
19156TIP3    H278884   6.031   2.595  12.952 -2.2199 -1.1850  1.4418
19157TIP3   OH278885   5.488   6.305   5.661 -0.2501 -0.1864  0.1925
19157TIP3    H178886   5.467   6.378   5.603 -1.2216 -1.4062 -1.0596
19157TIP3    H278887   5.483   6.341   5.749 -1.0889  1.1585 -0.3819
19158TIP3   OH278888   0.318   0.791  10.812  0.1196 -0.4475 -0.3777
19158TIP3    H178889   0.411   0.790  10.834 -0.0665  0.5117  0.5286
19158TIP3    H278890   0.278   0.843  10.881 -0.9271  0.1565 -1.4088
19159TIP3   OH278891   5.792   0.650  11.543 -0.1798  0.2730  0.1622
19159TIP3    H178892   5.749   0.655  11.458  0.6569  0.7398 -0.2428
19159TIP3    H278893   5.774   0.734  11.584 -0.1725  0.2333  0.2476
19160TIP3   OH278894   1.010   0.681   4.350  0.2309 -0.0484 -0.1046
19160TIP3    H178895   0.918   0.699   4.371 -0.4200 -2.6277 -0.3765
19160TIP3    H278896   1.027   0.595   4.389  2.2506 -0.0599 -0.8875
19161TIP3   OH278897   1.238   6.098   5.295 -0.1950 -0.1915  0.2246
19161TIP3    H178898   1.275   6.098   5.383  0.2544  3.6845  0.1984
19161TIP3    H278899   1.287   6.031   5.247  1.1152 -0.7730  2.2916
19162TIP3   OH278900   3.085   2.949  12.418  0.5987  0.1144  0.3843
19162TIP3    H178901   3.082   2.964  12.324 -0.7507 -0.7731  0.2612
19162TIP3    H278902   3.174   2.973  12.444  1.1353 -0.0970 -1.1934
19163TIP3   OH278903   3.668   6.655  12.321  0.0891  0.5659  0.3379
19163TIP3    H178904   3.577   6.672  12.344 -0.6422 -2.0716 -0.2741
19163TIP3    H278905   3.665   6.625  12.230  1.7520  1.6168 -0.1080
19164TIP3   OH278906   4.869   2.572   5.101 -0.1448  0.1411 -0.7285
19164TIP3    H178907   4.840   2.589   5.191 -0.4477 -0.4643 -0.7097
19164TIP3    H278908   4.942   2.511   5.111  0.3130  0.6649 -0.8512
19165TIP3   OH278909   0.841   2.532   3.672  0.0346  0.0917  0.1448
19165TIP3    H178910   0.908   2.471   3.704  0.2157  0.0193 -0.3697
19165TIP3    H278911   0.775   2.532   3.741  1.1400  1.1058  1.2757
19166TIP3   OH278912   6.814   6.628   0.889  0.0399 -0.2463  0.4514
19166TIP3    H178913   6.886   6.691   0.895  2.4639 -2.6350 -1.4968
19166TIP3    H278914   6.757   6.664   0.820  0.9594  0.1965 -0.0882
19167TIP3   OH278915   5.406   1.191  11.452  0.1562 -0.1378  0.1809
19167TIP3    H178916   5.426   1.162  11.541  0.2130  4.8139  2.1074
19167TIP3    H278917   5.478   1.248  11.428 -0.1855 -0.8235 -2.9055
19168TIP3   OH278918   3.840   6.361  12.004  0.3894 -0.3952  0.1830
19168TIP3    H178919   3.835   6.370  12.100 -0.0856 -0.7935  0.2036
19168TIP3    H278920   3.771   6.297  11.983  0.8091 -0.6651 -0.3779
19169TIP3   OH278921   4.024   0.978  14.076  0.1440  0.5849 -0.3809
19169TIP3    H178922   4.045   0.913  14.009 -0.2463  0.5626 -0.4822
19169TIP3    H278923   3.929   0.987  14.072  0.1538  0.8429 -0.0693
19170TIP3   OH278924   6.045   5.029  12.861  0.1098 -0.0836  0.0020
19170TIP3    H178925   6.083   5.015  12.774  1.3864 -2.2185  0.8279
19170TIP3    H278926   6.084   4.961  12.916 -3.0985 -0.9140  1.5105
19171TIP3   OH278927   3.180   3.214   1.972 -0.3481  0.3753  0.0775
19171TIP3    H178928   3.233   3.292   1.959 -0.2489  0.3638  0.3953
19171TIP3    H278929   3.157   3.216   2.065  1.2965 -1.0042  0.5586
19172TIP3   OH278930   4.064   3.690   6.863  0.5784 -0.4965  0.1577
19172TIP3    H178931   3.975   3.717   6.839  0.4797 -0.8351  0.1451
19172TIP3    H278932   4.073   3.719   6.954  0.1903 -1.1196  0.3982
19173TIP3   OH278933   0.359   0.924   5.196  0.1489  0.1333  0.4427
19173TIP3    H178934   0.426   0.930   5.264  0.3594 -1.1237  0.3793
19173TIP3    H278935   0.357   1.010   5.155  1.9605  0.1019  0.2391
19174TIP3   OH278936   1.278   3.784   4.623 -0.0570  0.5519 -0.3487
19174TIP3    H178937   1.286   3.737   4.706  1.0830  0.9232 -0.2345
19174TIP3    H278938   1.279   3.715   4.556 -0.8455  0.2622 -0.0719
19175TIP3   OH278939   0.974   2.653   4.660  0.3645 -0.1505 -0.2358
19175TIP3    H178940   1.024   2.733   4.675 -0.4196  0.2004  0.6338
19175TIP3    H278941   0.928   2.669   4.578 -1.2478  1.1082  0.8445
19176TIP3   OH278942   4.898   5.550   1.176 -0.1789 -0.3038  0.3613
19176TIP3    H178943   4.949   5.560   1.256 -1.5959  2.2584  1.0575
19176TIP3    H278944   4.960   5.571   1.106  1.1603 -2.8587  0.6581
19177TIP3   OH278945   3.444   5.562   5.912 -0.5031 -0.4063  0.8123
19177TIP3    H178946   3.526   5.573   5.863 -0.5415 -0.0428  0.8298
19177TIP3    H278947   3.437   5.641   5.965 -2.1551  0.7953 -1.0769
19178TIP3   OH278948   3.743   4.550   0.181 -0.2055 -0.1732 -0.1325
19178TIP3    H178949   3.649   4.533   0.191 -0.0584 -0.1257  1.4915
19178TIP3    H278950   3.784   4.507   0.256  1.0144  0.3338 -0.4869
19179TIP3   OH278951   4.130   3.417  11.532 -0.3135 -0.1312 -0.6011
19179TIP3    H178952   4.053   3.455  11.490 -0.9330  0.1207  0.6964
19179TIP3    H278953   4.102   3.330  11.560 -0.0915 -0.0842 -0.2224
19180TIP3   OH278954   6.606   0.481  16.916  0.7259  0.3221  0.2550
19180TIP3    H178955   6.529   0.491  16.973  0.7137  2.0773 -0.0334
19180TIP3    H278956   6.623   0.386  16.916 -1.4217 -0.1252  0.3400
19181TIP3   OH278957   2.008   0.503  16.051 -0.0915 -0.7322  0.1943
19181TIP3    H178958   1.941   0.439  16.030  0.3974 -1.3304  0.4179
19181TIP3    H278959   1.976   0.585  16.015 -0.0476 -1.3934 -1.4271
19182TIP3   OH278960   1.522   6.121   0.998 -1.0409 -0.0101 -0.3153
19182TIP3    H178961   1.524   6.039   0.950  0.3458  0.6412 -1.4758
19182TIP3    H278962   1.610   6.128   1.037 -1.3905  0.5728  0.4034
19183TIP3   OH278963   2.937   3.766   5.098 -0.3362 -0.3916  0.4398
19183TIP3    H178964   2.998   3.839   5.101 -0.3832 -0.3509  0.3950
19183TIP3    H278965   2.957   3.720   5.016 -0.9715  0.1434 -0.0248
19184TIP3   OH278966   0.770   6.671  16.433  0.1196  0.1076 -0.1347
19184TIP3    H178967   0.805   6.613  16.501 -0.7106  2.5454  2.5929
19184TIP3    H278968   0.846   6.721  16.403  0.0029  1.6825  1.9304
19185TIP3   OH278969   4.592   3.507   1.503 -0.3445  0.3828 -0.3336
19185TIP3    H178970   4.547   3.537   1.581 -0.1424  1.5304 -0.6451
19185TIP3    H278971   4.522   3.489   1.440 -0.5126 -0.6109  0.1082
19186TIP3   OH278972   3.450   4.799  11.922 -0.2394 -0.4199 -0.4973
19186TIP3    H178973   3.357   4.784  11.939 -0.6777  1.5607 -0.9247
19186TIP3    H278974   3.457   4.797  11.826  0.3390 -1.4209 -0.4464
19187TIP3   OH278975   4.993   2.548   0.394  0.2150 -0.5218  0.1083
19187TIP3    H178976   4.918   2.599   0.425 -0.9894 -2.5716  0.7420
19187TIP3    H278977   5.069   2.594   0.430 -0.8906 -0.0374  1.9503
19188TIP3   OH278978   5.429   2.728  12.903  0.4874 -0.5219 -0.0374
19188TIP3    H178979   5.391   2.784  12.836 -0.3397 -0.3008  0.5990
19188TIP3    H278980   5.357   2.711  12.964  0.8026 -2.0192 -0.0434
19189TIP3   OH278981   0.252   1.110  14.957 -0.5321  0.4309 -0.2468
19189TIP3    H178982   0.284   1.031  14.913  1.1221  1.0131 -0.1392
19189TIP3    H278983   0.243   1.175  14.887  0.6351  0.9066  0.0275
19190TIP3   OH278984   1.548   5.429  13.822  0.0937 -0.1841  0.6295
19190TIP3    H178985   1.641   5.407  13.825  0.0508 -0.3784  0.5172
19190TIP3    H278986   1.504   5.345  13.809  0.0375  0.1312 -1.5975
19191TIP3   OH278987   2.049   1.156  15.343  0.5248  0.1524  0.5044
19191TIP3    H178988   2.015   1.171  15.431 -0.1405  2.1438 -0.0322
19191TIP3    H278989   2.067   1.244  15.310  0.1386 -0.5197 -1.5945
19192TIP3   OH278990   3.852   5.645  11.719 -0.0769  0.9220  0.6400
19192TIP3    H178991   3.809   5.606  11.643  0.2550 -0.4685  1.1302
19192TIP3    H278992   3.781   5.674  11.775 -0.3816  0.0043  0.7541
19193TIP3   OH278993   3.283   0.377   4.337 -0.0180  0.0288  0.4578
19193TIP3    H178994   3.308   0.386   4.429 -0.2338 -1.3578  0.6793
19193TIP3    H278995   3.195   0.339   4.339  0.2211 -0.6117 -0.3041
19194TIP3   OH278996   2.949   3.263   2.690 -0.0247 -0.1434  0.1793
19194TIP3    H178997   2.976   3.212   2.766 -0.3876  0.4670  0.7266
19194TIP3    H278998   2.867   3.305   2.717  0.6911  1.4181  0.0717
19195TIP3   OH278999   1.107   2.160   2.599  0.4943  0.5565 -0.1111
19195TIP3    H179000   1.066   2.231   2.649 -2.4177 -1.1169  0.1028
19195TIP3    H279001   1.138   2.201   2.519 -0.7037  2.1816  0.2089
19196TIP3   OH279002   6.175   4.338   4.587  0.3079  0.6373 -0.2377
19196TIP3    H179003   6.203   4.416   4.635  1.2004  1.5550 -2.1487
19196TIP3    H279004   6.254   4.306   4.544  0.5697 -2.8421  2.3472
19197TIP3   OH279005   4.240   6.020   3.563  0.3201 -0.3679 -1.0942
19197TIP3    H179006   4.259   6.094   3.621 -0.2654 -1.0421 -0.0066
19197TIP3    H279007   4.194   6.059   3.489  1.1990  0.5288 -1.1909
19198TIP3   OH279008   2.800   5.566   4.707  0.3678 -0.5650  0.2390
19198TIP3    H179009   2.767   5.491   4.658  0.4447 -0.0460 -0.6178
19198TIP3    H279010   2.755   5.560   4.792 -0.1777 -1.1669 -0.0791
19199TIP3   OH279011   4.196   0.220  12.716  0.1748  0.5082  0.2838
19199TIP3    H179012   4.276   0.273  12.718  1.1928 -0.9558 -0.0567
19199TIP3    H279013   4.177   0.209  12.623 -0.0565  0.3166  0.3533
19200TIP3   OH279014   4.810   0.686  15.388 -0.1664  0.1844  0.4294
19200TIP3    H179015   4.797   0.767  15.338  1.7127  0.9562  1.0990
19200TIP3    H279016   4.770   0.618  15.334 -0.4157  1.3424 -0.9048
19201TIP3   OH279017   0.627   3.975   0.545  0.1814  0.0276  0.3553
19201TIP3    H179018   0.718   3.965   0.574  0.3305  0.0005 -0.1106
19201TIP3    H279019   0.629   4.049   0.484  0.0620 -0.5283 -0.3466
19202TIP3   OH279020   5.176   3.756  14.064 -0.0738 -0.0519  0.4379
19202TIP3    H179021   5.159   3.668  14.029 -0.0204  0.4600 -0.9061
19202TIP3    H279022   5.129   3.757  14.148 -1.5974 -0.7444 -0.3641
19203TIP3   OH279023   5.469   2.266  13.315  0.6813  0.7273  0.2472
19203TIP3    H179024   5.439   2.339  13.368  1.9295 -0.1810  2.3415
19203TIP3    H279025   5.561   2.285  13.297  1.3664 -0.7787  1.8140
19204TIP3   OH279026   5.228   0.165  14.069  0.3250 -0.2932 -0.6785
19204TIP3    H179027   5.188   0.092  14.021 -1.8803  0.3281  0.0659
19204TIP3    H279028   5.202   0.243  14.020 -2.3671  0.3990  1.5642
19205TIP3   OH279029   1.850   0.491  14.549  0.2117  0.7192 -0.0147
19205TIP3    H179030   1.835   0.423  14.614  0.2171  0.8276  0.1001
19205TIP3    H279031   1.766   0.537  14.543 -0.2247 -0.1831 -1.1228
19206TIP3   OH279032   3.366   4.074   0.371  0.0171 -0.4185 -0.5865
19206TIP3    H179033   3.380   4.132   0.446 -3.4193 -1.3001  0.9395
19206TIP3    H279034   3.374   3.986   0.407  0.6533 -0.9071 -1.8446
19207TIP3   OH279035   1.585   1.808  13.912  0.0042  0.3076  0.2239
19207TIP3    H179036   1.523   1.853  13.855 -0.5742 -0.9271 -0.1568
19207TIP3    H279037   1.573   1.716  13.892  0.0203 -0.1509  2.1173
19208TIP3   OH279038   6.811   2.039  12.840  0.8420 -0.1367  0.0482
19208TIP3    H179039   6.891   1.987  12.830  0.4882 -0.4392 -1.4754
19208TIP3    H279040   6.754   2.009  12.769 -0.2049  0.8528  0.4367
19209TIP3   OH279041   6.741   0.615  11.448  0.5917 -0.1628 -0.5326
19209TIP3    H179042   6.647   0.631  11.460  0.3223 -2.1535  0.4164
19209TIP3    H279043   6.753   0.614  11.353 -0.4493 -0.3898 -0.6751
19210TIP3   OH279044   3.775   0.290   5.909 -0.1291  0.0080  0.3130
19210TIP3    H179045   3.703   0.304   5.847  0.0969 -1.3325 -0.2766
19210TIP3    H279046   3.734   0.297   5.995 -0.4193  2.0364  0.0683
19211TIP3   OH279047   3.341   4.486   0.576 -0.1170 -0.4808 -0.5340
19211TIP3    H179048   3.268   4.447   0.527  0.2127 -0.8038 -0.7722
19211TIP3    H279049   3.301   4.557   0.627 -0.7542 -1.2424  0.0433
19212TIP3   OH279050   1.733   5.455  14.258 -0.2688 -0.2690 -0.4060
19212TIP3    H179051   1.739   5.424  14.349 -0.8878  0.3900 -0.1251
19212TIP3    H279052   1.701   5.379  14.210  0.7150 -0.8268 -0.2022
19213TIP3   OH279053   2.847   1.175   4.200  0.4429  0.4052 -0.3229
19213TIP3    H179054   2.882   1.260   4.175 -0.6853  1.1612  0.5788
19213TIP3    H279055   2.915   1.136   4.254  1.2048  0.4628 -1.2102
19214TIP3   OH279056   4.817   6.188  11.879  0.1377  0.3518  0.6843
19214TIP3    H179057   4.912   6.188  11.889  0.0547 -2.3537  2.5597
19214TIP3    H279058   4.789   6.103  11.913 -2.8053  0.1707 -1.7406
19215TIP3   OH279059   2.662   4.884  11.373 -0.2791  0.1311 -0.4497
19215TIP3    H179060   2.608   4.934  11.434 -1.1647 -0.4473 -0.7469
19215TIP3    H279061   2.718   4.949  11.331  0.0399  0.5912  0.6689
19216TIP3   OH279062   0.222   0.276   3.842  0.4569  0.1965  0.3871
19216TIP3    H179063   0.272   0.197   3.863 -0.8688 -0.7058  0.2553
19216TIP3    H279064   0.182   0.302   3.925 -0.6009 -0.3668  0.0731
19217TIP3   OH279065   3.586   1.385   4.580  0.3302  0.1295  0.4382
19217TIP3    H179066   3.671   1.384   4.625  1.1508  0.7311 -1.0526
19217TIP3    H279067   3.597   1.325   4.506  0.3747  2.1903 -1.3184
19218TIP3   OH279068   1.903   2.976   0.176  0.2191 -0.3714 -0.0867
19218TIP3    H179069   1.913   2.891   0.133 -1.9622 -0.4910 -0.4714
19218TIP3    H279070   1.827   3.015   0.134 -1.1652  0.1269  2.6640
19219TIP3   OH279071   3.389   4.597   2.649  0.0585  0.6674 -0.4367
19219TIP3    H179072   3.375   4.579   2.556 -0.3973 -0.1967 -0.2127
19219TIP3    H279073   3.392   4.511   2.690  2.2801  0.9430  0.0927
19220TIP3   OH279074   2.912   4.722  10.998 -0.0853 -0.5678 -0.0520
19220TIP3    H179075   2.866   4.640  11.011  0.2701 -0.5886  1.2097
19220TIP3    H279076   2.983   4.701  10.937 -1.2684 -0.6818 -1.4690
19221TIP3   OH279077   4.438   3.505   2.101 -0.5330  0.4533 -0.8545
19221TIP3    H179078   4.415   3.571   2.036 -0.9113 -0.9974 -2.2459
19221TIP3    H279079   4.354   3.472   2.133 -0.3444  0.3974 -0.4012
19222TIP3   OH279080   2.985   4.522  16.696  0.0356  0.0483 -0.1944
19222TIP3    H179081   2.916   4.573  16.738  0.3097  0.5751 -0.3869
19222TIP3    H279082   3.067   4.556  16.732  0.1744 -1.8496  1.5089
19223TIP3   OH279083   6.733   2.120  13.859 -0.4278 -0.2272 -0.2661
19223TIP3    H179084   6.666   2.057  13.888 -0.5881  0.8161  1.8106
19223TIP3    H279085   6.813   2.068  13.852 -1.1886 -1.2808 -1.7632
19224TIP3   OH279086   3.322   2.450   3.111 -0.5420  0.1244  0.3228
19224TIP3    H179087   3.331   2.389   3.184  0.9917 -1.5741 -1.1693
19224TIP3    H279088   3.373   2.527   3.138 -0.5483 -0.1931  1.2854
19225TIP3   OH279089   4.853   3.656  15.281 -0.3001  0.3768 -0.1917
19225TIP3    H179090   4.942   3.621  15.273 -0.9704 -1.9075  1.4642
19225TIP3    H279091   4.851   3.728  15.218  2.3719 -0.1853 -1.0792
19226TIP3   OH279092   5.605   3.556   4.567 -0.0146 -0.0231 -0.2767
19226TIP3    H179093   5.578   3.573   4.477  0.6423 -0.5815 -0.5914
19226TIP3    H279094   5.592   3.461   4.579 -0.8481  0.1668  0.4829
19227TIP3   OH279095   1.378   0.372  14.116  0.2275 -0.0936  0.0759
19227TIP3    H179096   1.383   0.282  14.082  2.1708 -0.8385  2.0506
19227TIP3    H279097   1.469   0.396  14.131 -0.3601  1.5816  1.1721
19228TIP3   OH279098   3.676   1.380  13.646 -0.6352  0.2940 -0.5071
19228TIP3    H179099   3.744   1.369  13.712 -1.0331  0.4754 -0.0705
19228TIP3    H279100   3.692   1.308  13.584  0.1915  0.5670 -0.6166
19229TIP3   OH279101   2.191   4.122  16.013  0.1056 -0.2384  0.2745
19229TIP3    H179102   2.119   4.176  15.981  1.0067  1.1164  0.4251
19229TIP3    H279103   2.201   4.148  16.105  0.8253 -0.3559  0.2350
19230TIP3   OH279104   4.836   3.369  11.380 -0.3233 -0.8914  0.2688
19230TIP3    H179105   4.745   3.398  11.375 -0.0679  0.3955  2.2123
19230TIP3    H279106   4.887   3.444  11.351  0.1759 -1.3387 -0.0370
19231TIP3   OH279107   2.380   3.890  13.772 -0.1247 -0.4705  0.3133
19231TIP3    H179108   2.467   3.925  13.755  0.2513 -0.7305  1.6349
19231TIP3    H279109   2.321   3.963  13.751  0.3343 -0.4782 -1.1639
19232TIP3   OH279110   0.844   4.805   2.393 -0.0826 -0.1743 -0.0693
19232TIP3    H179111   0.923   4.806   2.447  0.3790  2.5594 -0.6649
19232TIP3    H279112   0.863   4.740   2.325 -0.5328 -3.4268  2.6148
19233TIP3   OH279113   6.407   1.647  14.086  0.2241  0.3083 -0.3693
19233TIP3    H179114   6.391   1.741  14.093  0.1101  0.2656 -0.0280
19233TIP3    H279115   6.344   1.616  14.022 -0.1602  0.3630 -0.0211
19234TIP3   OH279116   4.634   1.891  10.664 -0.0172 -0.3862 -0.0759
19234TIP3    H179117   4.722   1.866  10.634  0.0619  0.8715 -0.9725
19234TIP3    H279118   4.650   1.947  10.740  0.0660  1.2596 -1.2665
19235TIP3   OH279119   3.086   5.521  10.322 -0.2116  0.3790 -0.7294
19235TIP3    H179120   3.103   5.589  10.387  0.4250  1.5410 -2.0365
19235TIP3    H279121   3.161   5.462  10.329 -0.4491  0.1639 -0.0075
19236TIP3   OH279122   3.960   5.443  12.523 -0.0354  0.0564  0.6344
19236TIP3    H179123   4.016   5.519  12.542  0.5163 -0.2622  0.3198
19236TIP3    H279124   3.955   5.396  12.607 -1.1667  0.9326  1.0799
19237TIP3   OH279125   3.394   0.550   2.431 -0.2477  0.6717 -0.1432
19237TIP3    H179126   3.401   0.478   2.368 -1.3839 -0.0794  0.5381
19237TIP3    H279127   3.403   0.508   2.516  0.8841  1.6213  0.2205
19238TIP3   OH279128   5.318   6.166   3.327  0.2291  0.1960  0.5030
19238TIP3    H179129   5.361   6.242   3.288  1.4097 -0.1121  1.1536
19238TIP3    H279130   5.351   6.091   3.278  0.5433 -0.0572  1.0978
19239TIP3   OH279131   0.114   3.898  16.029  0.3147 -0.5350  0.5751
19239TIP3    H179132   0.091   3.817  15.985  1.8973 -0.8979  0.3488
19239TIP3    H279133   0.063   3.898  16.110 -3.4627  0.6071 -1.5230
19240TIP3   OH279134   5.967   0.273   4.321 -0.2857 -1.0519 -0.7844
19240TIP3    H179135   6.038   0.335   4.309  1.0054 -2.5785 -1.4209
19240TIP3    H279136   5.915   0.280   4.240  0.9376 -2.0807 -1.7079
19241TIP3   OH279137   4.743   5.731  15.146 -0.1067 -0.0030 -0.2186
19241TIP3    H179138   4.804   5.798  15.114 -1.1924  0.3768 -1.5945
19241TIP3    H279139   4.665   5.742  15.092 -0.8390 -1.4671  0.4885
19242TIP3   OH279140   3.508   2.866  16.445 -0.1993  0.5201 -0.2248
19242TIP3    H179141   3.428   2.812  16.451  0.3893 -0.4166 -0.6337
19242TIP3    H279142   3.531   2.864  16.353  0.5112  0.4616 -0.0507
19243TIP3   OH279143   5.291   2.676  11.894  0.1391 -0.5779 -0.2643
19243TIP3    H179144   5.251   2.600  11.937 -2.3356  1.0430  0.4773
19243TIP3    H279145   5.301   2.648  11.803  0.6650 -2.2782  0.2643
19244TIP3   OH279146   3.518   0.315  15.149  0.3629 -0.2344 -0.3580
19244TIP3    H179147   3.569   0.236  15.166  0.9912  0.3100  0.3731
19244TIP3    H279148   3.432   0.296  15.187  0.6207 -0.4352  0.1354
19245TIP3   OH279149   1.807   1.139   6.158  0.0114  0.2856  0.1025
19245TIP3    H179150   1.759   1.218   6.133 -0.9779 -0.1037  0.7182
19245TIP3    H279151   1.754   1.100   6.227  0.2040 -1.2036 -0.5694
19246TIP3   OH279152   2.918   4.129   2.277  0.2094 -0.1225 -0.2818
19246TIP3    H179153   2.846   4.066   2.281  1.8965 -2.1092  0.5208
19246TIP3    H279154   2.951   4.134   2.367  1.7690 -0.1349 -0.8234
19247TIP3   OH279155   4.131   4.751   6.500  0.2405 -0.0072 -0.1962
19247TIP3    H179156   4.045   4.748   6.459  0.5862 -0.0316 -0.9441
19247TIP3    H279157   4.163   4.661   6.495 -0.5974 -0.4918  2.1235
19248TIP3   OH279158   3.013   2.386   0.942  0.7228 -0.6050 -0.5260
19248TIP3    H179159   3.076   2.455   0.922 -0.0671  0.1410 -0.4749
19248TIP3    H279160   2.972   2.413   1.024 -0.6929 -0.3233 -1.2978
19249TIP3   OH279161   4.149   2.341   4.802  0.6832 -0.0259  0.3824
19249TIP3    H179162   4.221   2.382   4.851  1.3894 -1.4842  0.6296
19249TIP3    H279163   4.110   2.280   4.864  0.1076 -0.2304 -0.1789
19250TIP3   OH279164   4.084   2.072  12.786 -0.5665 -0.2681  0.1713
19250TIP3    H179165   3.991   2.091  12.801 -0.0214  2.1689  1.0094
19250TIP3    H279166   4.087   2.037  12.697 -2.0651  2.1509 -0.9597
19251TIP3   OH279167   2.606   5.076   0.341 -0.1040 -0.5217 -0.9099
19251TIP3    H179168   2.626   5.131   0.266  0.0574  1.0780  0.2616
19251TIP3    H279169   2.684   5.023   0.354  0.0265 -0.5074 -1.6045
19252TIP3   OH279170   3.281   0.990  14.657  0.3309 -0.4641  0.3915
19252TIP3    H179171   3.266   0.904  14.618 -0.2425 -1.2659  2.2718
19252TIP3    H279172   3.336   0.973  14.734 -0.4406  0.7189  1.2491
19253TIP3   OH279173   5.093   3.894   4.295  0.0947  0.0427  0.1844
19253TIP3    H179174   5.101   3.889   4.200  1.8168  0.1443  0.2911
19253TIP3    H279175   5.068   3.806   4.322  1.1689 -0.4017 -0.2427
19254TIP3   OH279176   6.132   0.820  10.589 -0.1943 -0.4789 -0.0456
19254TIP3    H179177   6.168   0.878  10.522 -1.7888 -0.1005 -0.6224
19254TIP3    H279178   6.202   0.758  10.607  0.9696  0.6406 -0.5993
19255TIP3   OH279179   4.424   3.175  17.013 -0.4025  0.5092 -0.3672
19255TIP3    H179180   4.407   3.214  16.928 -0.4377  2.6678  0.5499
19255TIP3    H279181   4.516   3.150  17.011 -0.3754  0.6549 -0.9935
19256TIP3   OH279182   3.300   0.545   3.201 -0.0501 -0.3069 -0.1376
19256TIP3    H179183   3.312   0.456   3.235 -1.8540 -0.9576 -1.0966
19256TIP3    H279184   3.244   0.588   3.266 -0.4568 -0.3765 -0.4384
19257TIP3   OH279185   0.226   1.052   4.030 -0.4217  0.6008 -0.5693
19257TIP3    H179186   0.163   1.098   4.085  0.1418 -0.2059  0.7995
19257TIP3    H279187   0.193   1.064   3.941 -2.7048 -0.0674  0.1090
19258TIP3   OH279188   4.329   5.730   1.825  0.2759  0.0357 -0.5106
19258TIP3    H179189   4.258   5.784   1.860  0.0888 -0.4042 -0.2095
19258TIP3    H279190   4.405   5.788   1.826  0.0405  0.3445 -0.3386
19259TIP3   OH279191   3.396   3.007   0.645  0.6235  0.2273 -0.0176
19259TIP3    H179192   3.395   3.102   0.654 -1.1468  0.1726  0.6317
19259TIP3    H279193   3.406   2.992   0.551 -1.1822  1.1189 -0.3913
19260TIP3   OH279194   3.768   1.774   3.175 -0.0590 -0.2413  0.7072
19260TIP3    H179195   3.673   1.789   3.169  0.0498  0.1119 -0.2640
19260TIP3    H279196   3.784   1.763   3.269 -1.0884 -0.4950  0.8742
19261TIP3   OH279197   3.069   1.077   2.701 -0.3711 -0.2158 -0.5613
19261TIP3    H179198   3.068   1.164   2.660 -0.5929 -0.8517 -1.9618
19261TIP3    H279199   2.991   1.034   2.665  0.5280 -1.4902 -1.0155
19262TIP3   OH279200   2.884   0.274   2.849  0.0129  0.3583  0.0964
19262TIP3    H179201   2.898   0.289   2.942  0.2185  0.0631  0.1116
19262TIP3    H279202   2.812   0.211   2.846  0.1185  0.2392  0.0595
19263TIP3   OH279203   0.470   3.348   3.751  0.9519  0.0417 -0.0740
19263TIP3    H179204   0.433   3.382   3.670  0.2848  0.9857  0.6203
19263TIP3    H279205   0.447   3.412   3.818  2.6964 -0.0010  0.6335
19264TIP3   OH279206   3.978   3.977   4.840  0.2677 -0.6550  0.0326
19264TIP3    H179207   3.911   3.984   4.908 -0.8179 -0.1783 -1.0506
19264TIP3    H279208   4.058   4.010   4.882 -0.8650  1.7901  0.4403
19265TIP3   OH279209   5.551   1.904   0.081 -0.0957  0.7497  0.4478
19265TIP3    H179210   5.597   1.852   0.015  1.4774 -0.7659  2.6004
19265TIP3    H279211   5.619   1.955   0.123 -1.0037  1.3953  1.1650
19266TIP3   OH279212   3.832   5.460  13.618  0.2124 -0.3246 -0.5133
19266TIP3    H179213   3.920   5.426  13.602  0.4448  0.7771 -1.8227
19266TIP3    H279214   3.776   5.408  13.560 -0.0980 -1.3741  0.6999
19267TIP3   OH279215   4.274   1.247  12.282 -0.3642 -0.2465  0.0461
19267TIP3    H179216   4.187   1.265  12.317 -1.0575 -0.9757 -1.1906
19267TIP3    H279217   4.281   1.305  12.206  0.4833  0.2242  0.4724
19268TIP3   OH279218   6.274   4.398   3.394 -0.0305 -0.6072  0.4301
19268TIP3    H179219   6.329   4.473   3.418 -2.8137  2.0957 -0.9774
19268TIP3    H279220   6.307   4.326   3.448  1.1505  2.2482  3.9151
19269TIP3   OH279221   6.174   1.042   3.028  0.0993  0.4977 -0.1688
19269TIP3    H179222   6.095   1.068   2.982 -0.1042  1.2099  0.5616
19269TIP3    H279223   6.157   1.063   3.120  0.5186 -0.8240  0.2458
19270TIP3   OH279224   6.057   1.043   3.966 -0.1529  0.7786  0.1006
19270TIP3    H179225   6.016   1.094   3.896  0.7463  0.8718 -0.3720
19270TIP3    H279226   6.099   0.970   3.922 -1.0330 -0.1213  0.7330
19271TIP3   OH279227   4.124   2.374   0.895  0.1594 -0.2367 -0.3117
19271TIP3    H179228   4.050   2.406   0.844  0.6623 -0.1716 -1.0122
19271TIP3    H279229   4.087   2.354   0.981 -0.4287  0.9908 -0.2508
19272TIP3   OH279230   6.087   0.726   0.338  0.4485 -0.2435 -0.5984
19272TIP3    H179231   6.097   0.774   0.420  1.5954 -0.1403 -0.7786
19272TIP3    H279232   6.107   0.635   0.361  1.3389 -0.1252 -0.8564
19273TIP3   OH279233   2.245   5.122  13.619  0.2367  0.3141  0.1440
19273TIP3    H179234   2.212   5.209  13.641  1.5469  1.3851 -1.8061
19273TIP3    H279235   2.169   5.075  13.585 -0.4683  0.7078  1.1412
19274TIP3   OH279236   1.852   4.253   4.485 -0.2326  0.0644  0.1885
19274TIP3    H179237   1.825   4.230   4.574 -0.2460 -1.2287 -0.1273
19274TIP3    H279238   1.945   4.235   4.482 -0.1578  0.4530  0.0329
19275TIP3   OH279239   4.612   3.193  11.035  0.9986  0.9033  0.1832
19275TIP3    H179240   4.524   3.171  11.003  0.7816  1.4611  0.3803
19275TIP3    H279241   4.615   3.289  11.033  1.5446  0.8943  0.3400
19276TIP3   OH279242   4.455   3.438  11.283 -0.4525 -0.2561  0.2524
19276TIP3    H179243   4.446   3.343  11.277 -1.1168 -0.1495 -0.6461
19276TIP3    H279244   4.497   3.463  11.201 -0.7049  0.2668  0.2817
19277TIP3   OH279245   4.946   1.916  12.225  0.7508  0.1704 -0.0370
19277TIP3    H179246   4.876   1.852  12.217  0.9938  0.0505 -1.6537
19277TIP3    H279247   4.969   1.916  12.318 -0.0967 -1.1588  0.1969
19278TIP3   OH279248   4.488   3.150   4.829 -0.4404 -0.2483 -0.5587
19278TIP3    H179249   4.455   3.151   4.739 -0.3134  1.6807 -0.6243
19278TIP3    H279250   4.413   3.179   4.882  0.4985  2.4101 -0.5210
19279TIP3   OH279251   4.090   5.793   4.044  0.2863 -0.2278 -0.2472
19279TIP3    H179252   4.116   5.732   3.975  0.5433  0.5129 -0.8210
19279TIP3    H279253   4.077   5.876   3.999 -0.8566 -0.0370  0.3878
19280TIP3   OH279254   3.372   5.764  15.782 -0.5755  0.4330  0.1237
19280TIP3    H179255   3.375   5.859  15.784 -0.9411  0.5027 -1.2666
19280TIP3    H279256   3.298   5.743  15.724 -1.5413 -0.7300  1.6999
19281TIP3   OH279257   0.625   4.390  15.422  0.4594 -0.1707 -0.0394
19281TIP3    H179258   0.623   4.484  15.407 -1.8619 -0.2106 -0.3041
19281TIP3    H279259   0.554   4.355  15.368  0.2952 -1.8822  1.1987
19282TIP3   OH279260   2.087   1.916   5.915 -0.1464  0.2127  0.1119
19282TIP3    H179261   2.005   1.877   5.888  0.3697 -0.2092 -0.8967
19282TIP3    H279262   2.116   1.863   5.989  0.4872 -1.3002 -1.1614
19283TIP3   OH279263   4.712   6.104   4.858  0.0426  0.3643  0.1076
19283TIP3    H179264   4.714   6.150   4.774 -0.2968  2.0139  0.9546
19283TIP3    H279265   4.803   6.107   4.889  0.1165  0.0020 -0.0744
19284TIP3   OH279266   1.155   0.984   5.822  0.1127 -0.5845 -0.5872
19284TIP3    H179267   1.092   1.036   5.873 -0.0616  1.1955 -2.4995
19284TIP3    H279268   1.240   1.022   5.843  0.3526 -1.5953  0.3584
19285TIP3   OH279269   4.051   1.632   5.080 -0.7299  0.2698 -0.5201
19285TIP3    H179270   4.145   1.643   5.074 -0.8902  1.3897 -1.2868
19285TIP3    H279271   4.031   1.558   5.022 -0.4934  1.1603 -1.7993
19286TIP3   OH279272   2.662   3.481   4.952  0.0700 -0.2074 -0.9012
19286TIP3    H179273   2.683   3.401   5.000 -1.4233  1.1139  2.3126
19286TIP3    H279274   2.638   3.544   5.021 -2.7578  1.8077 -3.4473
19287TIP3   OH279275   3.166   2.242   2.953 -0.1413  1.2271  0.0972
19287TIP3    H179276   3.250   2.267   2.993  0.6731  0.3084 -0.9555
19287TIP3    H279277   3.114   2.208   3.025  1.8763 -1.9324  0.2433
19288TIP3   OH279278   4.144   3.311   5.493 -0.7874 -0.8302  0.2266
19288TIP3    H179279   4.148   3.365   5.414  0.2752 -0.5177  0.4812
19288TIP3    H279280   4.056   3.272   5.491 -1.1437 -0.0169 -0.5632
19289TIP3   OH279281   6.473   2.423  11.916 -0.2005  0.0006  0.5417
19289TIP3    H179282   6.568   2.433  11.921  0.1411 -0.3552 -2.9637
19289TIP3    H279283   6.439   2.484  11.980  2.3316  3.6264 -1.2400
19290TIP3   OH279284   6.433   6.285  12.871  0.7204 -0.0952 -0.1219
19290TIP3    H179285   6.371   6.253  12.805  2.9389 -2.0053 -1.4542
19290TIP3    H279286   6.431   6.219  12.940  1.4926 -0.3503 -0.3371
19291TIP3   OH279287   6.670   2.603  14.226 -0.2259  0.0255  0.3021
19291TIP3    H179288   6.750   2.650  14.202 -0.3053  0.5635  1.0634
19291TIP3    H279289   6.600   2.650  14.180 -0.3136  0.7131  1.1186
19292TIP3   OH279290   2.775   5.016   2.852 -0.0946  0.7177  0.3560
19292TIP3    H179291   2.756   5.006   2.945 -1.6737 -1.1193 -0.0917
19292TIP3    H279292   2.710   5.080   2.822 -0.8770 -0.1270  0.1932
19293TIP3   OH279293   3.007   5.088  14.762 -0.2317 -0.6527 -0.0642
19293TIP3    H179294   3.022   4.995  14.778 -1.3911 -0.8734 -0.1825
19293TIP3    H279295   3.030   5.100  14.669  0.8885 -0.5905  0.2054
19294TIP3   OH279296   1.380   6.563  12.880 -0.0499 -0.7484 -0.3171
19294TIP3    H179297   1.287   6.554  12.896 -0.0384 -1.4752 -0.6099
19294TIP3    H279298   1.386   6.588  12.788  0.0662 -1.3380 -0.4721
19295TIP3   OH279299   5.012   0.942  11.943  0.3046  0.2449  0.1920
19295TIP3    H179300   4.944   0.910  11.884 -0.4776 -1.0284  1.7283
19295TIP3    H279301   5.042   0.865  11.990  1.1716  1.1695  1.2140
19296TIP3   OH279302   5.263   6.401  16.544 -0.0421 -0.0194 -0.3095
19296TIP3    H179303   5.270   6.496  16.548 -0.2545  0.0843 -1.7361
19296TIP3    H279304   5.354   6.370  16.537 -0.0036  0.1271 -0.4623
19297TIP3   OH279305   0.904   1.133   3.779 -0.0099  0.5706 -0.1663
19297TIP3    H179306   0.979   1.076   3.797 -1.0634 -0.4155  1.4987
19297TIP3    H279307   0.883   1.117   3.687  0.3556 -1.0029 -0.0113
19298TIP3   OH279308   4.257   6.319  12.653  0.2444 -0.2171  0.0323
19298TIP3    H179309   4.193   6.373  12.697 -0.3400 -0.3637 -0.6218
19298TIP3    H279310   4.274   6.247  12.714  0.4461  0.2752  0.5697
19299TIP3   OH279311   0.418   4.080  14.280  0.0764  0.1124  0.3420
19299TIP3    H179312   0.414   4.162  14.230  0.9505  1.0725  1.7834
19299TIP3    H279313   0.495   4.034  14.246  0.0435  0.2417  0.0858
19300TIP3   OH279314   3.259   2.729   5.597 -0.1535  0.4574  0.7561
19300TIP3    H179315   3.176   2.690   5.624 -1.2421  2.2651  0.2016
19300TIP3    H279316   3.259   2.816   5.638  0.2933  1.4567 -1.2240
19301TIP3   OH279317   1.613   5.138  14.918  0.2901  0.3103 -0.7928
19301TIP3    H179318   1.610   5.114  15.011  0.9663 -1.0523 -1.0839
19301TIP3    H279319   1.629   5.232  14.918 -0.6557  0.4948  0.4635
19302TIP3   OH279320   3.519   6.484  13.390 -0.0027 -0.2722  0.0072
19302TIP3    H179321   3.461   6.525  13.455  0.8440  2.4077 -0.7845
19302TIP3    H279322   3.516   6.543  13.315  0.3300 -2.4298 -1.8074
19303TIP3   OH279323   2.419   6.613   0.993 -0.6887  0.4862  0.5983
19303TIP3    H179324   2.478   6.541   0.970 -2.3187 -0.5917 -0.4744
19303TIP3    H279325   2.402   6.658   0.910 -0.8101  1.2242  1.0166
19304TIP3   OH279326   6.780   3.574   1.385  0.1294 -0.1883  0.1159
19304TIP3    H179327   6.737   3.655   1.357 -1.8175 -0.9720  0.6808
19304TIP3    H279328   6.829   3.545   1.308  1.3259  1.7593  0.0591
19305TIP3   OH279329   6.464   0.550   4.734  0.3282  0.2196  0.1975
19305TIP3    H179330   6.467   0.456   4.715  0.9009  0.2456  0.1331
19305TIP3    H279331   6.536   0.587   4.682 -1.8389  1.1794 -2.3042
19306TIP3   OH279332   2.894   0.615  17.011 -0.1132 -0.0780  0.3848
19306TIP3    H179333   2.848   0.570  16.940 -0.3209 -0.1634  0.5748
19306TIP3    H279334   2.831   0.618  17.083 -0.2508  0.8855  0.2390
19307TIP3   OH279335   4.799   5.368   0.766  0.1692 -0.4778 -0.0854
19307TIP3    H179336   4.744   5.341   0.839 -2.4691  2.0474 -0.9519
19307TIP3    H279337   4.777   5.307   0.695  0.8531 -1.3781  0.4633
19308TIP3   OH279338   0.060   5.229  12.861  0.2716  0.5503 -0.0002
19308TIP3    H179339   0.114   5.299  12.898  2.4818 -1.6651  1.2819
19308TIP3    H279340   0.114   5.193  12.791 -0.5224 -0.2986 -0.1761
19309TIP3   OH279341   6.329   4.576   3.042 -0.1242  0.2225  0.1927
19309TIP3    H179342   6.391   4.503   3.038  0.5355  0.7670  0.1734
19309TIP3    H279343   6.312   4.597   2.950  0.1087  0.4384  0.1983
19310TIP3   OH279344   2.568   2.774  17.033 -0.0247  0.0336 -0.0904
19310TIP3    H179345   2.593   2.853  17.082  0.4196 -0.0873 -0.1139
19310TIP3    H279346   2.543   2.807  16.947 -1.0020  0.2686  0.2724
19311TIP3   OH279347   0.968   6.366   5.051  0.1712 -0.0796  0.2831
19311TIP3    H179348   0.971   6.276   5.019 -0.6161 -0.7784  2.0671
19311TIP3    H279349   0.888   6.402   5.013  0.4557 -0.1400 -0.3855
19312TIP3   OH279350   0.690   5.582   4.755  0.6912  0.5766 -0.3609
19312TIP3    H179351   0.728   5.668   4.734 -0.5823  0.5760 -3.1658
19312TIP3    H279352   0.605   5.583   4.710  0.0855 -1.6807  0.6419
19313TIP3   OH279353   3.144   3.701  11.371  0.0101 -0.3643 -0.2010
19313TIP3    H179354   3.181   3.788  11.357  1.5187 -0.8721  0.4053
19313TIP3    H279355   3.049   3.714  11.370  0.1705  1.7290  2.3008
19314TIP3   OH279356   6.041   2.462  11.874  0.3556  0.5639 -0.2841
19314TIP3    H179357   6.081   2.546  11.894  1.5956  0.9136 -3.6125
19314TIP3    H279358   6.046   2.455  11.778 -1.2543 -2.5454 -0.2731
19315TIP3   OH279359   3.423   3.045   5.451 -0.3001  0.5776 -0.6429
19315TIP3    H179360   3.443   3.134   5.420  3.4149 -0.4363 -1.5405
19315TIP3    H279361   3.432   3.051   5.546  0.7239  1.0007 -0.7557
19316TIP3   OH279362   3.599   1.221   2.862 -0.5763  0.5298  0.4235
19316TIP3    H179363   3.601   1.308   2.901  1.8708  0.3889  0.7516
19316TIP3    H279364   3.601   1.161   2.936  0.3344  0.2331  0.1725
19317TIP3   OH279365   3.192   5.719  16.057  0.0317  0.1309 -0.3926
19317TIP3    H179366   3.165   5.810  16.044 -1.5068 -0.7048 -4.9069
19317TIP3    H279367   3.281   5.715  16.021  0.2696 -0.0706  0.2146
19318TIP3   OH279368   0.923   4.863  15.665 -0.4593 -0.1847 -0.9646
19318TIP3    H179369   0.954   4.937  15.613  0.2067 -0.6818 -1.3115
19318TIP3    H279370   1.003   4.813  15.684 -1.0673 -1.7068 -2.1782
19319TIP3   OH279371   5.277   5.648  14.727 -0.6338  0.0457 -0.1041
19319TIP3    H179372   5.242   5.737  14.720 -0.2421  0.2274  0.1908
19319TIP3    H279373   5.206   5.597  14.766 -0.9943  0.1437 -0.6202
19320TIP3   OH279374   4.057   0.795  15.360 -0.3923  0.0193  0.4320
19320TIP3    H179375   3.989   0.858  15.383 -1.7257 -1.4382  0.6315
19320TIP3    H279376   4.019   0.742  15.290  0.9548 -0.1362 -0.2185
19321TIP3   OH279377   2.094   0.781   3.939 -0.5102  0.1547  0.3574
19321TIP3    H179378   2.026   0.824   3.992 -0.6748 -0.5378  0.7198
19321TIP3    H279379   2.165   0.766   4.001 -0.2920  0.2692  0.1340
19322TIP3   OH279380   0.359   0.760  16.257 -0.0843  0.2953 -0.0560
19322TIP3    H179381   0.422   0.797  16.194  1.6384  0.9615  1.9488
19322TIP3    H279382   0.286   0.730  16.202  1.3215  0.7949 -2.3682
19323TIP3   OH279383   3.503   0.180  10.861 -0.3630  0.3860  0.2587
19323TIP3    H179384   3.531   0.121  10.931  0.8853  0.4193 -0.1949
19323TIP3    H279385   3.527   0.267  10.892  0.4405  0.3731 -0.3324
19324TIP3   OH279386   1.364   0.710   4.850 -0.0800 -0.0342  0.1366
19324TIP3    H179387   1.346   0.732   4.941 -2.0582 -0.0315 -0.2048
19324TIP3    H279388   1.333   0.786   4.801 -1.4315 -1.0775 -0.6844
19325TIP3   OH279389   4.104   2.124  16.214  0.1112  0.2181 -1.0510
19325TIP3    H179390   4.058   2.203  16.185 -1.4673 -1.1479 -2.4831
19325TIP3    H279391   4.186   2.125  16.164  0.4070  1.2708 -0.5631
19326TIP3   OH279392   4.773   4.163  14.213 -0.2234  0.1777  0.1630
19326TIP3    H179393   4.795   4.226  14.281 -0.1489  0.7744 -0.3998
19326TIP3    H279394   4.763   4.216  14.134  1.5017 -0.7008 -0.6814
19327TIP3   OH279395   5.602   6.229  16.637  0.0870  0.0333  0.3321
19327TIP3    H179396   5.684   6.180  16.631 -0.0137  0.0767 -2.4078
19327TIP3    H279397   5.617   6.309  16.588 -1.2071  0.6495  0.8812
19328TIP3   OH279398   0.257   1.283  16.275 -0.2032 -0.9073  0.4570
19328TIP3    H179399   0.296   1.265  16.189  0.8843 -1.0969  0.9812
19328TIP3    H279400   0.321   1.338  16.319 -0.4442 -1.3713  1.4065
19329TIP3   OH279401   3.923   3.066   5.564 -0.4058  0.5436  0.0938
19329TIP3    H179402   3.917   2.973   5.540 -1.4651  0.4382  0.7484
19329TIP3    H279403   4.001   3.071   5.619  0.8818  0.4303 -1.6111
19330TIP3   OH279404   4.052   5.679   1.591 -0.0875  0.1008 -0.2314
19330TIP3    H179405   4.113   5.612   1.620 -0.7329 -0.2961  0.2129
19330TIP3    H279406   3.989   5.688   1.662 -0.0303  1.1609 -0.2870
19331TIP3   OH279407   5.020   3.264   3.166  0.1006 -0.5493 -0.4465
19331TIP3    H179408   5.102   3.272   3.214  1.4204 -0.2944 -2.5947
19331TIP3    H279409   5.013   3.170   3.147 -0.0799 -0.5640 -0.3074
19332TIP3   OH279410   4.210   4.073  15.011  0.1594  0.0892 -0.0199
19332TIP3    H179411   4.119   4.048  15.025  0.0674 -1.2808 -2.6463
19332TIP3    H279412   4.219   4.155  15.061 -2.8727  0.9890 -0.7027
19333TIP3   OH279413   6.138   0.845  14.363  0.3947  0.2255 -0.4526
19333TIP3    H179414   6.153   0.750  14.358 -1.1135 -0.0078 -0.8678
19333TIP3    H279415   6.064   0.855  14.422  0.8813  1.2032  0.0170
19334TIP3   OH279416   3.819   3.171   3.980  0.1872  0.2900  0.6507
19334TIP3    H179417   3.739   3.222   3.966  0.8844  0.9932 -1.0460
19334TIP3    H279418   3.806   3.091   3.928  0.4496  0.2636  0.6227
19335TIP3   OH279419   1.789   6.346   5.625 -0.0633 -0.6135  0.2134
19335TIP3    H179420   1.842   6.272   5.655  1.8544 -0.5452 -2.6419
19335TIP3    H279421   1.743   6.312   5.548  0.3539  0.9373 -0.7562
19336TIP3   OH279422   1.661   2.933   3.607  0.8243  0.7924 -0.3387
19336TIP3    H179423   1.753   2.914   3.588  0.9343  1.5655 -0.6061
19336TIP3    H279424   1.652   3.027   3.590 -0.6312  0.2906 -2.8099
19337TIP3   OH279425   5.948   5.820   2.996  0.1490 -0.1977 -0.6519
19337TIP3    H179426   5.962   5.733   2.959 -0.9366 -0.2145 -1.0364
19337TIP3    H279427   5.956   5.879   2.921  3.1333  0.3007 -0.0598
19338TIP3   OH279428   3.342   2.046   3.280 -0.2274 -0.1312  0.6183
19338TIP3    H179429   3.253   2.027   3.309 -0.6829 -0.7685 -1.0755
19338TIP3    H279430   3.348   2.142   3.281 -1.4221 -0.0278 -0.5908
19339TIP3   OH279431   0.904   3.955  13.723  0.2120  0.6841  0.2436
19339TIP3    H179432   0.938   3.973  13.636  0.2833 -1.5085 -0.2273
19339TIP3    H279433   0.880   3.862  13.721 -3.1952  1.4007  1.4261
19340TIP3   OH279434   3.126   0.846   0.663  0.0327 -0.4200  0.2127
19340TIP3    H179435   3.120   0.941   0.655 -1.7675 -0.6190 -1.4814
19340TIP3    H279436   3.175   0.819   0.586  0.7954 -0.8823  0.8419
19341TIP3   OH279437   3.189   3.529  16.551 -0.1302  0.3255  0.6459
19341TIP3    H179438   3.218   3.616  16.578 -0.9799  1.2680 -1.2670
19341TIP3    H279439   3.101   3.543  16.516  0.4582 -0.9010 -1.5277
19342TIP3   OH279440   6.585   5.241   2.305 -0.1763  0.2305  0.2704
19342TIP3    H179441   6.618   5.306   2.242  0.8093 -1.6215 -1.2486
19342TIP3    H279442   6.521   5.190   2.256 -1.4615  0.4553  1.6451
19343TIP3   OH279443   5.506   0.288   0.984 -0.3271  0.0797  0.3542
19343TIP3    H179444   5.440   0.220   0.981 -0.5346  0.3029 -0.1013
19343TIP3    H279445   5.481   0.342   1.059  1.1328 -1.6464  2.2106
19344TIP3   OH279446   5.161   1.212   4.487 -0.2771  0.1284  1.1871
19344TIP3    H179447   5.113   1.261   4.554  1.8495 -0.5534  3.3880
19344TIP3    H279448   5.237   1.177   4.534  0.1960 -2.2339 -1.1320
19345TIP3   OH279449   4.719   0.836   1.304 -0.1970  0.0130 -0.1871
19345TIP3    H179450   4.724   0.839   1.208  1.0742  1.0303 -0.1130
19345TIP3    H279451   4.703   0.926   1.330 -0.7180 -0.2898  0.5606
19346TIP3   OH279452   5.877   3.367   4.219 -0.6786 -0.7649  0.4175
19346TIP3    H179453   5.814   3.354   4.290  0.5725 -0.0164  1.7199
19346TIP3    H279454   5.952   3.312   4.243 -0.6250 -1.2735 -0.8522
19347TIP3   OH279455   2.980   3.216  13.550  0.1016  0.1401 -0.1978
19347TIP3    H179456   3.030   3.138  13.527 -0.6813 -0.1556 -0.9909
19347TIP3    H279457   2.910   3.184  13.608  1.2928  0.6818  1.6247
19348TIP3   OH279458   0.652   6.211   0.248 -0.2227 -0.0072 -0.1232
19348TIP3    H179459   0.699   6.128   0.237  0.4327  0.0575  1.7489
19348TIP3    H279460   0.639   6.219   0.342 -3.1545  0.5030 -0.4859
19349TIP3   OH279461   5.453   0.031   1.408  0.1811  0.3017 -0.0926
19349TIP3    H179462   5.534   0.077   1.385 -1.3797  2.9815 -0.6456
19349TIP3    H279463   5.397   0.099   1.444 -1.6483 -1.5992  0.8395
19350TIP3   OH279464   0.078   6.211   1.154  0.1258  0.2871 -0.1307
19350TIP3    H179465   0.064   6.288   1.210 -0.5826  0.4528 -0.5278
19350TIP3    H279466   0.005   6.152   1.175 -0.2761  0.4470 -1.0264
19351TIP3   OH279467   5.399   4.786  15.239  0.4887 -0.9485  0.4231
19351TIP3    H179468   5.354   4.733  15.305 -0.6300  2.2010  2.4717
19351TIP3    H279469   5.491   4.785  15.265  0.5206 -2.0243  0.2854
19352TIP3   OH279470   5.176   6.111  10.841  0.6553 -0.0527  0.3722
19352TIP3    H179471   5.107   6.124  10.906 -0.8984 -0.3628 -1.1427
19352TIP3    H279472   5.170   6.019  10.817  1.7447 -0.1320  0.3654
19353TIP3   OH279473   3.890   0.879   4.383  0.0983  0.0107  0.0715
19353TIP3    H179474   3.800   0.875   4.350 -0.2550 -1.5838  1.1143
19353TIP3    H279475   3.930   0.798   4.350  0.7682  0.1055  0.6475
19354TIP3   OH279476   2.643   4.812  10.744  0.1198  0.1243 -0.1148
19354TIP3    H179477   2.590   4.855  10.677  0.1558 -0.5292 -0.5803
19354TIP3    H279478   2.651   4.876  10.814  1.0458  1.2573 -1.2166
19355TIP3   OH279479   1.011   0.029  14.754  0.2319 -0.0574  0.1891
19355TIP3    H179480   0.966   0.049  14.836 -0.8374 -1.2769 -0.0607
19355TIP3    H279481   1.097   0.069  14.763  0.3754 -0.7193  2.1693
19356TIP3   OH279482   0.584   0.218  14.330 -0.3166 -0.2360  0.0377
19356TIP3    H179483   0.560   0.310  14.330  0.6242  0.0336 -1.2821
19356TIP3    H279484   0.645   0.209  14.403 -0.7836  0.0694  0.4697
19357TIP3   OH279485   0.462   0.714   4.187  0.0876 -0.1235  0.0815
19357TIP3    H179486   0.423   0.633   4.152  0.1552 -0.7283  1.3536
19357TIP3    H279487   0.534   0.684   4.242 -0.1125  0.7812  0.8561
19358TIP3   OH279488   0.400   4.581  12.634  0.5235 -0.3400  0.2797
19358TIP3    H179489   0.345   4.595  12.557  1.3782 -0.7578 -0.4229
19358TIP3    H279490   0.451   4.661  12.643 -0.2668  0.1007  1.0103
19359TIP3   OH279491   5.568   6.334   2.492 -0.1229 -0.3574  0.6536
19359TIP3    H179492   5.639   6.387   2.528 -0.5777 -0.2836  1.4591
19359TIP3    H279493   5.506   6.397   2.456 -0.2118 -0.3873  0.7560
19360TIP3   OH279494   4.410   2.543  16.581 -0.0671 -0.3416 -0.2745
19360TIP3    H179495   4.497   2.572  16.553  0.3848 -1.3655  0.0483
19360TIP3    H279496   4.416   2.539  16.676 -0.3613 -0.7548 -0.2738
19361TIP3   OH279497   6.300   3.149   0.140 -0.0003 -0.0847 -0.0883
19361TIP3    H179498   6.299   3.107   0.054  0.6070 -0.3886  0.0440
19361TIP3    H279499   6.239   3.098   0.192  0.7440 -0.8261  0.0737
19362TIP3   OH279500   3.063   4.748  12.912  0.4800  0.2059 -0.1543
19362TIP3    H179501   3.136   4.787  12.959  0.3077 -0.6321  0.8566
19362TIP3    H279502   3.014   4.822  12.877  1.2769  0.8038 -0.0175
19363TIP3   OH279503   3.188   3.860  16.025  0.5781 -0.1959 -0.0021
19363TIP3    H179504   3.241   3.925  15.979  0.5413 -1.0414 -1.2870
19363TIP3    H279505   3.246   3.825  16.093  1.2195 -0.1380 -0.5106
19364TIP3   OH279506   6.343   4.109   5.633 -0.0858  0.1041 -0.4012
19364TIP3    H179507   6.290   4.106   5.554  0.2051 -2.7676 -0.5892
19364TIP3    H279508   6.280   4.119   5.704 -0.5544  0.3690 -0.8510
19365TIP3   OH279509   0.922   4.293  16.516 -0.3445 -0.3850  0.0771
19365TIP3    H179510   0.893   4.332  16.599 -1.2764 -2.1123  0.5973
19365TIP3    H279511   0.957   4.367  16.466 -0.1538  0.7661  1.8346
19366TIP3   OH279512   3.003   6.467  16.685 -0.0654  0.3138  0.7042
19366TIP3    H179513   3.015   6.391  16.629 -0.3612 -0.0223  1.0848
19366TIP3    H279514   2.924   6.509  16.652  0.1138  0.4745  0.4758
19367TIP3   OH279515   1.770   4.445   1.957 -0.1286  0.0962 -0.1276
19367TIP3    H179516   1.700   4.397   2.002 -0.1210 -0.5308 -0.7691
19367TIP3    H279517   1.731   4.471   1.874  0.1615  0.4153 -0.1641
19368TIP3   OH279518   4.036   2.523  13.851  0.5566  0.2743  0.1117
19368TIP3    H179519   4.048   2.448  13.794 -1.7668 -0.9174  1.0377
19368TIP3    H279520   3.993   2.589  13.795 -1.3123 -0.7225  0.3030
19369TIP3   OH279521   6.510   0.353   2.953 -0.4040  0.7739  0.2807
19369TIP3    H179522   6.466   0.424   2.999 -0.9139  0.8565 -0.3156
19369TIP3    H279523   6.603   0.376   2.956 -0.5735  1.5304 -0.0077
19370TIP3   OH279524   4.329   6.105   0.654  0.3629 -0.2705 -0.2902
19370TIP3    H179525   4.278   6.054   0.592 -0.3033 -0.8696  0.7229
19370TIP3    H279526   4.393   6.043   0.690 -2.5244 -1.4542  3.3744
19371TIP3   OH279527   4.465   5.662   2.803 -0.1561  0.1957 -0.1403
19371TIP3    H179528   4.468   5.568   2.822  0.1593  0.4050  0.9430
19371TIP3    H279529   4.520   5.701   2.870 -1.2016  1.2612  0.1402
19372TIP3   OH279530   0.448   3.228   6.124  0.4123  0.2703 -0.3460
19372TIP3    H179531   0.380   3.287   6.091  1.9269  2.7238  0.6493
19372TIP3    H279532   0.420   3.210   6.214 -0.1267 -0.7003 -0.6974
19373TIP3   OH279533   4.699   0.374   0.375  0.2972  0.3603 -0.2042
19373TIP3    H179534   4.769   0.321   0.336  0.3858  1.0280 -0.9918
19373TIP3    H279535   4.621   0.350   0.325  0.2752  0.7435 -0.3518
19374TIP3   OH279536   5.746   2.475   1.646  0.4715 -0.6597 -0.4883
19374TIP3    H179537   5.823   2.531   1.636 -1.5766  1.9844 -3.5295
19374TIP3    H279538   5.705   2.504   1.728 -0.6318  2.7634 -2.0587
19375TIP3   OH279539   1.318   1.033   4.310 -0.5696 -0.1313 -0.6148
19375TIP3    H179540   1.355   1.095   4.373 -0.7683 -0.2208 -0.4100
19375TIP3    H279541   1.227   1.021   4.337 -1.7482  2.4750 -2.9246
19376TIP3   OH279542   1.529   0.710  13.319  0.5206 -0.2466 -0.0446
19376TIP3    H179543   1.494   0.687  13.233 -1.3059 -0.4394  0.6829
19376TIP3    H279544   1.462   0.768  13.357  0.9419 -0.7126  1.4980
19377TIP3   OH279545   5.549   6.571   5.106 -0.5654  0.3261 -0.3942
19377TIP3    H179546   5.621   6.508   5.113 -0.2134  0.6876 -0.7242
19377TIP3    H279547   5.583   6.640   5.050 -1.5540 -0.0367 -1.4743
19378TIP3   OH279548   0.810   1.202   0.342  0.1445  0.1745 -0.2374
19378TIP3    H179549   0.776   1.279   0.387 -1.6283 -1.0565  0.6805
19378TIP3    H279550   0.897   1.188   0.379 -1.2203 -0.7782  2.9532
19379TIP3   OH279551   3.163   3.093  16.614 -0.0286  0.5925  0.3923
19379TIP3    H179552   3.218   3.111  16.538 -0.6875 -0.2140 -0.2902
19379TIP3    H279553   3.075   3.119  16.587 -0.2999  0.1317  0.8061
19380TIP3   OH279554   2.784   6.769   3.706  0.3809 -0.2209  0.2750
19380TIP3    H179555   2.858   6.810   3.661  0.2008 -0.6767 -0.4475
19380TIP3    H279556   2.707   6.817   3.675  0.2567 -0.5377  0.0898
19381TIP3   OH279557   2.604   1.262   4.065 -0.2015  0.6913  0.0120
19381TIP3    H179558   2.639   1.322   3.999  0.8883 -0.0784 -0.1369
19381TIP3    H279559   2.680   1.232   4.114 -0.9450  0.8624  1.3149
19382TIP3   OH279560   6.664   4.009  14.885  0.1881 -0.6646 -0.6647
19382TIP3    H179561   6.642   3.979  14.974  2.9302 -0.0789  0.3109
19382TIP3    H279562   6.652   4.104  14.888 -2.0009 -0.8530 -1.7131
19383TIP3   OH279563   0.469   6.005  13.910 -0.7381 -1.0003 -0.2824
19383TIP3    H179564   0.432   5.989  13.997 -1.0885  0.1021 -0.2126
19383TIP3    H279565   0.563   6.012  13.925 -0.4685 -3.4067 -0.3997
19384TIP3   OH279566   6.304   3.819  12.912 -0.0736  0.0430  0.0639
19384TIP3    H179567   6.394   3.848  12.917  0.3387 -1.0483 -0.5835
19384TIP3    H279568   6.299   3.745  12.973  0.0270 -1.1934 -1.3624
19385TIP3   OH279569   5.705   6.208   1.951 -0.5610 -0.1306 -0.0209
19385TIP3    H179570   5.630   6.190   2.008 -1.8540  1.1623 -1.2206
19385TIP3    H279571   5.707   6.303   1.942  2.0954  0.0029  1.0389
19386TIP3   OH279572   5.386   2.648  14.032  0.2248  0.0169  0.6757
19386TIP3    H179573   5.430   2.657  14.116  0.9238 -0.5287  0.3846
19386TIP3    H279574   5.457   2.632  13.970 -0.2920  0.3115 -0.0009
19387TIP3   OH279575   2.144   1.585   4.594 -0.2839 -0.0012 -0.2334
19387TIP3    H179576   2.185   1.542   4.520  1.7994 -1.4648  1.6210
19387TIP3    H279577   2.102   1.515   4.644  0.0255  0.6278  0.9630
19388TIP3   OH279578   0.891   1.913  15.751  0.6674 -0.0135  0.0976
19388TIP3    H179579   0.843   1.895  15.832  1.1914  0.0764  0.4374
19388TIP3    H279580   0.981   1.929  15.780  0.8918 -0.1291 -0.5204
19389TIP3   OH279581   4.914   1.679   3.822  0.0725 -0.0601  0.1830
19389TIP3    H179582   4.973   1.734   3.771  0.4902 -2.1097 -1.7228
19389TIP3    H279583   4.836   1.733   3.836  0.5997  1.1337 -1.2633
19390TIP3   OH279584   5.468   0.007  14.075  0.2379  0.2251 -0.8283
19390TIP3    H179585   5.446  -0.059  14.141  0.8792  0.7446 -0.0667
19390TIP3    H279586   5.391   0.064  14.072  0.8387  1.1965  0.7614
19391TIP3   OH279587   2.038   0.829   3.667  0.2066  0.4690 -0.6474
19391TIP3    H179588   2.035   0.800   3.758 -0.0499  0.5897 -0.6160
19391TIP3    H279589   1.947   0.824   3.638  0.3425  0.0482 -1.0147
19392TIP3   OH279590   3.068   2.915  13.013 -0.3648 -0.8091  0.0958
19392TIP3    H179591   3.089   2.971  12.938 -0.2899 -1.8127 -0.6404
19392TIP3    H279592   3.067   2.976  13.088 -0.2802  0.1750 -0.6785
19393TIP3   OH279593   5.741   3.976  11.576  0.1545  0.8716  0.4463
19393TIP3    H179594   5.767   3.896  11.622  0.8911  0.3628 -0.8136
19393TIP3    H279595   5.762   4.046  11.637  0.5830  0.1812  1.1132
19394TIP3   OH279596   0.712   5.384   4.546 -0.0628  0.6838 -0.4905
19394TIP3    H179597   0.744   5.451   4.486 -0.5892  0.7429 -0.7102
19394TIP3    H279598   0.699   5.431   4.629 -1.2507  1.0535 -0.8744
19395TIP3   OH279599   6.545   1.503   1.006  0.2096  0.2481 -0.4023
19395TIP3    H179600   6.621   1.500   1.065 -0.0216  2.5166  0.0825
19395TIP3    H279601   6.469   1.506   1.064 -0.2318 -0.9019 -0.8855
19396TIP3   OH279602   6.130   0.994  15.845 -0.6943 -0.6890  0.0853
19396TIP3    H179603   6.120   1.064  15.910  1.4970  0.4346 -0.6778
19396TIP3    H279604   6.044   0.952  15.841 -1.9621  1.6376  0.9194
19397TIP3   OH279605   4.863   1.763   2.551 -0.2277  0.3437 -0.2613
19397TIP3    H179606   4.945   1.717   2.569 -0.7642 -1.2284 -1.5631
19397TIP3    H279607   4.879   1.852   2.581  1.4552 -0.2662  0.8187
19398TIP3   OH279608   4.526   2.406  15.040  0.2956 -0.8931  0.1335
19398TIP3    H179609   4.465   2.397  14.967 -0.1491 -0.5600  0.4611
19398TIP3    H279610   4.558   2.317  15.055 -0.0039 -1.0494 -0.1315
19399TIP3   OH279611   1.283   0.638  11.651 -0.1634  0.1537  0.0994
19399TIP3    H179612   1.375   0.630  11.676 -0.2020  0.2364  0.2720
19399TIP3    H279613   1.258   0.727  11.676 -0.7472 -0.3917  1.6482
19400TIP3   OH279614   2.918   3.363  16.632  0.2319  0.0409  0.3503
19400TIP3    H179615   2.987   3.368  16.698  0.4722 -0.9164  0.1888
19400TIP3    H279616   2.907   3.269  16.616 -0.6273  0.2171 -0.1310
19401TIP3   OH279617   1.457   2.738   0.194  0.5908  0.0259  0.3724
19401TIP3    H179618   1.511   2.659   0.190  0.0340 -0.3396 -0.1913
19401TIP3    H279619   1.503   2.796   0.255  1.9320 -0.0255 -0.5464
19402TIP3   OH279620   2.358   3.263  13.143  0.4818 -0.6406  0.7529
19402TIP3    H179621   2.387   3.171  13.147 -0.8992 -1.0545  2.3397
19402TIP3    H279622   2.273   3.259  13.099  0.3914 -0.1285  0.8778
19403TIP3   OH279623   3.048   2.165  10.949 -0.4075 -0.3656 -0.2329
19403TIP3    H179624   3.001   2.088  10.981  0.0491  0.5211  2.9184
19403TIP3    H279625   2.979   2.228  10.927 -0.7580 -1.0518 -1.1020
19404TIP3   OH279626   3.017   1.687   5.351 -0.1003  0.2983  0.5201
19404TIP3    H179627   3.000   1.605   5.305  0.7916 -0.1701  1.0020
19404TIP3    H279628   3.095   1.723   5.308  0.7869 -0.1849  1.6999
19405TIP3   OH279629   3.339   0.768  13.042 -0.6104 -0.3097  0.0248
19405TIP3    H179630   3.414   0.798  13.093 -1.3711  0.4556  0.7292
19405TIP3    H279631   3.266   0.821  13.073 -1.6717 -1.7520  0.1241
19406TIP3   OH279632   0.545   6.033  16.322  0.0588  0.0117  0.6494
19406TIP3    H179633   0.546   6.123  16.289  0.5654 -0.7528 -1.6166
19406TIP3    H279634   0.571   5.980  16.247 -0.4834 -2.0679  1.8529
19407TIP3   OH279635   3.840   4.168  14.160 -0.4117 -0.4566  0.3348
19407TIP3    H179636   3.759   4.195  14.116  0.3787  0.8679 -0.3843
19407TIP3    H279637   3.825   4.189  14.252 -0.5243  0.7428  0.0551
19408TIP3   OH279638   5.046   2.285   0.430  0.3058  0.3310  0.1894
19408TIP3    H179639   5.028   2.369   0.387  0.9051  0.6741  0.5992
19408TIP3    H279640   5.113   2.244   0.375 -1.3040 -0.7417 -1.0757
19409TIP3   OH279641   4.963   6.506   3.944  0.3048  0.6154  0.2465
19409TIP3    H179642   5.008   6.437   3.896 -1.0271 -0.4379  0.4434
19409TIP3    H279643   4.931   6.463   4.024 -2.1401  0.9236 -0.4811
19410TIP3   OH279644   6.727   6.103   3.776  0.0575  0.3770 -0.3078
19410TIP3    H179645   6.683   6.184   3.753  0.0314  1.2747  2.5249
19410TIP3    H279646   6.820   6.120   3.759 -0.1885 -0.1116 -2.4772
19411TIP3   OH279647   6.403   5.047  12.880 -0.0057  0.5812  0.0796
19411TIP3    H179648   6.376   5.118  12.822 -2.8352 -0.0190  0.5497
19411TIP3    H279649   6.366   4.968  12.840 -0.3210 -0.1021  1.6461
19412TIP3   OH279650   4.864   5.160  13.743 -0.7914 -0.0786 -0.4405
19412TIP3    H179651   4.852   5.254  13.736 -0.8171 -0.0984 -0.6763
19412TIP3    H279652   4.879   5.144  13.836 -0.9749  0.1339 -0.3744
19413TIP3   OH279653   3.126   5.261  14.246  0.0257  0.4359  0.1026
19413TIP3    H179654   3.213   5.299  14.231  0.3062 -0.5688 -0.9201
19413TIP3    H279655   3.080   5.328  14.297  0.5142  2.1421 -1.5890
19414TIP3   OH279656   6.557   5.017  11.362 -0.7246 -0.0856  0.3348
19414TIP3    H179657   6.488   4.994  11.425  0.5475  0.2505  1.9013
19414TIP3    H279658   6.612   4.938  11.357 -0.6635 -0.0127 -0.1567
19415TIP3   OH279659   4.606   5.491   3.519  0.3568  0.0110  0.7192
19415TIP3    H179660   4.521   5.534   3.521 -0.3016 -1.2675  1.6040
19415TIP3    H279661   4.661   5.546   3.576 -0.6103 -0.5393  2.2616
19416TIP3   OH279662   0.206   5.252  11.431 -0.5467 -0.0355  0.3428
19416TIP3    H179663   0.121   5.235  11.392  0.1066  0.0355 -1.1884
19416TIP3    H279664   0.187   5.275  11.522 -2.2089  0.6179 -0.1330
19417TIP3   OH279665   0.948   3.156   4.848  0.1721  0.5119 -0.0208
19417TIP3    H179666   0.926   3.228   4.907  1.1195  1.0320 -0.2796
19417TIP3    H279667   1.007   3.100   4.899 -0.9067 -0.3389  0.3321
19418TIP3   OH279668   5.536   3.846   0.954 -0.3590  0.3276 -0.6296
19418TIP3    H179669   5.475   3.788   1.000 -0.4733  1.0398  0.1309
19418TIP3    H279670   5.597   3.875   1.021 -0.1438  0.8791 -1.0574
19419TIP3   OH279671   0.950   1.808  14.908  0.0032  0.1036 -0.0682
19419TIP3    H179672   0.911   1.798  14.994  2.8689 -2.0467  1.1659
19419TIP3    H279673   0.998   1.891  14.913  0.1741 -0.0211  0.4551
19420TIP3   OH279674   3.810   6.229   5.085  0.3152 -1.3962 -0.2249
19420TIP3    H179675   3.793   6.216   5.179  0.3980 -1.0369 -0.1587
19420TIP3    H279676   3.876   6.298   5.082 -0.9155 -0.1896 -0.5938
19421TIP3   OH279677   0.688   2.559   3.199  0.0421  0.4197  0.1029
19421TIP3    H179678   0.642   2.629   3.153 -0.7499 -0.6637 -0.7879
19421TIP3    H279679   0.758   2.604   3.247 -0.5175  1.8246 -0.3575
19422TIP3   OH279680   6.676   1.702  11.146 -0.1874  0.1434  0.3528
19422TIP3    H179681   6.752   1.757  11.162 -0.7840  1.1175 -0.0996
19422TIP3    H279682   6.694   1.661  11.061  0.2162 -0.2956  0.6486
19423TIP3   OH279683   6.280   0.043   4.457  0.2541  0.5080 -0.6025
19423TIP3    H179684   6.216   0.079   4.519  0.3939 -0.6227  0.2348
19423TIP3    H279685   6.293   0.112   4.393 -1.3443  0.9897 -0.4434
19424TIP3   OH279686   3.735   5.672   0.577 -0.7532  0.5029 -0.3313
19424TIP3    H179687   3.686   5.753   0.595 -1.4594  0.3454 -1.4778
19424TIP3    H279688   3.697   5.608   0.638  0.3917  1.2115  1.1945
19425TIP3   OH279689   1.928   6.365  11.647 -0.3316 -0.2546  0.3730
19425TIP3    H179690   2.017   6.393  11.669 -0.3125  0.2605 -0.3444
19425TIP3    H279691   1.939   6.305  11.574 -0.5676 -0.2613  0.3447
19426TIP3   OH279692   1.689   2.910  16.596 -0.4479 -0.0085  0.4046
19426TIP3    H179693   1.679   2.989  16.649  2.6352  0.5928  0.2969
19426TIP3    H279694   1.678   2.940  16.506  2.8907  0.9691  0.1657
19427TIP3   OH279695   4.595   0.062   1.242 -0.3398 -0.2024  0.1381
19427TIP3    H179696   4.635  -0.024   1.256  0.2383  0.2289  1.1883
19427TIP3    H279697   4.504   0.043   1.220  0.3546 -1.2004 -2.1923
19428TIP3   OH279698   2.233   6.426   3.621 -0.3370  0.3789 -0.3713
19428TIP3    H179699   2.213   6.424   3.527 -2.1503  1.2485 -0.0480
19428TIP3    H279700   2.236   6.520   3.642  1.2275  0.2249  0.2513
19429TIP3   OH279701   6.642   2.895   4.197  0.1794 -1.2170 -0.2832
19429TIP3    H179702   6.737   2.893   4.188  0.1109 -0.4870 -1.2920
19429TIP3    H279703   6.612   2.820   4.147  0.1106 -0.1266 -1.9508
19430TIP3   OH279704   6.151   4.769  15.106  0.1368 -0.4445 -0.4516
19430TIP3    H179705   6.172   4.769  15.013  0.0698 -0.0050 -0.4679
19430TIP3    H279706   6.184   4.685  15.138 -0.4700 -0.9123 -1.0095
19431TIP3   OH279707   0.670   5.242   2.470 -0.5006 -0.1569 -0.5818
19431TIP3    H179708   0.729   5.217   2.399 -1.1530  0.3449 -1.3203
19431TIP3    H279709   0.673   5.338   2.470 -1.8426 -0.0902 -1.1146
19432TIP3   OH279710   3.422   5.755   1.741  0.3390 -0.0293 -0.5600
19432TIP3    H179711   3.443   5.730   1.831 -0.4457 -1.4640 -0.7481
19432TIP3    H279712   3.403   5.849   1.746  5.2901  1.2265 -0.1439
19433TIP3   OH279713   5.773   1.507  15.397 -0.0542 -0.4039 -0.2685
19433TIP3    H179714   5.788   1.562  15.320  0.7760  1.2093  1.0080
19433TIP3    H279715   5.812   1.422  15.373  3.1389  0.9822 -0.4913
19434TIP3   OH279716   6.472   4.724  11.106 -0.4483 -0.0586  0.1787
19434TIP3    H179717   6.545   4.686  11.057 -1.0971  0.3032 -1.1354
19434TIP3    H279718   6.443   4.797  11.052 -2.6588 -1.0337 -0.0719
19435TIP3   OH279719   3.593   0.824   2.901  0.0100  0.6518  0.6361
19435TIP3    H179720   3.559   0.744   2.940  1.8246 -0.6627 -0.3268
19435TIP3    H279721   3.680   0.835   2.939  0.6888  0.8677 -0.8739
19436TIP3   OH279722   6.624   5.911   2.549  0.0542 -0.8065 -0.2862
19436TIP3    H179723   6.643   5.860   2.470  1.5342 -0.3203 -0.2746
19436TIP3    H279724   6.702   5.900   2.603 -0.3343  0.0652  0.4640
19437TIP3   OH279725   2.062   5.186   6.002 -0.5868 -0.0115  0.3846
19437TIP3    H179726   2.008   5.225   6.071 -1.8388 -0.9765 -0.0193
19437TIP3    H279727   2.152   5.199   6.032 -1.0039  1.6682  1.0624
19438TIP3   OH279728   5.333   3.393  11.365 -0.4861  0.5941 -0.6688
19438TIP3    H179729   5.359   3.313  11.320 -0.3506  0.7489 -0.8686
19438TIP3    H279730   5.392   3.460  11.331  0.5169  0.4511  0.7337
19439TIP3   OH279731   1.122   0.264   0.802 -0.5835 -0.1954 -0.4478
19439TIP3    H179732   1.053   0.263   0.869 -0.3260  0.6637 -0.1495
19439TIP3    H279733   1.076   0.271   0.719 -1.0132 -3.2715 -0.5700
19440TIP3   OH279734   1.414   0.416   0.795  0.2704 -0.2413 -0.3391
19440TIP3    H179735   1.485   0.379   0.848 -0.4481 -1.1521  0.0229
19440TIP3    H279736   1.344   0.431   0.858  0.3112  1.1721 -0.5962
19441TIP3   OH279737   4.429   1.868  13.027  0.5603 -0.3846  0.2198
19441TIP3    H179738   4.337   1.870  13.002  0.5745 -0.1303  0.1793
19441TIP3    H279739   4.443   1.781  13.064  0.3529 -0.4929  0.0428
19442TIP3   OH279740   1.051   6.093  13.149  0.0815  0.0392  0.1018
19442TIP3    H179741   1.020   6.010  13.111 -0.2757  0.6767 -1.0395
19442TIP3    H279742   1.107   6.130  13.082  0.5569  0.5482  0.7738
19443TIP3   OH279743   1.679   5.935   5.733 -0.0751  0.2060  0.1283
19443TIP3    H179744   1.759   5.986   5.719  0.3104  0.1729  2.0094
19443TIP3    H279745   1.705   5.845   5.716  1.0252 -0.1352  3.0891
19444TIP3   OH279746   2.684   4.660   2.286 -0.1757  0.0833 -0.0303
19444TIP3    H179747   2.623   4.662   2.360 -2.2031 -0.3612 -1.5941
19444TIP3    H279748   2.701   4.568   2.270 -0.1504  0.1506 -0.4143
19445TIP3   OH279749   1.052   0.487   3.055  0.1091  0.8840  0.0531
19445TIP3    H179750   1.081   0.525   2.971 -1.1664 -0.3579 -0.9890
19445TIP3    H279751   0.995   0.414   3.030 -1.7650  1.5854  1.9928
19446TIP3   OH279752   6.451   1.017   1.965  0.1839 -0.0763 -0.6903
19446TIP3    H179753   6.482   0.992   2.052 -0.4319  0.1326 -0.4038
19446TIP3    H279754   6.510   0.971   1.905 -0.3596 -1.5152 -0.1759
19447TIP3   OH279755   2.645   6.296   4.428  0.3006  0.3940  0.1432
19447TIP3    H179756   2.700   6.229   4.469  0.7189  1.6882  1.7887
19447TIP3    H279757   2.685   6.379   4.455 -0.8265  1.3328 -0.9704
19448TIP3   OH279758   3.271   0.240   5.293  0.1206 -0.2346  0.1821
19448TIP3    H179759   3.286   0.334   5.293 -0.5779 -0.1203 -0.1482
19448TIP3    H279760   3.185   0.229   5.333 -0.5959 -0.5814 -1.3681
19449TIP3   OH279761   6.239   3.060   2.871  0.0133  0.4020  1.0254
19449TIP3    H179762   6.215   2.982   2.921  1.2241 -1.0024 -0.4975
19449TIP3    H279763   6.266   3.123   2.938  0.6672 -1.0769  2.2280
19450TIP3   OH279764   2.612   2.029   4.189 -0.3310  0.1820  0.3663
19450TIP3    H179765   2.685   2.078   4.150 -0.1369 -1.1430 -1.0303
19450TIP3    H279766   2.653   1.977   4.258 -0.0785  0.0102  0.0893
19451TIP3   OH279767   6.446   1.583  11.851  0.1262 -0.1364  0.3269
19451TIP3    H179768   6.483   1.571  11.764  1.6007 -0.0272  0.9113
19451TIP3    H279769   6.522   1.597  11.908 -0.7701 -0.6354  1.7021
19452TIP3   OH279770   1.371   1.440  13.999 -0.0180  0.9071 -0.2250
19452TIP3    H179771   1.291   1.412  13.954 -0.4369 -0.9589  1.5446
19452TIP3    H279772   1.430   1.466  13.929 -1.6427  0.9043 -1.6611
19453TIP3   OH279773   6.416   0.573   0.605 -0.2830  0.3639 -0.2122
19453TIP3    H179774   6.333   0.620   0.600 -0.4101  0.5404  2.1640
19453TIP3    H279775   6.473   0.630   0.657  0.3369 -1.0416  0.7205
19454TIP3   OH279776   1.262   2.747   4.520  0.2253 -0.3563 -0.2531
19454TIP3    H179777   1.258   2.677   4.586 -0.3525 -0.0275  0.0725
19454TIP3    H279778   1.294   2.703   4.441  0.9150 -0.7546  0.2425
19455TIP3   OH279779   4.088   1.886  13.477  0.2135  0.2668 -0.3279
19455TIP3    H179780   4.133   1.898  13.393 -2.3074 -2.8877 -2.3790
19455TIP3    H279781   4.011   1.942  13.472 -0.0528 -0.0855 -0.2387
19456TIP3   OH279782   1.740   5.451   1.126  0.7529 -0.2768 -0.2069
19456TIP3    H179783   1.804   5.522   1.128  0.5788 -0.1200 -0.0519
19456TIP3    H279784   1.662   5.489   1.168  1.6014 -1.5013  2.7276
19457TIP3   OH279785   5.041   0.223  15.826  0.0760 -0.2823  0.0372
19457TIP3    H179786   4.995   0.306  15.814  1.7106  1.0781  2.3591
19457TIP3    H279787   5.016   0.193  15.913  2.0794 -0.4350  0.6183
19458TIP3   OH279788   1.223   5.141   0.920 -0.0481  0.1152 -0.2696
19458TIP3    H179789   1.230   5.116   0.828 -0.0824 -0.4800 -0.1122
19458TIP3    H279790   1.301   5.194   0.937  1.2782 -1.8655  0.0229
19459TIP3   OH279791   2.727   4.036  16.811 -0.1927 -0.2025 -0.2979
19459TIP3    H179792   2.666   3.984  16.758  2.2355 -1.0248 -2.4768
19459TIP3    H279793   2.813   4.019  16.773  1.1698  2.7212  1.1422
19460TIP3   OH279794   5.665   4.010   3.076 -0.0470 -0.0718  0.1422
19460TIP3    H179795   5.576   4.018   3.041 -0.8021 -3.5027  0.8724
19460TIP3    H279796   5.694   3.923   3.046  2.6481  0.5043  0.8688
19461TIP3   OH279797   1.125   3.154  11.814  0.5021 -0.1895  0.6193
19461TIP3    H179798   1.129   3.080  11.754  0.3169 -0.5169  1.0061
19461TIP3    H279799   1.043   3.143  11.862 -0.4758  1.2823 -0.6056
19462TIP3   OH279800   2.445   3.791   6.860  0.1676 -0.3235  0.6527
19462TIP3    H179801   2.405   3.842   6.790  0.2379  0.8528  1.4385
19462TIP3    H279802   2.453   3.702   6.824  0.5220  0.3253 -0.9296
19463TIP3   OH279803   3.300   3.449   1.977  0.6958 -0.4032  0.3161
19463TIP3    H179804   3.374   3.459   2.038  0.9588  0.3062 -0.1084
19463TIP3    H279805   3.225   3.484   2.025  0.4728 -1.7965  1.0273
19464TIP3   OH279806   5.191   5.543  15.109 -0.3881  1.0098  0.3730
19464TIP3    H179807   5.123   5.571  15.170 -0.0491 -1.1313  1.8551
19464TIP3    H279808   5.270   5.589  15.138 -0.9020  2.6039 -0.6311
19465TIP3   OH279809   0.379   0.490   1.211  0.1245  0.2020 -0.5452
19465TIP3    H179810   0.360   0.399   1.185 -1.1043  0.4157 -0.4444
19465TIP3    H279811   0.313   0.542   1.165  1.2329  1.1409 -1.1418
19466TIP3   OH279812   1.111   2.790   2.159  0.0359 -0.2659 -0.0017
19466TIP3    H179813   1.018   2.801   2.177 -0.0860 -2.1269  0.7456
19466TIP3    H279814   1.138   2.873   2.119 -1.8812  0.3797 -0.0523
19467TIP3   OH279815   2.764   1.269   3.248 -0.8437  0.0148  0.6389
19467TIP3    H179816   2.736   1.239   3.162  1.0179 -2.6982  0.8522
19467TIP3    H279817   2.843   1.320   3.232  0.0969 -1.3653  0.7687
19468TIP3   OH279818   3.486   3.100   3.523 -0.2422 -0.3206  0.1294
19468TIP3    H179819   3.569   3.055   3.541  0.0546  0.4108  0.6317
19468TIP3    H279820   3.501   3.190   3.551 -1.5060 -0.3758  1.0566
19469TIP3   OH279821   6.265   1.518  13.906 -0.0714 -0.1483 -0.2863
19469TIP3    H179822   6.210   1.488  13.834 -1.0024  0.9525 -0.0661
19469TIP3    H279823   6.310   1.440  13.937 -3.6976 -1.7826  1.4759
19470TIP3   OH279824   4.851   5.166  11.467 -0.1973 -0.4169  0.3589
19470TIP3    H179825   4.899   5.106  11.523  0.2704  0.8568  1.3732
19470TIP3    H279826   4.824   5.113  11.392  0.5885 -1.7593  0.9954
19471TIP3   OH279827   4.185   2.577   0.254 -0.4389 -1.1035  0.4354
19471TIP3    H179828   4.206   2.620   0.170 -0.5161 -1.6503  0.1322
19471TIP3    H279829   4.237   2.625   0.319 -0.8398 -0.2784  0.1636
19472TIP3   OH279830   4.315   2.290   4.499 -0.4057  0.0854  0.1300
19472TIP3    H179831   4.356   2.243   4.571  0.2352 -0.5601 -0.6302
19472TIP3    H279832   4.331   2.382   4.518  1.2305 -0.1327 -0.0190
19473TIP3   OH279833   4.128   2.023   0.376 -0.0749 -0.2554  0.0771
19473TIP3    H179834   4.038   2.012   0.345 -0.1471 -1.6296  0.6789
19473TIP3    H279835   4.150   2.114   0.355 -1.0469 -0.3460 -1.5146
19474TIP3   OH279836   4.351   4.772   3.845  0.4221 -0.4269 -0.4623
19474TIP3    H179837   4.351   4.722   3.926 -1.7455 -0.2204 -0.2792
19474TIP3    H279838   4.263   4.809   3.839  0.1548 -1.2868 -3.4304
19475TIP3   OH279839   6.775   5.860  11.028 -0.0401  0.1252 -0.0930
19475TIP3    H179840   6.854   5.828  11.073 -0.8864 -0.6420  0.9219
19475TIP3    H279841   6.785   5.955  11.026  0.6197  0.0846  0.6110
19476TIP3   OH279842   2.188   5.766  14.107  0.0029 -0.4341  0.3410
19476TIP3    H179843   2.143   5.843  14.143 -0.3106 -0.5993  0.3048
19476TIP3    H279844   2.146   5.752  14.022  1.2456  0.4180 -0.4581
19477TIP3   OH279845   2.674   5.175  12.886 -0.2941 -0.0058  0.1942
19477TIP3    H179846   2.666   5.085  12.917  1.2070 -0.2018  0.1202
19477TIP3    H279847   2.660   5.170  12.792 -0.8699 -0.0489  0.2791
19478TIP3   OH279848   0.343   6.036   0.173 -0.0833 -0.1040  0.2070
19478TIP3    H179849   0.316   6.077   0.091 -0.5081  0.3044  0.5471
19478TIP3    H279850   0.425   6.081   0.196 -1.0360  1.2665  1.0745
19479TIP3   OH279851   3.832   4.122  13.480  0.0778 -0.2345 -0.1483
19479TIP3    H179852   3.891   4.082  13.416 -1.6826  0.3910 -2.2608
19479TIP3    H279853   3.875   4.204  13.505  2.2157 -1.8186  1.8782
19480TIP3   OH279854   5.128   3.154  12.457  0.6945 -0.4807  0.2173
19480TIP3    H179855   5.062   3.221  12.442  0.7384 -0.3972  0.3948
19480TIP3    H279856   5.085   3.072  12.432  0.1900 -0.5444  1.2672
19481TIP3   OH279857   5.162   0.315   2.039  0.2457  0.1496 -0.6386
19481TIP3    H179858   5.069   0.329   2.023  0.3432 -1.0061 -2.4494
19481TIP3    H279859   5.194   0.272   1.960  2.1559 -0.2234  0.2815
19482TIP3   OH279860   5.230   0.011   1.737  0.0886  0.4493 -0.4653
19482TIP3    H179861   5.189  -0.049   1.674 -1.4616  0.0484  0.8887
19482TIP3    H279862   5.242   0.092   1.688 -0.3038 -0.1113 -1.5268
19483TIP3   OH279863   2.354   6.335  16.136  0.0430  0.2101  0.2011
19483TIP3    H179864   2.304   6.265  16.094  0.2404 -0.6430  1.3535
19483TIP3    H279865   2.311   6.349  16.220  0.7246  0.6544  0.4868
19484TIP3   OH279866   3.257   3.947   1.612  0.5439  0.6138  0.2053
19484TIP3    H179867   3.166   3.919   1.614  0.9327 -0.6999  0.8871
19484TIP3    H279868   3.255   4.040   1.635 -0.5265  0.3235  1.3690
19485TIP3   OH279869   4.964   3.197   1.107  0.0416 -0.6177 -0.3132
19485TIP3    H179870   4.899   3.140   1.148  0.6583 -0.8247  0.3779
19485TIP3    H279871   5.011   3.139   1.046 -2.0398  0.0516 -2.7376
19486TIP3   OH279872   3.880   1.563   1.686  0.3601 -0.1833  0.1085
19486TIP3    H179873   3.955   1.547   1.629 -1.0645  1.4966 -2.4340
19486TIP3    H279874   3.917   1.608   1.762  2.0884 -0.5839 -0.4428
19487TIP3   OH279875   3.371   2.541  10.285  0.0800 -0.6525 -0.1299
19487TIP3    H179876   3.398   2.552  10.377  0.2439  0.0844 -0.2598
19487TIP3    H279877   3.276   2.538  10.288  0.0208  0.8115 -0.0696
19488TIP3   OH279878   1.405   0.417   1.708  0.4640  0.0234  0.3507
19488TIP3    H179879   1.483   0.381   1.751  0.0220 -2.0123 -0.3940
19488TIP3    H279880   1.334   0.359   1.736 -0.0248 -0.7428 -2.1604
19489TIP3   OH279881   4.944   0.785   5.764 -0.2480 -0.1501  0.4541
19489TIP3    H179882   5.020   0.766   5.820 -0.6647  1.8089  1.8126
19489TIP3    H279883   4.954   0.877   5.742 -1.1539 -0.4059 -1.1292
19490TIP3   OH279884   3.821   6.166   4.115  0.3317  0.5045  0.0884
19490TIP3    H179885   3.824   6.130   4.204 -1.7864  2.5570  1.0825
19490TIP3    H279886   3.766   6.244   4.122  2.5486  2.4837 -2.4439
19491TIP3   OH279887   5.618   0.612   3.640  0.4001  0.1352  0.6960
19491TIP3    H179888   5.638   0.561   3.561 -2.4296  1.0950 -0.7833
19491TIP3    H279889   5.605   0.546   3.708 -0.7862 -1.0292 -0.5814
19492TIP3   OH279890   6.406   2.050  14.544  0.5260  0.0899 -0.5873
19492TIP3    H179891   6.401   2.023  14.453  0.5517  1.6407 -1.0712
19492TIP3    H279892   6.499   2.049  14.566  0.5687  0.2773 -0.7606
19493TIP3   OH279893   0.859   6.500  12.332 -0.0316 -0.4437 -0.1267
19493TIP3    H179894   0.829   6.444  12.403 -0.1203  0.0982  0.2690
19493TIP3    H279895   0.857   6.444  12.254 -3.2061 -0.1304 -0.3879
19494TIP3   OH279896   6.065   4.659   1.586  0.2844 -0.3710 -0.0463
19494TIP3    H179897   6.017   4.718   1.644  1.4712  0.0125  0.5807
19494TIP3    H279898   6.143   4.634   1.636  0.2665 -1.7483 -0.6595
19495TIP3   OH279899   5.617   3.183  14.516  1.0182  0.2149 -0.8491
19495TIP3    H179900   5.579   3.269  14.530  1.3296  0.0971  0.9283
19495TIP3    H279901   5.635   3.149  14.604  2.3331 -1.0174 -1.5408
19496TIP3   OH279902   3.915   0.019   5.272  0.3662  0.2345  0.0741
19496TIP3    H179903   3.862   0.096   5.295 -0.5468 -0.8867  1.9513
19496TIP3    H279904   3.990   0.023   5.331 -0.5236 -1.1355  1.3709
19497TIP3   OH279905   4.366   4.780   4.723 -0.1820  0.3095 -0.6288
19497TIP3    H179906   4.386   4.769   4.816  1.2241 -1.2660 -1.0715
19497TIP3    H279907   4.396   4.868   4.703 -2.7118  1.6511  0.8832
19498TIP3   OH279908   2.638   5.719  13.232  0.0461 -0.1822 -0.4968
19498TIP3    H179909   2.633   5.766  13.315  0.9070  0.7566 -0.9437
19498TIP3    H279910   2.661   5.629  13.256  1.9189  0.4400  0.2257
19499TIP3   OH279911   4.161   1.389   5.693 -0.1625  0.6615  0.4471
19499TIP3    H179912   4.149   1.375   5.599 -1.6280 -1.1808  0.8435
19499TIP3    H279913   4.186   1.481   5.700  0.1602  0.8095 -1.7422
19500TIP3   OH279914   5.920   4.101  12.250  0.0344 -0.2460  0.1134
19500TIP3    H179915   6.001   4.117  12.202 -0.1699  2.9479  0.6368
19500TIP3    H279916   5.949   4.071  12.336  0.6216 -0.3392 -0.1114
19501TIP3   OH279917   5.126   6.768   6.306  0.7868 -0.5249  0.3459
19501TIP3    H179918   5.080   6.758   6.390  0.6749 -0.2543  0.3204
19501TIP3    H279919   5.113   6.685   6.261 -2.2081  0.4937 -0.9118
19502TIP3   OH279920   0.501   0.129  13.989  0.0146 -0.5309 -0.4805
19502TIP3    H179921   0.570   0.063  13.983 -0.7386 -1.5289  1.2986
19502TIP3    H279922   0.534   0.192  14.053 -0.3174 -0.4940 -0.3457
19503TIP3   OH279923   4.110   2.518  12.388 -0.0923 -0.3045  0.4912
19503TIP3    H179924   4.078   2.430  12.409  0.5625 -0.3750  1.2214
19503TIP3    H279925   4.036   2.575  12.410 -0.8951 -0.7317 -0.9382
19504TIP3   OH279926   3.743   5.646   0.971  0.5559 -0.3751 -0.2324
19504TIP3    H179927   3.750   5.653   1.067 -1.6978 -0.1984 -0.0402
19504TIP3    H279928   3.683   5.716   0.947  1.6918  0.0767 -1.9105
19505TIP3   OH279929   5.782   3.065  16.465  0.1468  0.1573  0.3933
19505TIP3    H179930   5.835   3.128  16.416  1.1462 -0.4653  0.6208
19505TIP3    H279931   5.847   3.006  16.504 -0.7582 -1.7339 -0.7743
19506TIP3   OH279932   1.735   0.571   2.692  0.2423  0.4574  0.2968
19506TIP3    H179933   1.743   0.619   2.775 -0.1696  3.1441 -1.0829
19506TIP3    H279934   1.815   0.594   2.644  0.7571 -1.5371  0.1387
19507TIP3   OH279935   1.395   2.354  12.333  0.0162  0.0912 -0.8252
19507TIP3    H179936   1.386   2.438  12.288  0.9746  1.1352  0.7891
19507TIP3    H279937   1.315   2.346  12.386  0.6973  0.9114  0.3839
19508TIP3   OH279938   6.747   0.033  13.313  0.7921  0.5332  0.1493
19508TIP3    H179939   6.774  -0.036  13.373 -0.4420 -0.0208  0.0808
19508TIP3    H279940   6.802   0.021  13.236 -0.1998 -1.1032 -0.3328
19509TIP3   OH279941   2.113   4.884  16.712 -0.3143  0.4113  0.0486
19509TIP3    H179942   2.074   4.906  16.796 -3.3071 -0.1862 -1.0534
19509TIP3    H279943   2.144   4.967  16.676 -0.2078  0.8554  1.1459
19510TIP3   OH279944   6.618   0.180  16.639  0.4314 -0.3504  0.0100
19510TIP3    H179945   6.654   0.211  16.722  1.1377 -1.8606  0.2963
19510TIP3    H279946   6.528   0.154  16.660 -0.9224  3.1240 -0.6396
19511TIP3   OH279947   0.241   4.374   5.281  0.6671  0.0302  0.2264
19511TIP3    H179948   0.265   4.461   5.313 -1.4990  0.1973  1.7000
19511TIP3    H279949   0.253   4.317   5.357  0.9946 -0.7503 -0.3979
19512TIP3   OH279950   1.621   3.944   5.655 -0.3961 -0.6003 -0.4791
19512TIP3    H179951   1.694   4.006   5.645  0.2712 -1.2157  0.3613
19512TIP3    H279952   1.569   3.979   5.728  1.7646 -2.5814  2.2586
19513TIP3   OH279953   1.805   6.683   1.474  0.3366 -0.3954  0.2429
19513TIP3    H179954   1.871   6.685   1.405  0.4994  0.8750  0.4032
19513TIP3    H279955   1.813   6.769   1.517 -2.2030  0.2601 -0.4585
19514TIP3   OH279956   4.046   0.510  14.860  0.1595  0.3600 -0.4007
19514TIP3    H179957   3.990   0.584  14.839  0.1189  0.4479  0.0079
19514TIP3    H279958   3.992   0.453  14.915  1.1870  1.5888  2.0207
19515TIP3   OH279959   2.545   1.417   3.289  0.1173  0.2847 -0.2418
19515TIP3    H179960   2.631   1.376   3.285 -0.2803 -0.5905 -0.0576
19515TIP3    H279961   2.542   1.461   3.374 -0.0024 -0.5751  0.2074
19516TIP3   OH279962   1.786   3.151   1.398 -0.1111 -0.4484 -0.0164
19516TIP3    H179963   1.742   3.149   1.313  1.4365  1.3472 -0.9356
19516TIP3    H279964   1.879   3.158   1.377  0.2617  0.8058  1.7973
19517TIP3   OH279965   0.726   4.281  10.814 -0.1647  0.6011 -0.7260
19517TIP3    H179966   0.630   4.285  10.813 -0.1145  2.7127 -0.3560
19517TIP3    H279967   0.752   4.308  10.726  0.1231  2.1919 -0.1696
19518TIP3   OH279968   3.266   6.151   1.367  0.2316  0.5953  0.3914
19518TIP3    H179969   3.199   6.218   1.350  1.2395  2.2402  2.3950
19518TIP3    H279970   3.229   6.097   1.437 -1.0668 -1.8240 -1.9903
19519TIP3   OH279971   3.294   2.002   5.037 -0.6776  0.3792 -0.0761
19519TIP3    H179972   3.306   2.092   5.006 -1.2436  0.3049 -0.5286
19519TIP3    H279973   3.200   1.990   5.039 -0.6451  0.1956  1.1891
19520TIP3   OH279974   1.262   0.862  13.260  0.0194 -0.0148 -0.4783
19520TIP3    H179975   1.268   0.911  13.178 -1.4963  1.3793  0.1876
19520TIP3    H279976   1.267   0.770  13.233 -0.7584  0.4006 -2.1723
19521TIP3   OH279977   0.997   5.657   3.197  0.0787  0.5608 -0.1308
19521TIP3    H179978   1.080   5.677   3.153 -0.5756 -0.1490 -1.7794
19521TIP3    H279979   0.948   5.606   3.132 -1.2210  0.0530  1.2085
19522TIP3   OH279980   2.217   5.221  11.095 -0.0311  0.1990 -0.0209
19522TIP3    H179981   2.303   5.195  11.131 -0.6816 -1.7984  0.2240
19522TIP3    H279982   2.238   5.277  11.021  1.4878  0.0098  0.2273
19523TIP3   OH279983   3.213   6.286   3.623 -0.0589 -0.2858 -0.3866
19523TIP3    H179984   3.184   6.206   3.667 -0.0068 -0.8400 -1.3308
19523TIP3    H279985   3.144   6.304   3.559  1.1824 -1.0971 -2.0170
19524TIP3   OH279986   5.545   3.029   2.733  0.9922  0.2924  0.0832
19524TIP3    H179987   5.622   3.086   2.739  0.2089  1.2663  1.2868
19524TIP3    H279988   5.470   3.088   2.740  0.1388 -0.9055  2.2896
19525TIP3   OH279989   2.396   2.717  15.548  0.3391 -0.2075  0.1602
19525TIP3    H179990   2.462   2.787  15.552  1.3143 -1.1218  0.8312
19525TIP3    H279991   2.405   2.680  15.460  1.1169 -0.6822  0.4323
19526TIP3   OH279992   0.125   5.471  12.230  0.5867  0.4272 -0.4385
19526TIP3    H179993   0.219   5.472  12.245  0.5609  0.1489 -0.2467
19526TIP3    H279994   0.110   5.540  12.166  0.8532  0.8178 -0.0827
19527TIP3   OH279995   1.013   6.284   4.744 -0.4801 -0.1441  0.1700
19527TIP3    H179996   1.087   6.272   4.685  0.7330 -1.4548  1.8758
19527TIP3    H279997   1.034   6.363   4.794 -1.0999  0.4798 -0.5304
19528TIP3   OH279998   4.382   0.818   3.856  0.5218  0.0886 -0.4486
19528TIP3    H179999   4.365   0.833   3.763 -0.0561 -0.6038 -0.4611
19528TIP3    H280000   4.311   0.863   3.901 -0.6356 -1.6441 -0.4513
19529TIP3   OH280001   5.689   3.907  11.331  0.1119 -0.2692  0.5692
19529TIP3    H180002   5.773   3.895  11.288  0.1849  0.2518  0.5642
19529TIP3    H280003   5.711   3.947  11.415 -0.1403 -0.0349  0.5228
19530TIP3   OH280004   3.593   1.333   2.158 -1.0381  0.0250 -0.2885
19530TIP3    H180005   3.580   1.239   2.164  0.3835 -0.1745 -0.0433
19530TIP3    H280006   3.513   1.366   2.117 -0.1805 -1.6838 -3.6266
19531TIP3   OH280007   5.323   5.727  16.485  0.8906 -0.5088 -0.1776
19531TIP3    H180008   5.330   5.818  16.516 -1.2942  0.0321 -1.0650
19531TIP3    H280009   5.395   5.718  16.423  2.0145  0.1227  0.9692
19532TIP3   OH280010   5.672   4.653  12.640 -0.6787 -0.6558  0.2082
19532TIP3    H180011   5.750   4.647  12.695 -0.7046  0.9733  0.4861
19532TIP3    H280012   5.634   4.738  12.662 -1.3857 -0.5086 -1.4339
19533TIP3   OH280013   3.922   1.007  14.657  0.1861  0.0670 -0.2270
19533TIP3    H180014   3.978   0.957  14.717  1.2629  0.5640 -0.7968
19533TIP3    H280015   3.976   1.021  14.579 -1.2499 -0.7200 -1.4089
19534TIP3   OH280016   5.173   0.037   4.933  0.4119 -1.0822  0.2774
19534TIP3    H180017   5.154   0.027   4.839 -3.0395 -0.9222  0.8243
19534TIP3    H280018   5.172  -0.053   4.967  0.3339 -1.0471  0.3677
19535TIP3   OH280019   6.697   4.814  12.655 -0.1053  0.0656  0.3844
19535TIP3    H180020   6.671   4.883  12.595  0.3334 -0.9814 -1.0688
19535TIP3    H280021   6.616   4.768  12.676 -0.3938  0.9786  1.3384
19536TIP3   OH280022   4.485   3.975  16.275  0.6106 -0.7197  0.0049
19536TIP3    H180023   4.427   3.983  16.351  0.8981 -0.3538  0.1915
19536TIP3    H280024   4.465   4.053  16.223  1.8079  0.0759  0.6881
19537TIP3   OH280025   4.631   6.654  12.748 -0.0063 -0.1050  0.1666
19537TIP3    H180026   4.557   6.703  12.783 -0.0413 -0.2782  0.3382
19537TIP3    H280027   4.591   6.585  12.694  0.0547  0.3355 -0.4494
19538TIP3   OH280028   1.687   5.111   3.139  0.2353  0.5677  0.0725
19538TIP3    H180029   1.733   5.186   3.177  0.0530 -0.7315  3.0709
19538TIP3    H280030   1.594   5.136   3.142  0.3544  2.0875 -3.5086
19539TIP3   OH280031   6.124   3.288  15.376  0.1439  0.4047  0.4307
19539TIP3    H180032   6.205   3.284  15.427  0.4038 -1.8949 -0.0536
19539TIP3    H280033   6.123   3.205  15.327 -1.9148  0.9229 -0.4836
19540TIP3   OH280034   0.522   0.091   5.085  0.0609 -0.3173  0.2259
19540TIP3    H180035   0.542   0.034   5.159  1.0432  0.2314  0.4003
19540TIP3    H280036   0.475   0.035   5.024  2.0384 -1.6754 -0.1378
19541TIP3   OH280037   6.247   6.596   4.413  0.3766  0.3900  0.4362
19541TIP3    H180038   6.261   6.690   4.423  0.4959  0.3238  0.9797
19541TIP3    H280039   6.198   6.571   4.491  0.8373 -0.0898  0.5848
19542TIP3   OH280040   5.505   4.448   4.614 -0.4448  0.5724 -0.1908
19542TIP3    H180041   5.547   4.528   4.584 -0.5695  0.6168 -0.2473
19542TIP3    H280042   5.460   4.414   4.536  1.9759 -1.0885 -0.9675
19543TIP3   OH280043   0.101   5.011  15.518 -0.7758  0.1596 -0.1600
19543TIP3    H180044   0.090   4.933  15.572  1.7084  0.2552  0.6392
19543TIP3    H280045   0.043   4.997  15.443  0.6421 -3.2488 -0.8353
19544TIP3   OH280046   6.805   2.563   5.048  0.4751 -0.0160 -0.7969
19544TIP3    H180047   6.842   2.568   5.136 -0.9144 -1.8051 -0.0518
19544TIP3    H280048   6.814   2.652   5.013  0.2080  0.9867  1.4991
19545TIP3   OH280049   2.252   5.202  16.813 -0.7353 -0.1376  0.2618
19545TIP3    H180050   2.283   5.291  16.795  0.8416 -0.4675  1.1773
19545TIP3    H280051   2.231   5.166  16.727  2.0787 -0.0803 -0.5348
19546TIP3   OH280052   2.203   3.683   0.119  0.1541 -0.3613  0.3218
19546TIP3    H180053   2.216   3.652   0.030 -0.1211  1.3404 -0.3573
19546TIP3    H280054   2.149   3.616   0.160  1.4541 -1.8558 -0.3394
19547TIP3   OH280055   0.245   2.598  15.375 -0.5002  0.0930 -0.6044
19547TIP3    H180056   0.304   2.555  15.437 -1.0269  0.1226 -0.0752
19547TIP3    H280057   0.215   2.677  15.421 -0.5788  0.3280 -1.0546
19548TIP3   OH280058   2.976   4.207   2.023 -0.3352  0.1154 -0.0127
19548TIP3    H180059   2.968   4.191   2.117 -0.2448 -1.0427 -0.1824
19548TIP3    H280060   2.925   4.136   1.982 -0.2575  0.5187 -0.8387
19549TIP3   OH280061   1.170   5.053  15.158  0.3576 -0.3123  0.0551
19549TIP3    H180062   1.154   4.964  15.191  1.1952 -0.2812  0.5654
19549TIP3    H280063   1.106   5.106  15.205  1.6359 -0.2442  1.8447
19550TIP3   OH280064   4.334   3.439  14.697 -0.1553 -0.5047 -0.1793
19550TIP3    H180065   4.365   3.352  14.723 -0.7120 -0.2697  1.3942
19550TIP3    H280066   4.315   3.431  14.603 -0.9830 -2.3229  0.0933
19551TIP3   OH280067   5.656   3.225   4.339 -0.4773  0.0819 -0.2914
19551TIP3    H180068   5.596   3.169   4.291 -0.1524 -0.1179 -0.4700
19551TIP3    H280069   5.623   3.225   4.429 -0.9144  0.2192 -0.4492
19552TIP3   OH280070   5.825   5.023  16.997  0.2851  0.5465 -0.2132
19552TIP3    H180071   5.805   4.930  16.999 -0.2187  0.6598  0.2553
19552TIP3    H280072   5.769   5.059  16.928  0.0709  0.5959 -0.0119
19553TIP3   OH280073   3.378   3.985   2.312  0.2635 -0.6062  0.1860
19553TIP3    H180074   3.309   3.919   2.318  0.5510 -0.8773  0.5619
19553TIP3    H280075   3.407   3.980   2.220 -0.2373 -0.4642  0.0189
19554TIP3   OH280076   2.041   2.528  15.958 -0.3329  0.2907  0.6083
19554TIP3    H180077   2.115   2.546  15.901 -1.9595  0.4140 -1.6076
19554TIP3    H280078   2.020   2.611  15.999 -0.4702  0.7470 -0.3563
19555TIP3   OH280079   3.025   3.164   2.196  0.8629 -0.0649 -0.1759
19555TIP3    H180080   2.930   3.158   2.181  0.6797  0.5727  0.6790
19555TIP3    H280081   3.050   3.077   2.228 -0.0403  0.6669  2.7872
19556TIP3   OH280082   0.789   2.920   3.143 -0.2964  0.3788 -0.1666
19556TIP3    H180083   0.794   2.882   3.231 -0.7492 -0.5341 -0.5260
19556TIP3    H280084   0.803   3.014   3.157 -0.3472  0.2453  0.8762
19557TIP3   OH280085   3.855   2.024  13.486  0.3947 -0.1303 -0.2814
19557TIP3    H180086   3.836   2.071  13.405  0.8660  0.3053 -0.1401
19557TIP3    H280087   3.827   2.083  13.556 -0.9927 -0.9196 -0.1192
19558TIP3   OH280088   0.104   3.721  11.992  0.5001 -0.4482  0.1002
19558TIP3    H180089   0.136   3.726  11.903 -0.5269  0.7817 -0.2252
19558TIP3    H280090   0.046   3.644  11.992 -0.7574  0.4508 -0.7562
19559TIP3   OH280091   3.642   0.187  14.420  0.3279  0.2888 -0.0766
19559TIP3    H180092   3.700   0.119  14.384 -0.4343  0.3775 -1.5558
19559TIP3    H280093   3.569   0.139  14.460  0.2122  0.2191 -0.3714
19560TIP3   OH280094   2.688   1.800  10.623 -0.4507 -0.1332 -0.3659
19560TIP3    H180095   2.756   1.844  10.573 -0.2936  0.4146  0.3186
19560TIP3    H280096   2.618   1.783  10.560 -0.7667  1.6172 -0.5365
19561TIP3   OH280097   0.459   4.552  15.639  0.0004  0.4756  0.3618
19561TIP3    H180098   0.396   4.480  15.637  0.2924  0.2242  0.0402
19561TIP3    H280099   0.543   4.509  15.652  0.0344  0.8617  1.5452
19562TIP3   OH280100   2.434   2.467  12.881  0.2508  0.1879  0.4031
19562TIP3    H180101   2.464   2.396  12.824  1.7620  0.2542  1.0757
19562TIP3    H280102   2.401   2.423  12.959 -0.5946  0.1601  0.0429
19563TIP3   OH280103   6.332   6.646  13.219  0.1504 -0.5861  0.1770
19563TIP3    H180104   6.252   6.696  13.204  1.0834  1.6905  2.1463
19563TIP3    H280105   6.397   6.686  13.162  0.6056 -0.3548  0.8482
19564TIP3   OH280106   6.399   2.347   4.400 -0.1338 -0.4066 -0.0092
19564TIP3    H180107   6.435   2.434   4.415 -0.3059 -0.6053  1.8515
19564TIP3    H280108   6.421   2.298   4.480  0.9323 -2.4180 -1.4489
19565TIP3   OH280109   3.275   0.481   0.152  0.6353  0.1137 -0.1517
19565TIP3    H180110   3.314   0.486   0.239 -2.7761 -2.0503  1.7748
19565TIP3    H280111   3.219   0.558   0.147  1.2258  0.5104 -0.6648
19566TIP3   OH280112   3.242   5.281  13.177  0.1124  0.1887 -0.2248
19566TIP3    H180113   3.177   5.325  13.122 -1.7042 -0.8883  0.9619
19566TIP3    H280114   3.312   5.256  13.116 -0.4974  1.5184 -1.5241
19567TIP3   OH280115   6.718   1.057  15.932 -0.0381 -0.0127  0.4061
19567TIP3    H180116   6.641   1.002  15.947  0.7869 -1.1542  0.6794
19567TIP3    H280117   6.750   1.079  16.019  1.6711 -2.1487  0.4247
19568TIP3   OH280118   1.078   1.853   6.578  0.2174 -0.1832  0.0423
19568TIP3    H180119   1.109   1.909   6.649  1.1849 -1.3972  0.6296
19568TIP3    H280120   1.109   1.765   6.602 -0.0984 -0.7468 -1.5017
19569TIP3   OH280121   5.434   2.715  16.337  0.1983  0.4120  0.0865
19569TIP3    H180122   5.445   2.704  16.431  1.6265  0.6029 -0.0293
19569TIP3    H280123   5.423   2.626  16.303 -0.0346  0.3227  0.3938
19570TIP3   OH280124   0.404   1.346   1.995  0.1813  0.3307  0.2615
19570TIP3    H180125   0.326   1.290   1.988  0.1986  0.2773  0.4646
19570TIP3    H280126   0.369   1.434   2.010  0.1128  0.6874 -1.7947
19571TIP3   OH280127   3.942   5.292   0.883  0.5187 -0.2285 -0.3965
19571TIP3    H180128   4.005   5.222   0.901 -0.0117 -0.7402 -0.4626
19571TIP3    H280129   3.865   5.246   0.849 -0.3367  0.2485  0.8255
19572TIP3   OH280130   0.883   0.401   5.146  0.6247  0.4105  0.4408
19572TIP3    H180131   0.852   0.330   5.203 -0.0974  0.5218  0.1920
19572TIP3    H280132   0.887   0.477   5.204 -0.0859  0.5174  0.3641
19573TIP3   OH280133   0.006   1.163  16.182 -0.0629  0.1204 -0.1662
19573TIP3    H180134  -0.073   1.205  16.217 -0.7474 -0.0664 -1.4081
19573TIP3    H280135   0.078   1.213  16.219 -0.6536 -0.7537  2.4002
19574TIP3   OH280136   5.899   6.559   0.005  0.3474 -0.0299 -0.1911
19574TIP3    H180137   5.964   6.618  -0.032  0.9881 -0.3108  0.4695
19574TIP3    H280138   5.935   6.533   0.090 -0.5320 -0.3450  0.1028
19575TIP3   OH280139   6.331   6.745  13.558  1.0715 -0.3096  0.3903
19575TIP3    H180140   6.362   6.780  13.474 -1.2891 -0.9230 -0.8407
19575TIP3    H280141   6.404   6.759  13.618  2.9225  0.0617 -1.7739
19576TIP3   OH280142   5.757   1.886   0.858 -0.1235  0.6565  0.2562
19576TIP3    H180143   5.842   1.846   0.873 -0.5845 -0.1285  0.9123
19576TIP3    H280144   5.696   1.832   0.908 -0.7940  2.1350  1.1290
19577TIP3   OH280145   5.377   5.616  16.167  0.6058 -1.0103 -0.8204
19577TIP3    H180146   5.322   5.568  16.228 -0.6856  1.6990  0.3315
19577TIP3    H280147   5.331   5.609  16.083 -0.2559 -0.7859 -0.3877
19578TIP3   OH280148   1.637   5.018  14.356  0.0908  0.3703  0.1609
19578TIP3    H180149   1.659   5.085  14.292  0.8294  1.0287  1.0652
19578TIP3    H280150   1.684   5.045  14.436 -1.5772  0.1328  1.2740
19579TIP3   OH280151   4.459   2.770  12.501 -0.5399  0.7649  0.3385
19579TIP3    H180152   4.480   2.842  12.441  1.2648  0.0433  0.0412
19579TIP3    H280153   4.527   2.773  12.568  0.3842 -1.4259 -0.4042
19580TIP3   OH280154   4.760   6.118   5.200 -0.0736  0.2420  0.3729
19580TIP3    H180155   4.741   6.085   5.287 -0.1120  0.1183  0.3175
19580TIP3    H280156   4.794   6.042   5.152  2.8212  0.9227  1.1407
19581TIP3   OH280157   5.043   5.819  12.673  0.3444  0.7126 -0.3808
19581TIP3    H180158   5.007   5.751  12.615  0.1729  0.2619  0.2465
19581TIP3    H280159   4.966   5.858  12.715  0.4633  1.0941 -0.5135
19582TIP3   OH280160   2.598   5.508  11.877 -0.3630  0.5449  0.5329
19582TIP3    H180161   2.670   5.570  11.866  1.8267 -1.2026  3.5150
19582TIP3    H280162   2.622   5.434  11.821  0.0706  0.0814  1.3110
19583TIP3   OH280163   1.909   6.513   0.054 -0.3505  0.2506 -0.1070
19583TIP3    H180164   1.868   6.527  -0.032 -0.9103  1.8429  0.3766
19583TIP3    H280165   1.959   6.593   0.070 -2.4272  1.2272  2.1966
19584TIP3   OH280166   4.427   1.293   1.378  0.6010 -0.0593  0.1606
19584TIP3    H180167   4.345   1.248   1.357  2.0255 -2.4164 -0.7625
19584TIP3    H280168   4.405   1.351   1.451 -1.7803 -0.9143  0.2026
19585TIP3   OH280169   5.747   2.173   2.329  0.9563  0.2398  0.1159
19585TIP3    H180170   5.728   2.208   2.242 -0.7233 -0.4601  0.1767
19585TIP3    H280171   5.737   2.248   2.388 -0.5022  0.1683 -0.0075
19586TIP3   OH280172   4.042   5.891  11.118  0.8221 -0.3435  0.0275
19586TIP3    H180173   3.983   5.815  11.119 -1.5233  1.3648  0.5281
19586TIP3    H280174   4.040   5.921  11.027 -2.1039  1.7847  0.6479
19587TIP3   OH280175   5.827   0.491   4.711  0.1673  0.2438 -0.3236
19587TIP3    H180176   5.881   0.413   4.698  0.5175  0.2714  0.8287
19587TIP3    H280177   5.813   0.526   4.624  0.0494 -1.0867 -0.8619
19588TIP3   OH280178   4.463   2.731   2.987 -0.0711 -0.0242 -0.7075
19588TIP3    H180179   4.480   2.658   2.927  0.0381  0.4853 -1.3115
19588TIP3    H280180   4.380   2.709   3.028 -0.4423 -0.0968 -1.4895
19589TIP3   OH280181   5.284   2.471  14.312 -0.0650  0.0330 -0.0073
19589TIP3    H180182   5.344   2.397  14.312  0.0668  0.1343 -0.8960
19589TIP3    H280183   5.337   2.545  14.281 -0.5082  0.2383 -0.2877
19590TIP3   OH280184   2.213   5.519  15.905 -0.2303  0.3499 -0.2012
19590TIP3    H180185   2.235   5.586  15.841 -1.3556  1.9428  1.0078
19590TIP3    H280186   2.260   5.545  15.984 -0.0849 -0.7279  0.0871
19591TIP3   OH280187   2.106   5.146  15.751 -0.0058 -0.0972 -0.3564
19591TIP3    H180188   2.039   5.214  15.754  0.5828  0.4682  0.3793
19591TIP3    H280189   2.182   5.190  15.714  0.0143 -0.6960 -1.0507
19592TIP3   OH280190   0.443   5.780  15.378  0.3907 -0.4349 -0.2458
19592TIP3    H180191   0.382   5.721  15.333  0.5031 -1.0109  0.3362
19592TIP3    H280192   0.400   5.801  15.461  0.7535 -0.4335 -0.0533
19593TIP3   OH280193   5.823   2.909  13.400  0.0579 -0.7457 -0.1287
19593TIP3    H180194   5.780   2.828  13.371 -2.7443  0.5838 -0.0127
19593TIP3    H280195   5.758   2.952  13.456  1.9418  1.0140  0.8446
19594TIP3   OH280196   0.904   6.185   1.719 -0.2114 -0.2607 -0.4326
19594TIP3    H180197   0.888   6.091   1.707  3.8973 -1.0772 -1.1068
19594TIP3    H280198   0.994   6.189   1.752  0.1217  3.4934 -1.4031
19595TIP3   OH280199   0.820   5.442  11.252 -0.0891 -0.0674  0.3772
19595TIP3    H180200   0.847   5.367  11.199 -1.3667 -1.7337  1.9686
19595TIP3    H280201   0.862   5.429  11.337  1.8747  2.5213 -0.0678
19596TIP3   OH280202   5.956   2.739   3.773  0.0790  0.0716  0.0356
19596TIP3    H180203   6.006   2.804   3.723  0.4344 -0.2734 -0.0659
19596TIP3    H280204   5.903   2.790   3.833 -1.0536  0.5484 -1.3140
19597TIP3   OH280205   0.462   1.947  12.549 -0.0161  0.5377 -0.1774
19597TIP3    H180206   0.465   2.041  12.530 -1.3686  0.5131 -0.5835
19597TIP3    H280207   0.515   1.937  12.628 -0.3879  1.7386  0.2431
19598TIP3   OH280208   3.548   1.930  14.764 -0.1809  0.5115 -0.1362
19598TIP3    H180209   3.503   1.978  14.833 -1.2834  0.4514 -0.7830
19598TIP3    H280210   3.641   1.936  14.786 -0.3297  2.3670  0.1622
19599TIP3   OH280211   4.675   5.645   0.379 -0.5098  0.2706 -0.0607
19599TIP3    H180212   4.713   5.727   0.349  1.1012 -0.7179 -0.8560
19599TIP3    H280213   4.666   5.656   0.474  1.8729  0.5839  0.2017
19600TIP3   OH280214   3.542   1.287   3.670 -0.3080  0.0303  0.2682
19600TIP3    H180215   3.582   1.208   3.705  1.5134  0.5752 -0.4345
19600TIP3    H280216   3.450   1.263   3.654  0.5272 -2.4814 -1.4617
19601TIP3   OH280217   0.299   3.509  13.213 -0.8491 -0.0688 -0.5621
19601TIP3    H180218   0.243   3.469  13.279 -0.2289  1.5790  1.0783
19601TIP3    H280219   0.388   3.493  13.244 -0.5733  1.7448 -0.2872
19602TIP3   OH280220   1.552   1.824   5.915  0.3489 -0.3803  0.0214
19602TIP3    H180221   1.586   1.867   5.837  1.7754 -1.2649  0.1189
19602TIP3    H280222   1.467   1.790   5.889  0.8494 -0.7524 -1.1918
19603TIP3   OH280223   3.899   5.187   2.289 -0.1859  0.0540 -0.5867
19603TIP3    H180224   3.804   5.199   2.285 -0.1206  0.7067 -0.3314
19603TIP3    H280225   3.935   5.274   2.274  0.3683 -0.1439 -0.4244
19604TIP3   OH280226   1.459   0.862   1.078 -0.0458  0.7020 -0.2107
19604TIP3    H180227   1.526   0.918   1.038 -0.2023  1.3515  0.4120
19604TIP3    H280228   1.380   0.915   1.079 -0.1251  0.5880  0.6511
19605TIP3   OH280229   1.669   5.001   0.365 -0.3055 -0.0886 -0.3539
19605TIP3    H180230   1.673   4.905   0.359  1.5607 -0.1443  0.7508
19605TIP3    H280231   1.603   5.027   0.302  0.6251 -1.9900 -2.2209
19606TIP3   OH280232   1.141   4.800  13.829 -0.2035 -0.3971 -0.0484
19606TIP3    H180233   1.231   4.810  13.797  0.2377  0.7318  1.3826
19606TIP3    H280234   1.090   4.864  13.779 -0.5327 -1.9769 -1.8286
19607TIP3   OH280235   1.416   0.802   2.913 -0.4038  0.2722 -0.0549
19607TIP3    H180236   1.452   0.891   2.916 -0.5305  0.3830 -1.4362
19607TIP3    H280237   1.321   0.814   2.909 -0.3961  0.0922 -0.8115
19608TIP3   OH280238   0.211   0.868  14.814  0.0050  0.1568  0.4725
19608TIP3    H180239   0.271   0.894  14.744 -1.7116 -2.5084 -2.2003
19608TIP3    H280240   0.132   0.920  14.799  0.7464  2.1568  2.7429
19609TIP3   OH280241   4.103   1.117  11.117  0.2073 -0.0720 -0.0824
19609TIP3    H180242   4.125   1.203  11.155  0.5090 -0.1150 -0.1602
19609TIP3    H280243   4.038   1.081  11.178  0.0905  0.2045 -0.0401
19610TIP3   OH280244   5.396   0.633   0.521  0.0784 -0.1305  0.2636
19610TIP3    H180245   5.303   0.624   0.543  0.2569  2.7722  2.8735
19610TIP3    H280246   5.402   0.716   0.473  1.2197 -0.8131 -0.8314
19611TIP3   OH280247   2.642   4.066  15.922  0.1497  0.2040  0.7252
19611TIP3    H180248   2.582   4.115  15.866  1.4460 -0.8132 -1.7115
19611TIP3    H280249   2.610   4.081  16.011 -3.4560  0.0493 -0.3948
19612TIP3   OH280250   3.741   5.711   2.930 -0.5465  0.3079  0.1859
19612TIP3    H180251   3.768   5.745   3.016 -1.7450 -0.4410  0.8867
19612TIP3    H280252   3.782   5.770   2.867 -1.6843  2.4387  1.3273
19613TIP3   OH280253   6.227   4.747   2.441  0.0550  0.4288  0.1755
19613TIP3    H180254   6.239   4.695   2.361  2.7982 -1.3138  1.5444
19613TIP3    H280255   6.255   4.835   2.417  1.4497 -0.2055 -0.7087
19614TIP3   OH280256   0.223   4.646   3.594 -0.1140 -0.1481 -0.2032
19614TIP3    H180257   0.308   4.674   3.629  0.0999 -0.3304 -0.5675
19614TIP3    H280258   0.185   4.593   3.664 -0.4926  0.9725  0.4685
19615TIP3   OH280259   1.698   4.689   2.939  0.3707  0.1297 -0.1452
19615TIP3    H180260   1.743   4.702   2.856  0.4413 -1.3566 -0.3634
19615TIP3    H280261   1.730   4.760   2.995 -2.2838  3.3561 -2.3556
19616TIP3   OH280262   1.949   5.015  15.107  0.3313  0.0069  0.1937
19616TIP3    H180263   2.036   4.990  15.139  0.8239  1.2746 -0.0673
19616TIP3    H280264   1.957   5.013  15.011 -0.8065 -2.6778  0.0646
19617TIP3   OH280265   4.747   2.366  13.195  0.1252 -0.3959  0.6988
19617TIP3    H180266   4.824   2.314  13.173 -0.4299 -1.3774  1.0282
19617TIP3    H280267   4.675   2.321  13.150 -0.4294 -0.1688  1.3539
19618TIP3   OH280268   0.183   2.591   3.331 -0.1990  0.0163 -0.4044
19618TIP3    H180269   0.224   2.593   3.418  1.2685  1.9739 -1.0635
19618TIP3    H280270   0.220   2.514   3.289 -0.7153 -0.8013  0.5873
19619TIP3   OH280271   2.829   2.146  13.752  0.4214  0.0255 -0.2459
19619TIP3    H180272   2.747   2.097  13.745  0.4077  0.2750 -4.0270
19619TIP3    H280273   2.802   2.237  13.761  0.3739 -0.0964  1.0262
19620TIP3   OH280274   5.658   3.086  13.212  0.0023  0.0410  0.4299
19620TIP3    H180275   5.726   3.050  13.270  1.6911  1.0130 -0.8657
19620TIP3    H280276   5.679   3.051  13.126  0.5205  2.4431 -0.4991
19621TIP3   OH280277   5.051   4.591  10.723 -0.3398 -0.2967  0.0737
19621TIP3    H180278   4.996   4.513  10.723 -0.1507 -0.4664 -1.1994
19621TIP3    H280279   5.116   4.574  10.655 -0.4308  1.0498 -0.3884
19622TIP3   OH280280   2.944   1.755   2.203  0.5253  0.9655 -0.0345
19622TIP3    H180281   2.992   1.675   2.181 -0.7787 -0.0009  0.5092
19622TIP3    H280282   2.870   1.756   2.142  0.6457  1.8887 -0.1824
19623TIP3   OH280283   3.185   4.199  12.861 -0.3912  1.0704  0.9453
19623TIP3    H180284   3.275   4.167  12.862 -1.2158 -1.5953 -0.2579
19623TIP3    H280285   3.145   4.162  12.940 -0.9827  0.2274  0.2807
19624TIP3   OH280286   0.675   0.099   1.860  0.9010 -0.0823  0.9671
19624TIP3    H180287   0.666   0.193   1.843  2.5614 -0.2871 -1.5672
19624TIP3    H280288   0.599   0.077   1.913 -1.0675  2.1911 -0.7037
19625TIP3   OH280289   5.667   3.232   3.298  0.2525  0.7751  0.0845
19625TIP3    H180290   5.638   3.320   3.322  0.4410  1.2021 -1.1655
19625TIP3    H280291   5.685   3.238   3.204 -2.1970 -1.2713 -0.6223
19626TIP3   OH280292   6.374   2.279  15.885 -0.5731  0.0873 -0.3557
19626TIP3    H180293   6.298   2.225  15.864 -1.4831 -0.2384  3.0639
19626TIP3    H280294   6.449   2.231  15.851 -1.3068 -3.5647  2.4924
19627TIP3   OH280295   5.345   1.562  14.614 -0.3868 -0.2721  0.4081
19627TIP3    H180296   5.275   1.537  14.675 -0.1459  0.5868  1.0583
19627TIP3    H280297   5.426   1.541  14.659 -0.2050  0.2593  0.3383
19628TIP3   OH280298   2.106   0.894  11.103 -0.5675 -0.1301 -0.1295
19628TIP3    H180299   2.029   0.948  11.083 -1.0116 -0.3870  0.8323
19628TIP3    H280300   2.151   0.885  11.019 -1.7596 -0.2546 -0.7773
19629TIP3   OH280301   0.864   4.600  11.111  0.7967  0.6418  0.9956
19629TIP3    H180302   0.917   4.619  11.034  0.3101  0.4458  0.6048
19629TIP3    H280303   0.818   4.518  11.089 -0.7291  1.5212  0.7428
19630TIP3   OH280304   4.535   1.441  10.513  0.2421  0.1884  0.2082
19630TIP3    H180305   4.471   1.383  10.471  0.6957 -0.3968  0.3038
19630TIP3    H280306   4.607   1.445  10.449  1.7360 -2.1298  1.5843
19631TIP3   OH280307   1.049   1.108   0.438 -0.4967  0.3051 -0.0201
19631TIP3    H180308   1.117   1.129   0.502 -1.0938 -0.2948  0.8357
19631TIP3    H280309   1.096   1.064   0.367  0.2290  1.3187 -0.1963
19632TIP3   OH280310   2.439   4.257  15.860  0.0927 -0.4068  0.5362
19632TIP3    H180311   2.371   4.193  15.882 -0.1386 -0.7517 -1.1061
19632TIP3    H280312   2.395   4.342  15.868 -0.5051 -0.6204 -0.3869
19633TIP3   OH280313   5.009   4.632   4.733  0.0787 -0.1044  0.3702
19633TIP3    H180314   5.007   4.562   4.798  0.9450 -0.4311  0.0519
19633TIP3    H280315   4.930   4.617   4.680 -0.1631 -0.3575  0.7954
19634TIP3   OH280316   6.607   3.808  15.717  0.0445  0.6398 -0.3451
19634TIP3    H180317   6.646   3.887  15.754 -0.9589  0.5139  1.0949
19634TIP3    H280318   6.534   3.789  15.776 -0.4915 -0.6502 -1.3950
19635TIP3   OH280319   4.338   6.794   1.239  0.7197 -0.3981 -0.5099
19635TIP3    H180320   4.363   6.721   1.295  2.3565 -0.3705 -1.1437
19635TIP3    H280321   4.274   6.843   1.290  0.1156 -1.8671  0.2065
19636TIP3   OH280322   1.852   0.823  14.388  0.0884  0.5869  0.0345
19636TIP3    H180323   1.898   0.751  14.431 -1.3974  0.6988  1.9327
19636TIP3    H280324   1.849   0.893  14.454 -2.1235  0.8374 -0.2412
19637TIP3   OH280325   4.888   6.191   5.742  0.2420 -0.2296 -0.3870
19637TIP3    H180326   4.916   6.264   5.797 -1.9212  0.1160  0.3293
19637TIP3    H280327   4.879   6.228   5.655  0.9469 -0.1097 -0.4168
19638TIP3   OH280328   0.383   1.504   3.670  0.0883 -0.0721  0.3790
19638TIP3    H180329   0.323   1.466   3.606 -0.3150  0.3485  0.4969
19638TIP3    H280330   0.405   1.431   3.728  0.4114 -0.4422 -0.2010
19639TIP3   OH280331   5.347   4.939   4.862 -0.5229 -0.3918  0.5352
19639TIP3    H180332   5.423   4.905   4.813 -0.7701 -0.6669  0.3412
19639TIP3    H280333   5.331   5.025   4.823  0.3939  0.1756  1.3381
19640TIP3   OH280334   1.616   3.542   4.848  0.0402 -0.1396 -0.1653
19640TIP3    H180335   1.684   3.567   4.785  0.3428 -1.2017 -0.2845
19640TIP3    H280336   1.608   3.447   4.837 -1.5906 -0.0129 -0.2639
19641TIP3   OH280337   0.261   2.992   4.168  0.1259 -0.4769  0.5904
19641TIP3    H180338   0.313   3.061   4.128 -1.4614 -0.0025 -0.7825
19641TIP3    H280339   0.206   3.038   4.232 -0.3477 -0.5653  0.2564
19642TIP3   OH280340   4.659   1.027  12.050  0.4381  0.0366  0.3638
19642TIP3    H180341   4.753   1.039  12.041  0.3995  1.0210  1.0675
19642TIP3    H280342   4.627   1.112  12.079 -0.7431 -0.1345 -0.3689
19643TIP3   OH280343   2.956   2.898  13.852 -0.2955  0.1819  0.1771
19643TIP3    H180344   3.045   2.864  13.854  0.0619  1.0324 -0.4941
19643TIP3    H280345   2.935   2.913  13.945 -0.6145 -2.1407  0.5228
19644TIP3   OH280346   2.127   6.817  13.293  0.4241 -0.0881  0.3337
19644TIP3    H180347   2.131   6.891  13.233  0.2842  0.1217  0.5817
19644TIP3    H280348   2.064   6.844  13.360  0.1401 -0.5539  0.2588
19645TIP3   OH280349   2.583   5.778   5.197  0.2633 -0.0401  0.0807
19645TIP3    H180350   2.520   5.717   5.157  0.6412 -1.2907  1.3053
19645TIP3    H280351   2.666   5.758   5.154  0.2887 -0.0114  0.1166
19646TIP3   OH280352   6.446   1.999  13.542 -0.0984 -0.3157 -0.2479
19646TIP3    H180353   6.517   2.058  13.569  0.8678 -1.1618 -0.9058
19646TIP3    H280354   6.376   2.058  13.515  0.5182  0.5413 -0.0361
19647TIP3   OH280355   3.891   5.757   0.361 -0.1511 -0.3832  0.3877
19647TIP3    H180356   3.865   5.709   0.440  0.1973 -1.5350 -0.1843
19647TIP3    H280357   3.849   5.711   0.289 -0.1072  0.3963 -0.1473
19648TIP3   OH280358   3.762   4.756  14.374 -0.0427  1.3762 -0.0405
19648TIP3    H180359   3.817   4.774  14.298  1.0698 -0.3169  0.3259
19648TIP3    H280360   3.816   4.779  14.449  0.5519 -1.0713  0.3560
19649TIP3   OH280361   1.164   0.644   3.843  0.1177 -0.1673  0.2618
19649TIP3    H180362   1.133   0.695   3.918  2.3282  0.2943  0.9190
19649TIP3    H280363   1.211   0.707   3.789  0.7351 -1.0226 -0.2054
19650TIP3   OH280364   4.948   5.950   0.028  0.1242 -0.0723 -0.5650
19650TIP3    H180365   4.934   6.034  -0.015 -0.5767  0.2123  0.1899
19650TIP3    H280366   4.992   5.896  -0.038 -1.0576  0.2914 -1.6873
19651TIP3   OH280367   4.021   1.872   3.507 -0.7500  0.1096 -0.6433
19651TIP3    H180368   4.029   1.960   3.470 -0.3182  0.4678  0.2648
19651TIP3    H280369   3.964   1.825   3.446 -0.0992  0.6895 -1.7154
19652TIP3   OH280370   4.543   5.119   2.725  0.3171  0.3370 -0.6086
19652TIP3    H180371   4.448   5.127   2.717  0.2829  0.6062  0.0066
19652TIP3    H280372   4.577   5.187   2.666  0.1692 -0.7296 -1.9722
19653TIP3   OH280373   6.582   0.267   0.209  0.4003 -0.6685  0.3433
19653TIP3    H180374   6.592   0.181   0.169  0.4144  0.6262 -2.6852
19653TIP3    H280375   6.667   0.310   0.196  0.0381  0.2108  0.7668
19654TIP3   OH280376   6.554   5.675   2.375 -0.6669  0.0655 -0.4409
19654TIP3    H180377   6.563   5.708   2.285 -0.0504  0.7642 -0.1287
19654TIP3    H280378   6.606   5.595   2.376  0.0072  0.4951 -0.4868
19655TIP3   OH280379   2.578   2.340  13.983  0.1435 -0.6760 -0.7745
19655TIP3    H180380   2.660   2.362  13.938 -0.3214  2.0093 -0.4758
19655TIP3    H280381   2.522   2.305  13.914  0.4339  0.6251 -1.7171
19656TIP3   OH280382   0.097   0.075  16.396  0.1994 -0.4083 -0.0124
19656TIP3    H180383   0.190   0.086  16.377  0.1063  0.2993 -0.0802
19656TIP3    H280384   0.091   0.088  16.491  0.2260 -0.8647  0.0538
19657TIP3   OH280385   3.092   1.618   1.904 -0.2883  0.0532 -0.3936
19657TIP3    H180386   3.019   1.674   1.878 -1.5544 -2.1706 -1.9335
19657TIP3    H280387   3.166   1.648   1.851 -0.4335  1.3325  0.0732
19658TIP3   OH280388   0.419   6.034   1.529  0.6147 -0.0397 -0.6696
19658TIP3    H180389   0.377   6.095   1.469 -1.4519 -0.3963  0.3302
19658TIP3    H280390   0.504   6.016   1.489  0.0089  1.0514 -2.5809
19659TIP3   OH280391   0.459   1.075   0.048 -0.2356  0.3950 -0.3902
19659TIP3    H180392   0.371   1.041   0.029 -0.2399  0.7157 -0.9801
19659TIP3    H280393   0.503   1.076  -0.037 -0.1039  1.4793 -0.3311
19660TIP3   OH280394   5.839   4.221   3.687  0.4536  0.0265  0.1754
19660TIP3    H180395   5.806   4.218   3.597  2.2129 -0.7070 -0.4727
19660TIP3    H280396   5.864   4.313   3.699  0.4997  0.0646 -0.1880
19661TIP3   OH280397   0.160   5.634   5.528  0.5512  0.0232  0.0756
19661TIP3    H180398   0.071   5.642   5.494  0.4172 -1.2250  0.0797
19661TIP3    H280399   0.156   5.560   5.588  1.3129  0.7568  1.0715
19662TIP3   OH280400   5.136   2.145  16.527 -0.5311 -0.0115 -0.5295
19662TIP3    H180401   5.211   2.202  16.538  0.7254 -1.3531 -1.6475
19662TIP3    H280402   5.060   2.202  16.538  0.6499  1.7331 -1.0272
19663TIP3   OH280403   4.864   1.502  14.471  0.1759 -0.2752  0.4085
19663TIP3    H180404   4.793   1.528  14.413  2.0142  0.3357 -1.7112
19663TIP3    H280405   4.842   1.412  14.498 -0.7904 -0.5503 -1.1971
19664TIP3   OH280406   4.826   4.899   0.245 -0.5074  0.2474 -0.0618
19664TIP3    H180407   4.879   4.935   0.174  1.7516 -0.1119  1.3572
19664TIP3    H280408   4.767   4.970   0.269  0.5243  1.2867 -0.5258
19665TIP3   OH280409   1.606   5.893  13.043 -0.0643 -0.0215  0.2532
19665TIP3    H180410   1.533   5.866  12.988 -0.2521 -0.8688  0.9031
19665TIP3    H280411   1.580   5.870  13.132  0.2555  1.2888  0.7210
19666TIP3   OH280412   0.935   0.305   4.254  0.2313  0.1509 -0.2407
19666TIP3    H180413   0.935   0.212   4.274 -0.5227 -0.0377 -1.0659
19666TIP3    H280414   0.995   0.314   4.180  1.5894  0.5782  0.8740
19667TIP3   OH280415   1.535   3.462   0.652  0.0366 -0.2988 -0.0381
19667TIP3    H180416   1.511   3.544   0.694 -1.8329 -1.2528  0.8928
19667TIP3    H280417   1.465   3.447   0.588  1.2178 -0.3903 -1.3660
19668TIP3   OH280418   3.796   4.928  12.767  0.3668 -0.5226  0.1210
19668TIP3    H180419   3.721   4.881  12.731 -1.7476  0.5221  2.7703
19668TIP3    H280420   3.836   4.866  12.828 -0.1659 -0.1369  0.8762
19669TIP3   OH280421   5.357   3.282   3.213 -0.1417 -0.0347  0.1910
19669TIP3    H180422   5.422   3.239   3.268  1.2096  1.6608  0.0102
19669TIP3    H280423   5.332   3.215   3.148  0.4053 -1.1260  1.0762
19670TIP3   OH280424   1.750   1.263   2.817  0.9281 -0.1085  0.1798
19670TIP3    H180425   1.664   1.303   2.804  1.4605  0.9821 -0.0689
19670TIP3    H280426   1.757   1.253   2.912  0.2183 -0.9255  0.1609
19671TIP3   OH280427   2.811   0.647   3.721  0.7625 -0.5292  0.4206
19671TIP3    H180428   2.796   0.645   3.815  1.1907  0.1417  0.5072
19671TIP3    H280429   2.727   0.677   3.684  1.1311  0.9687  0.7337
19672TIP3   OH280430   0.706   1.375   3.673 -0.2357  0.0126 -0.2286
19672TIP3    H180431   0.627   1.323   3.658 -0.2820  0.2884 -1.0551
19672TIP3    H280432   0.741   1.390   3.585 -0.4991  1.7737 -0.0741
19673TIP3   OH280433   4.765   4.483   5.517 -0.3143 -0.4453 -0.0244
19673TIP3    H180434   4.757   4.479   5.612 -0.9930  0.2375 -0.0316
19673TIP3    H280435   4.848   4.441   5.497 -1.0542 -2.3320  0.7053
19674TIP3   OH280436   2.021   0.720   2.214 -0.5281  0.7867 -0.3801
19674TIP3    H180437   1.931   0.730   2.244  0.1976  0.4408  2.2303
19674TIP3    H280438   2.055   0.648   2.268  1.6221  1.7047 -0.4246
19675TIP3   OH280439   0.936   3.653  13.868 -0.1366  0.2151  0.4536
19675TIP3    H180440   0.881   3.677  13.943 -0.9655 -2.7246  0.9145
19675TIP3    H280441   0.873   3.624  13.801  0.7230 -0.9359  0.1145
19676TIP3   OH280442   0.930   5.354  13.794  0.1633 -0.4918  1.0862
19676TIP3    H180443   0.915   5.298  13.870 -0.3289 -1.2846  0.4135
19676TIP3    H280444   0.984   5.426  13.828 -0.1715 -0.7538  2.2132
19677TIP3   OH280445   6.697   5.046  13.303 -0.7350 -0.3724 -0.1585
19677TIP3    H180446   6.747   4.970  13.273 -1.2497 -0.9840  0.4835
19677TIP3    H280447   6.653   5.078  13.224  0.5335  0.1010 -0.7103
19678TIP3   OH280448   5.708   2.571   0.062  0.2286  0.0065 -0.1632
19678TIP3    H180449   5.721   2.660   0.095  1.4947  0.1818 -1.0860
19678TIP3    H280450   5.669   2.524   0.136  2.1414  0.6121  1.3248
19679TIP3   OH280451   0.576   3.469   0.113 -0.0449  0.2667  0.5934
19679TIP3    H180452   0.566   3.465   0.018 -1.3410  0.6910  0.6916
19679TIP3    H280453   0.657   3.518   0.127  0.1960  0.1218 -0.2900
19680TIP3   OH280454   1.627   6.022   6.323  0.6751 -0.1613 -0.5918
19680TIP3    H180455   1.685   6.093   6.296 -0.2369  1.3406  1.1978
19680TIP3    H280456   1.553   6.027   6.262 -1.4385  3.2873  1.8794
19681TIP3   OH280457   2.866   6.252   4.999 -0.0356 -0.0268  0.8738
19681TIP3    H180458   2.787   6.300   5.025 -0.6133 -0.0689 -0.6814
19681TIP3    H280459   2.894   6.206   5.078 -1.4706  0.1269  1.4971
19682TIP3   OH280460   6.551   4.054   4.010  0.2223 -0.0886 -0.2605
19682TIP3    H180461   6.625   4.102   3.974  1.5597 -1.6151  0.3310
19682TIP3    H280462   6.590   3.981   4.057 -1.5864  0.0100  1.5543
19683TIP3   OH280463   3.675   2.497   4.384  0.2372 -0.1776 -0.0074
19683TIP3    H180464   3.580   2.495   4.373  0.3462 -0.4845 -0.9967
19683TIP3    H280465   3.710   2.484   4.296  1.2036 -1.1290  0.4858
19684TIP3   OH280466   2.875   2.612  12.362 -0.2741  0.2318 -0.4615
19684TIP3    H180467   2.876   2.659  12.445 -1.0129 -0.2230 -0.1860
19684TIP3    H280468   2.871   2.681  12.295 -1.3977  0.5781 -0.0628
19685TIP3   OH280469   1.452   6.285  14.395  0.5208  0.4671  0.3537
19685TIP3    H180470   1.415   6.354  14.451 -0.6602 -0.2123  0.4550
19685TIP3    H280471   1.385   6.270  14.328  0.9634 -0.2519  0.0574
19686TIP3   OH280472   5.505   4.995   3.637  0.0088 -0.3429  0.6478
19686TIP3    H180473   5.462   5.046   3.705  1.1784  1.9287 -0.2232
19686TIP3    H280474   5.441   4.928   3.612 -1.8195  1.0451  1.4599
19687TIP3   OH280475   1.835   1.402   0.861  0.6425  0.6859  0.6794
19687TIP3    H180476   1.892   1.364   0.793  0.6175 -0.2562  1.1723
19687TIP3    H280477   1.750   1.361   0.846  0.4348  1.0751  0.7926
19688TIP3   OH280478   0.063   2.116  10.960  0.1598 -0.2276 -0.7305
19688TIP3    H180479   0.039   2.023  10.961  0.1159 -0.2666  2.0400
19688TIP3    H280480   0.146   2.119  11.008 -0.0482  1.2022 -0.4173
19689TIP3   OH280481   4.547   3.405  13.101  0.3359  0.0737 -0.1964
19689TIP3    H180482   4.462   3.429  13.064  0.2338 -0.2017 -0.1461
19689TIP3    H280483   4.571   3.479  13.157  0.7135  0.7144 -1.1669
19690TIP3   OH280484   6.037   4.812  11.710  0.0508 -0.5119 -1.0398
19690TIP3    H180485   6.111   4.838  11.764  0.9104 -1.5659 -1.6737
19690TIP3    H280486   6.075   4.793  11.624 -1.2636  1.0129 -2.0152
19691TIP3   OH280487   1.655   3.495   1.391 -0.1092 -0.9449 -0.0153
19691TIP3    H180488   1.705   3.444   1.327 -0.7465 -0.9575 -0.5102
19691TIP3    H280489   1.648   3.437   1.466 -0.4983 -1.4481 -0.4305
19692TIP3   OH280490   2.785   4.182   4.611  0.2458 -0.5433 -0.8313
19692TIP3    H180491   2.795   4.165   4.517 -0.2976 -2.9524 -0.5150
19692TIP3    H280492   2.747   4.270   4.616 -2.1027 -1.3271 -2.9917
19693TIP3   OH280493   1.883   3.403   2.543  0.0085  0.0146  0.3554
19693TIP3    H180494   1.875   3.396   2.448  0.8613  0.9898  0.1974
19693TIP3    H280495   1.972   3.436   2.557 -0.5315  1.0802  1.4210
19694TIP3   OH280496   0.554   0.545  14.774  0.2990  0.1621 -0.2155
19694TIP3    H180497   0.594   0.596  14.704 -1.1721 -1.1452 -2.0972
19694TIP3    H280498   0.477   0.505  14.734 -1.1157  0.0478  2.4056
19695TIP3   OH280499   6.815   6.762  15.576  0.0175  0.1829  0.4510
19695TIP3    H180500   6.856   6.849  15.573 -0.0354  0.2004  0.1727
19695TIP3    H280501   6.761   6.764  15.655  0.6605  0.1116  0.8982
19696TIP3   OH280502   1.763   4.289  13.056 -0.7932  0.3044  0.6276
19696TIP3    H180503   1.719   4.224  13.001 -4.0921  2.3595  0.5554
19696TIP3    H280504   1.729   4.272  13.144 -1.1006  1.3643  0.7322
19697TIP3   OH280505   2.736   3.567  15.157  0.3072  0.4769  0.0196
19697TIP3    H180506   2.802   3.501  15.177 -1.2821 -0.9142  0.9412
19697TIP3    H280507   2.668   3.554  15.223 -1.5037  0.9657 -1.6344
19698TIP3   OH280508   1.872   0.429   0.495 -0.3931  0.2307  0.5111
19698TIP3    H180509   1.853   0.411   0.403 -0.3714 -0.4864  0.6362
19698TIP3    H280510   1.965   0.449   0.497 -0.7676  2.1253  0.1225
19699TIP3   OH280511   5.717   1.416   0.804  0.3001 -0.6781 -0.1291
19699TIP3    H180512   5.622   1.423   0.806  0.3424  0.0056  1.4943
19699TIP3    H280513   5.740   1.419   0.712 -1.1752  0.5844 -0.4910
19700TIP3   OH280514   1.471   4.014  15.488 -0.2840 -0.0752  0.0580
19700TIP3    H180515   1.472   4.015  15.392  0.3201 -1.9542 -0.0028
19700TIP3    H280516   1.558   3.982  15.513 -0.7904 -0.6162  1.1932
19701TIP3   OH280517   4.234   3.685  16.983 -0.0728  0.0581 -0.5142
19701TIP3    H180518   4.222   3.624  17.055 -2.9235  0.1559 -0.8277
19701TIP3    H280519   4.275   3.633  16.914 -1.5205 -1.2740 -0.4166
19702TIP3   OH280520   3.736   1.729  13.479 -0.1906  0.2452  0.1966
19702TIP3    H180521   3.741   1.817  13.517 -0.2334 -0.0628  0.9209
19702TIP3    H280522   3.673   1.683  13.534 -0.3692 -0.1660 -0.3438
19703TIP3   OH280523   6.469   2.108  11.330  0.2296 -0.2630  0.0892
19703TIP3    H180524   6.474   2.094  11.425  0.6627 -1.1367 -0.0533
19703TIP3    H280525   6.558   2.089  11.299 -0.6483 -3.3305 -0.9059
19704TIP3   OH280526   2.920   5.642  12.819  0.2652 -0.6207 -0.2173
19704TIP3    H180527   2.883   5.704  12.756 -0.8002 -1.2501 -0.2490
19704TIP3    H280528   2.969   5.696  12.881 -1.5002  0.3911  0.3684
19705TIP3   OH280529   1.064   1.645   0.155 -0.3372 -0.5762  0.3450
19705TIP3    H180530   1.082   1.723   0.208  2.5192 -2.0882  1.8748
19705TIP3    H280531   1.109   1.661   0.072 -1.9987  0.4209 -0.4084
19706TIP3   OH280532   2.832   1.352  10.461 -0.3434 -0.6276 -0.5185
19706TIP3    H180533   2.825   1.369  10.367 -3.2181  0.6688 -0.1838
19706TIP3    H280534   2.748   1.312  10.484  0.1789 -0.6207  1.5552
19707TIP3   OH280535   4.666   6.554   0.264  0.2029  0.3100 -0.4754
19707TIP3    H180536   4.673   6.500   0.185 -0.7849  0.4321 -0.6696
19707TIP3    H280537   4.577   6.539   0.295 -0.0570  1.7129 -0.4566
19708TIP3   OH280538   4.119   0.334   4.608 -0.5890 -0.3703 -0.5712
19708TIP3    H180539   4.092   0.333   4.700  0.6062  1.7495 -0.1488
19708TIP3    H280540   4.096   0.247   4.576 -2.4783 -0.6389  1.2943
19709TIP3   OH280541   6.261   3.532  12.723  0.1651 -0.3455  0.0814
19709TIP3    H180542   6.246   3.603  12.787 -1.0063 -1.9434  1.6852
19709TIP3    H280543   6.287   3.457  12.776  0.9882 -1.2588 -1.5404
19710TIP3   OH280544   4.801   4.552  13.259 -0.2411 -0.2057 -0.4001
19710TIP3    H180545   4.808   4.523  13.350 -1.2029  1.2065  0.1589
19710TIP3    H280546   4.798   4.470  13.208 -0.6160 -1.0426  0.9101
19711TIP3   OH280547   6.427   2.229  16.163 -0.2266  0.8632 -0.3904
19711TIP3    H180548   6.382   2.289  16.222  0.0972  2.1407 -1.4048
19711TIP3    H280549   6.409   2.263  16.075  3.2772  1.8941 -0.8670
19712TIP3   OH280550   6.337   2.006   1.065  0.2440  0.2681  0.5410
19712TIP3    H180551   6.341   1.988   1.159 -0.5288  0.4690  0.6244
19712TIP3    H280552   6.257   2.058   1.054  1.0031  1.3317 -0.0619
19713TIP3   OH280553   4.511   3.133   6.218 -0.2322 -0.2436 -0.8385
19713TIP3    H180554   4.469   3.075   6.155 -1.9730  0.5279 -0.4571
19713TIP3    H280555   4.460   3.122   6.298 -0.4659  1.6066 -0.6848
19714TIP3   OH280556   6.791   3.114  13.193 -0.4802 -0.7749  0.6727
19714TIP3    H180557   6.728   3.137  13.261 -1.0096 -2.1178  0.6806
19714TIP3    H280558   6.773   3.021  13.175  0.9792 -0.9741  0.1232
19715TIP3   OH280559   6.107   5.618   3.326  0.0264 -0.7640 -0.3920
19715TIP3    H180560   6.194   5.618   3.287  0.7568  0.6857  1.1113
19715TIP3    H280561   6.087   5.711   3.338 -1.7792 -1.0616 -0.7556
19716TIP3   OH280562   5.460   3.957  12.483  0.2172  0.1003 -0.5981
19716TIP3    H180563   5.489   3.932  12.571  0.4379 -0.5719 -0.8525
19716TIP3    H280564   5.538   3.998  12.444 -0.1545  1.2494 -0.1693
19717TIP3   OH280565   5.703   3.055  15.847 -0.1523 -0.4503 -0.2095
19717TIP3    H180566   5.690   3.112  15.922 -1.5914 -0.7059 -0.2472
19717TIP3    H280567   5.759   2.984  15.880  2.3862  1.3313 -0.3733
19718TIP3   OH280568   6.049   4.570  14.359 -0.1212  0.4631  0.1424
19718TIP3    H180569   6.013   4.602  14.276 -1.4293 -0.3108  0.3847
19718TIP3    H280570   6.096   4.646  14.395 -1.3767  1.4827 -0.2787
19719TIP3   OH280571   1.745   0.491  11.616 -0.1298  0.0484 -0.3301
19719TIP3    H180572   1.788   0.575  11.633  0.7104  0.0489 -2.2570
19719TIP3    H280573   1.816   0.433  11.591 -0.9470 -0.7166 -0.9100
19720TIP3   OH280574   2.885   2.086  14.366 -0.2658 -0.2747  0.5663
19720TIP3    H180575   2.832   2.026  14.418  0.3492 -2.2766 -0.9864
19720TIP3    H280576   2.947   2.029  14.319 -0.7257  1.3643 -2.2681
19721TIP3   OH280577   5.256   6.137  12.365 -0.1291 -0.1244  0.0472
19721TIP3    H180578   5.232   6.223  12.400  0.1039 -0.2881  0.6311
19721TIP3    H280579   5.285   6.154  12.276 -3.2409 -0.0209 -1.0526
19722TIP3   OH280580   3.018   2.147  11.402 -0.0316 -0.4778 -0.4362
19722TIP3    H180581   3.009   2.056  11.375  0.6611 -0.1770 -1.7459
19722TIP3    H280582   2.975   2.151  11.488  0.8543 -2.2492  0.1231
19723TIP3   OH280583   2.011   5.363  11.901  0.1157 -0.2210  0.3819
19723TIP3    H180584   2.020   5.289  11.960  0.8848 -2.1243 -1.9914
19723TIP3    H280585   2.097   5.406  11.902  0.2205 -0.4336  0.3795
19724TIP3   OH280586   2.258   1.145  12.812  0.3665  0.4179  0.3515
19724TIP3    H180587   2.192   1.180  12.753  1.6240  0.9332 -0.8095
19724TIP3    H280588   2.280   1.218  12.870 -0.1296  0.2177  0.8012
19725TIP3   OH280589   5.972   3.473   3.544 -0.3946  0.0250  0.0016
19725TIP3    H180590   6.015   3.388   3.547  0.8029  0.5628 -0.9833
19725TIP3    H280591   6.039   3.536   3.570 -1.6403  0.5821  2.0530
19726TIP3   OH280592   1.606   1.061   3.829  0.0486  0.5107 -0.0494
19726TIP3    H180593   1.651   1.145   3.820  0.7155  0.1914  0.2498
19726TIP3    H280594   1.612   1.040   3.922  1.8786 -0.9188 -0.4075
19727TIP3   OH280595   2.462   0.858   3.146 -0.4440  0.1335  1.0169
19727TIP3    H180596   2.479   0.943   3.187  1.1016 -0.8001  2.4478
19727TIP3    H280597   2.509   0.861   3.063  0.3421  0.3747  1.4604
19728TIP3   OH280598   5.051   6.562   3.453 -0.2457 -0.2282 -0.2796
19728TIP3    H180599   5.082   6.618   3.524  1.5363  0.9096 -1.8489
19728TIP3    H280600   5.116   6.492   3.447  1.2977  1.2326 -2.4861
19729TIP3   OH280601   5.840   0.276  11.867  0.5128 -1.1673 -0.2988
19729TIP3    H180602   5.771   0.211  11.854 -0.0321 -1.1699  2.2158
19729TIP3    H280603   5.921   0.229  11.848 -0.0004 -2.0126 -0.4499
19730TIP3   OH280604   3.121   1.156   1.157 -0.0969  0.5621  0.1172
19730TIP3    H180605   3.043   1.206   1.183  0.4958  2.3141 -1.2398
19730TIP3    H280606   3.098   1.117   1.073 -0.2671 -0.8421  0.7880
19731TIP3   OH280607   2.027   3.112  15.888  0.0468 -0.3304 -0.9195
19731TIP3    H180608   2.021   3.197  15.930  0.9670 -0.0868 -1.2631
19731TIP3    H280609   2.085   3.126  15.813  0.8847 -1.4299 -0.5039
19732TIP3   OH280610   4.488   6.144   5.420 -0.3962 -0.1896 -0.1279
19732TIP3    H180611   4.531   6.111   5.499  0.4657  1.8745  0.3626
19732TIP3    H280612   4.421   6.204   5.452  1.2089  2.1824 -0.8222
19733TIP3   OH280613   2.269   3.826   0.391  0.5445  0.1837  0.2818
19733TIP3    H180614   2.270   3.816   0.486 -1.3455  1.4878  0.5072
19733TIP3    H280615   2.206   3.760   0.362 -1.0399  1.6203  0.2877
19734TIP3   OH280616   4.879   3.253   2.939 -0.2395 -0.0720 -0.4941
19734TIP3    H180617   4.897   3.160   2.925  2.5439  0.5025 -1.2833
19734TIP3    H280618   4.937   3.278   3.011 -2.7993  0.5837  1.4950
19735TIP3   OH280619   5.248   3.493   0.472 -0.1068 -0.4907 -0.1512
19735TIP3    H180620   5.312   3.524   0.409  0.6952 -2.0681 -0.1525
19735TIP3    H280621   5.264   3.545   0.551  1.1211 -0.7927 -0.1854
19736TIP3   OH280622   4.546   1.262  16.762 -0.1155 -0.0278  0.0731
19736TIP3    H180623   4.554   1.339  16.818 -0.7118 -0.8302  1.2823
19736TIP3    H280624   4.489   1.202  16.810  0.0230 -1.0765 -1.0172
19737TIP3   OH280625   5.273   4.365   5.252  0.2517  0.0512  0.3452
19737TIP3    H180626   5.351   4.336   5.299  0.0482 -1.6876 -0.2941
19737TIP3    H280627   5.306   4.406   5.172  0.5343 -0.6978  0.0677
19738TIP3   OH280628   2.243   0.753  13.109  0.1680  0.2099 -0.0948
19738TIP3    H180629   2.296   0.821  13.151  0.1663  0.5674 -0.6539
19738TIP3    H280630   2.174   0.802  13.064 -1.1526 -0.2899  1.2963
19739TIP3   OH280631   0.522   4.894  12.302 -0.3796 -0.0720 -0.2279
19739TIP3    H180632   0.431   4.919  12.290 -0.7637 -0.2746  1.9102
19739TIP3    H280633   0.551   4.943  12.378  0.4330 -2.0913  0.8437
19740TIP3   OH280634   1.935   0.951  12.673 -0.2189  0.0205  0.4138
19740TIP3    H180635   1.913   1.022  12.734  3.0943  1.9654 -0.4106
19740TIP3    H280636   1.858   0.942  12.618 -1.0268  2.5840  0.9862
19741TIP3   OH280637   0.335   0.745  11.769  0.5451  0.4298 -0.7848
19741TIP3    H180638   0.274   0.815  11.745  0.5864  0.2515 -1.4088
19741TIP3    H280639   0.422   0.784  11.761  0.5696  0.3025 -1.1603
19742TIP3   OH280640   2.991   5.178   4.033 -0.2792  0.2063 -0.1185
19742TIP3    H180641   3.076   5.222   4.042  1.1405 -2.4899  0.9169
19742TIP3    H280642   2.996   5.134   3.948  0.1361 -1.3749  0.6932
19743TIP3   OH280643   3.813   6.110  14.977 -0.0899 -0.2537  0.2050
19743TIP3    H180644   3.794   6.105  14.883  2.4393 -0.6418 -0.3654
19743TIP3    H280645   3.750   6.173  15.011  0.2814  1.5439 -2.1779
19744TIP3   OH280646   2.557   1.640  16.738  0.1511  0.1025 -0.4974
19744TIP3    H180647   2.638   1.691  16.731 -1.1644  2.2711 -1.0935
19744TIP3    H280648   2.523   1.637  16.649 -0.4054 -0.8617 -0.2692
19745TIP3   OH280649   6.024   2.876   4.915  0.0093 -0.2574 -0.4451
19745TIP3    H180650   6.062   2.807   4.969 -0.5885  0.0725  0.4024
19745TIP3    H280651   6.013   2.950   4.974  0.7743  0.6391 -1.3695
19746TIP3   OH280652   2.004   6.626   4.247  0.9222 -0.5795  0.2635
19746TIP3    H180653   2.024   6.655   4.158 -3.4623  2.9172  0.0579
19746TIP3    H280654   1.922   6.578   4.239 -0.7093  1.5721  2.4699
19747TIP3   OH280655   4.712   0.887   1.041  0.2841  0.1707 -0.0577
19747TIP3    H180656   4.654   0.936   0.983  0.3810  1.1546  0.6444
19747TIP3    H280657   4.800   0.905   1.007  0.3534  0.8830  0.4638
19748TIP3   OH280658   1.166   3.613   1.991 -0.1422 -0.1977 -0.6580
19748TIP3    H180659   1.126   3.526   1.981  1.7277 -1.0490 -1.2116
19748TIP3    H280660   1.206   3.611   2.078  1.1278 -0.4552 -1.2250
19749TIP3   OH280661   4.093   1.108   2.134 -0.1262 -0.1067 -0.1077
19749TIP3    H180662   4.120   1.019   2.112  0.3555 -0.3634  1.4511
19749TIP3    H280663   4.035   1.133   2.062 -0.3380 -1.7033 -0.5360
19750TIP3   OH280664   4.248   6.222   2.356  0.1500  0.6949 -0.3612
19750TIP3    H180665   4.183   6.218   2.427 -0.1214  1.0386 -0.5863
19750TIP3    H280666   4.199   6.253   2.280 -0.4418 -3.0782 -1.7479
19751TIP3   OH280667   5.410   4.965  12.165  0.2748  0.1451 -0.8236
19751TIP3    H180668   5.445   4.935  12.249  0.1010 -1.3138 -1.2583
19751TIP3    H280669   5.336   5.021  12.189 -1.8525 -2.8336  0.0119
19752TIP3   OH280670   2.455   1.167  12.537  0.2440 -0.1103  0.6221
19752TIP3    H180671   2.482   1.080  12.567 -0.1860 -0.7334 -0.7366
19752TIP3    H280672   2.387   1.150  12.472 -0.1140  1.2644  0.6115
19753TIP3   OH280673   2.826   5.722   5.083  0.0447  0.1120  0.5771
19753TIP3    H180674   2.869   5.674   5.154  1.6404 -0.8009 -0.9225
19753TIP3    H280675   2.889   5.789   5.058 -0.4928  0.4186  0.0206
19754TIP3   OH280676   3.852   6.046   1.907 -0.3778 -0.1331 -0.3318
19754TIP3    H180677   3.834   6.063   1.814 -2.3110  1.6850  0.2964
19754TIP3    H280678   3.774   6.079   1.953  1.6116  1.5356  2.1391
19755TIP3   OH280679   3.828   3.196   0.244 -0.0941 -0.2803  0.1630
19755TIP3    H180680   3.901   3.135   0.233  0.6513  0.6174  0.0611
19755TIP3    H280681   3.777   3.185   0.163  0.8834  0.3323 -0.5636
19756TIP3   OH280682   0.784   2.035  13.192  1.0305 -0.3465 -0.2095
19756TIP3    H180683   0.727   1.959  13.185  2.2958 -1.4219  0.7048
19756TIP3    H280684   0.862   2.012  13.142  2.6037 -0.8634  2.2883
19757TIP3   OH280685   6.760   0.555   4.316 -0.4682 -0.0664 -0.0709
19757TIP3    H180686   6.853   0.538   4.332 -0.1596  1.9247  0.4591
19757TIP3    H280687   6.721   0.468   4.311  0.9164 -0.9583  2.6094
19758TIP3   OH280688   3.478   2.684   3.245 -0.1886 -0.0880  0.2531
19758TIP3    H180689   3.464   2.779   3.239 -1.3106 -0.2851 -0.3968
19758TIP3    H280690   3.558   2.676   3.297 -1.2449  1.1775  2.2331
19759TIP3   OH280691   3.711   5.676  13.716  0.2158 -0.1020  0.0289
19759TIP3    H180692   3.621   5.650  13.734  0.2778  1.0543  2.4555
19759TIP3    H280693   3.756   5.594  13.695 -1.0732 -0.9188  0.3354
19760TIP3   OH280694   6.529   4.453   0.846  0.1784  0.4226  0.7006
19760TIP3    H180695   6.546   4.425   0.756 -0.3273  0.9233  0.4431
19760TIP3    H280696   6.611   4.436   0.893  1.0160  1.6791 -0.2351
19761TIP3   OH280697   5.139   4.870  11.351  0.1715  0.0205  0.8464
19761TIP3    H180698   5.171   4.866  11.261  1.8690  0.8143  1.3760
19761TIP3    H280699   5.117   4.780  11.373  1.7872 -0.5204  0.3383
19762TIP3   OH280700   5.600   2.455  15.808 -0.3189 -0.3678  0.2765
19762TIP3    H180701   5.648   2.402  15.871  1.0314  0.2691 -0.1944
19762TIP3    H280702   5.654   2.455  15.730 -0.0681  1.9990  0.3881
19763TIP3   OH280703   2.390   0.650  15.928  0.4652 -0.5788 -0.7083
19763TIP3    H180704   2.304   0.659  15.886  0.8457 -1.4301 -1.7194
19763TIP3    H280705   2.432   0.735  15.915  0.0725 -0.4118 -0.9110
19764TIP3   OH280706   5.520   4.447  16.344 -0.0279  0.1549  0.1835
19764TIP3    H180707   5.582   4.477  16.277  0.3225 -1.5574 -0.3019
19764TIP3    H280708   5.540   4.501  16.421  2.5029 -0.7268  0.2362
19765TIP3   OH280709   4.212   1.416   3.941 -0.7513  0.2856 -0.3007
19765TIP3    H180710   4.296   1.462   3.935 -0.1812 -0.8146 -1.2643
19765TIP3    H280711   4.147   1.480   3.911 -0.2976  1.2128  0.6414
19766TIP3   OH280712   5.083   5.462   3.872 -0.2592 -0.0884  0.0558
19766TIP3    H180713   5.058   5.548   3.838 -0.8568 -0.0163  0.6560
19766TIP3    H280714   5.113   5.480   3.961  1.8413 -0.1869 -0.5765
19767TIP3   OH280715   5.092   5.825   3.125  0.3002 -0.0546  0.0682
19767TIP3    H180716   5.113   5.814   3.218 -2.6958  0.9363  0.9722
19767TIP3    H280717   5.062   5.739   3.096 -0.6018  0.0683  0.5964
19768TIP3   OH280718   4.247   1.469   3.056 -0.0641 -0.5627  0.4606
19768TIP3    H180719   4.193   1.494   2.981 -0.8056 -2.5546  0.2607
19768TIP3    H280720   4.207   1.388   3.088  0.0955  0.3587  3.1848
19769TIP3   OH280721   0.733   4.160   0.066  0.4641 -0.1145 -0.2012
19769TIP3    H180722   0.782   4.079   0.049 -1.0977 -0.9824 -0.8239
19769TIP3    H280723   0.761   4.220  -0.003 -2.4805 -2.0820 -3.4596
19770TIP3   OH280724   2.882   0.196   6.233  0.0298 -0.2543  0.2418
19770TIP3    H180725   2.950   0.136   6.202  0.3702  0.3000 -0.1039
19770TIP3    H280726   2.884   0.269   6.170  1.1458  1.1928  1.8745
19771TIP3   OH280727   4.335   3.590  12.877 -0.2996 -0.1328  0.6516
19771TIP3    H180728   4.352   3.644  12.800  0.5094  0.0175  0.9235
19771TIP3    H280729   4.346   3.650  12.951 -2.6656  0.1403  0.8534
19772TIP3   OH280730   1.025   5.556   4.230 -0.7122  0.0877 -0.3075
19772TIP3    H180731   1.086   5.597   4.292 -1.0301  1.2879 -0.7657
19772TIP3    H280732   1.078   5.494   4.181 -0.1373  0.1990  0.1629
19773TIP3   OH280733   1.440   4.620  14.362 -0.1442  0.0994  0.6994
19773TIP3    H180734   1.444   4.531  14.329  1.0110  0.6148 -0.6709
19773TIP3    H280735   1.529   4.654  14.352 -1.1149  2.2933 -1.5257
19774TIP3   OH280736   1.271   4.892  11.328 -0.4168  0.3417 -0.8211
19774TIP3    H180737   1.331   4.966  11.321 -0.0070  0.0393 -0.5442
19774TIP3    H280738   1.314   4.821  11.280 -1.3170  0.5936 -2.0406
19775TIP3   OH280739   4.575   1.330   5.712  0.2752  0.0248  0.3289
19775TIP3    H180740   4.553   1.388   5.638  0.9176 -0.6928 -0.4434
19775TIP3    H280741   4.554   1.242   5.680 -0.5717 -0.2043  1.4469
19776TIP3   OH280742   1.880   5.054   5.849  0.7225 -0.0691 -0.7528
19776TIP3    H180743   1.941   5.117   5.888  1.7116  0.4336 -2.9727
19776TIP3    H280744   1.794   5.094   5.861  1.0127  0.2442  0.5045
19777TIP3   OH280745   6.655   0.180  12.896  0.2056  0.1904 -0.3569
19777TIP3    H180746   6.747   0.163  12.876  0.6440  1.8743  0.0597
19777TIP3    H280747   6.623   0.228  12.819 -0.5981 -1.1267 -0.8850
19778TIP3   OH280748   5.899   0.251   0.433  0.9593 -0.6412 -0.0055
19778TIP3    H180749   5.845   0.260   0.512 -0.0401  1.0337 -0.8183
19778TIP3    H280750   5.876   0.165   0.398  0.6636 -0.9790  0.9875
19779TIP3   OH280751   2.052   5.938  15.184 -0.6252  0.1200 -0.5610
19779TIP3    H180752   2.009   6.013  15.144  0.3377  0.2656 -1.3913
19779TIP3    H280753   2.112   5.976  15.249 -1.4467 -0.0535  0.3123
19780TIP3   OH280754   1.179   5.845   5.566 -0.3825 -0.2302  0.0949
19780TIP3    H180755   1.198   5.933   5.535  0.0093 -0.2753  0.1919
19780TIP3    H280756   1.218   5.842   5.654  2.9390 -1.6501 -1.2748
19781TIP3   OH280757   3.826   6.798  14.493 -0.3370 -0.0213 -0.2385
19781TIP3    H180758   3.915   6.828  14.510 -0.9848  0.5787  2.7065
19781TIP3    H280759   3.818   6.798  14.397  2.0782  2.0862 -0.5515
19782TIP3   OH280760   6.638   6.618   4.785  0.3252 -0.1019 -0.2677
19782TIP3    H180761   6.650   6.705   4.747  2.0205 -0.8926 -1.7005
19782TIP3    H280762   6.700   6.616   4.858 -0.4526  0.2152  0.4197
19783TIP3   OH280763   6.528   4.314   0.372  0.5206 -0.0697 -0.7069
19783TIP3    H180764   6.497   4.263   0.298 -1.4558 -2.2900  1.4768
19783TIP3    H280765   6.572   4.251   0.429 -2.4339  0.3620  2.3429
19784TIP3   OH280766   5.621   4.993   4.041  0.1995 -0.5644  0.6569
19784TIP3    H180767   5.534   4.981   4.002 -0.1069  0.4425  0.9793
19784TIP3    H280768   5.666   4.910   4.026 -0.2690 -0.5755 -0.8931
19785TIP3   OH280769   0.428   2.530  15.570  0.0919 -0.0975 -0.1362
19785TIP3    H180770   0.500   2.588  15.595 -0.3556 -0.0722  1.1596
19785TIP3    H280771   0.425   2.463  15.639 -1.2925  0.0633 -0.0115
19786TIP3   OH280772   2.485   2.894  14.698 -0.6715 -0.5748  0.0299
19786TIP3    H180773   2.537   2.825  14.657 -0.0742  1.3869 -2.8498
19786TIP3    H280774   2.402   2.893  14.651 -1.4400 -0.5812  1.3292
19787TIP3   OH280775   1.382   5.661  16.876 -0.7472 -0.2276  0.6755
19787TIP3    H180776   1.298   5.688  16.914 -0.7222 -0.0915  0.6350
19787TIP3    H280777   1.441   5.656  16.951 -0.8317 -0.4768  0.7252
19788TIP3   OH280778   5.422   3.789  15.221  0.4533  0.1671  0.2597
19788TIP3    H180779   5.368   3.729  15.272  1.9637 -1.1234  0.3981
19788TIP3    H280780   5.476   3.834  15.285  2.8645 -1.9699 -0.1312
19789TIP3   OH280781   4.908   2.288  12.853 -0.3635 -0.0465 -0.1676
19789TIP3    H180782   4.903   2.258  12.944 -0.1628  2.8026  0.8721
19789TIP3    H280783   4.834   2.245  12.810  0.4190 -2.6493  0.8932
19790TIP3   OH280784   5.751   4.723   2.635 -0.1042 -0.3252  0.1800
19790TIP3    H180785   5.845   4.712   2.622 -0.0972 -1.2040  0.9174
19790TIP3    H280786   5.730   4.803   2.588  1.0805  0.0798  0.3075
19791TIP3   OH280787   4.582   5.521  13.034  0.5141  0.2694 -0.7274
19791TIP3    H180788   4.656   5.482  13.081  0.9303  0.9575 -0.8012
19791TIP3    H280789   4.507   5.508  13.091  0.7626 -0.1098 -0.4862
19792TIP3   OH280790   6.353   3.697  13.180 -0.2183 -0.1319  0.1918
19792TIP3    H180791   6.403   3.773  13.208  0.5461 -0.8526  0.8187
19792TIP3    H280792   6.356   3.637  13.255 -2.2632 -0.0918  0.3812
19793TIP3   OH280793   6.380   3.587  13.631 -0.2306  0.3375 -0.1448
19793TIP3    H180794   6.327   3.666  13.620  0.5345  1.0205  0.8035
19793TIP3    H280795   6.432   3.581  13.550 -1.4949 -0.1660 -0.9421
19794TIP3   OH280796   3.160   5.786   0.319  0.2447  0.0258 -0.2399
19794TIP3    H180797   3.104   5.770   0.243 -0.1440 -0.8644  0.2173
19794TIP3    H280798   3.119   5.737   0.390 -0.5403  2.4642  1.1017
19795TIP3   OH280799   1.693   4.464   2.639 -0.3825  0.0965  0.2722
19795TIP3    H180800   1.665   4.463   2.731 -1.5336 -1.4277 -0.0568
19795TIP3    H280801   1.769   4.523   2.638 -1.4178  1.5497  1.8579
19796TIP3   OH280802   5.616   1.245   1.217 -0.3374 -0.1598  0.3555
19796TIP3    H180803   5.705   1.224   1.190  1.2774  3.1959  2.4966
19796TIP3    H280804   5.612   1.219   1.309 -1.2184  0.6507  0.5619
19797TIP3   OH280805   0.455   1.327   2.996 -0.3409 -0.2831 -0.2920
19797TIP3    H180806   0.440   1.332   3.091  1.3700 -1.3587  0.0702
19797TIP3    H280807   0.392   1.262   2.966  0.3524 -1.3418  0.4497
19798TIP3   OH280808   6.076   6.265   1.437  0.1860  0.3467  0.4045
19798TIP3    H180809   6.143   6.333   1.448 -0.0795  0.9490 -1.3500
19798TIP3    H280810   6.119   6.197   1.385 -0.4875  0.6727 -0.6156
19799TIP3   OH280811   6.613   2.575   5.908 -0.2411  0.1654 -0.0605
19799TIP3    H180812   6.529   2.543   5.876 -0.8413  0.3413  1.2772
19799TIP3    H280813   6.638   2.643   5.846  0.6974 -2.2400 -2.5449
19800TIP3   OH280814   2.957   5.790  14.872 -0.5659  0.2575  0.0640
19800TIP3    H180815   2.921   5.806  14.960 -3.3660 -0.0968 -0.9310
19800TIP3    H280816   3.008   5.709  14.881 -2.1284 -0.6582  1.0564
19801TIP3   OH280817   2.688   4.899   6.100  0.2582 -0.6597  0.2350
19801TIP3    H180818   2.614   4.861   6.147  0.1686 -0.0286  0.6230
19801TIP3    H280819   2.658   4.987   6.075  1.0950 -0.1451  0.9857
19802TIP3   OH280820   1.324   4.256   3.076  0.1897 -0.2140  0.4036
19802TIP3    H180821   1.340   4.280   2.985  0.2961 -1.7888 -0.0295
19802TIP3    H280822   1.250   4.311   3.103  0.6113  0.7710 -0.3972
19803TIP3   OH280823   1.466   5.936   5.208 -0.1276 -0.1436 -0.0299
19803TIP3    H180824   1.552   5.927   5.250  0.2114 -0.5118 -0.7712
19803TIP3    H280825   1.483   5.914   5.116 -0.9027  0.3604 -0.3002
19804TIP3   OH280826   1.249   4.249   2.580  0.2120 -0.0035 -0.2243
19804TIP3    H180827   1.268   4.318   2.643  2.5314  0.3615 -1.1985
19804TIP3    H280828   1.201   4.293   2.510  0.9732  0.4816 -0.4601
19805TIP3   OH280829   0.860   0.921   2.287 -0.4615  0.0972 -0.7333
19805TIP3    H180830   0.923   0.861   2.326 -0.4547  0.4287 -0.2356
19805TIP3    H280831   0.844   0.885   2.199 -2.5498 -2.2121  0.4742
19806TIP3   OH280832   6.341   1.604  11.237 -0.2527 -0.0398 -0.3514
19806TIP3    H180833   6.250   1.589  11.263 -0.7560 -0.3818 -2.1405
19806TIP3    H280834   6.337   1.683  11.182  0.8996  1.2504  1.3368
19807TIP3   OH280835   2.980   6.811  12.073 -0.3585  0.5695 -0.1293
19807TIP3    H180836   2.899   6.777  12.109  0.6614 -1.5071  0.3718
19807TIP3    H280837   2.963   6.820  11.979 -0.7884 -1.1438 -0.2402
19808TIP3   OH280838   4.113   4.201   2.188  0.2421  0.3444  0.2181
19808TIP3    H180839   4.060   4.217   2.266 -0.0259 -0.4165  0.2001
19808TIP3    H280840   4.049   4.182   2.120  0.5133  0.1859  0.0063
19809TIP3   OH280841   1.810   1.363  13.319  0.0388  0.0007  0.1599
19809TIP3    H180842   1.760   1.418  13.260 -1.3282 -0.4170  0.8868
19809TIP3    H280843   1.899   1.399  13.316 -0.4785  1.2838 -0.5203
19810TIP3   OH280844   0.106   4.443  11.732  0.0381 -0.3843 -1.0980
19810TIP3    H180845   0.085   4.512  11.668  1.4372  0.5951 -0.5536
19810TIP3    H280846   0.030   4.385  11.731 -1.4637  1.4834 -1.1644
19811TIP3   OH280847   0.120   6.475   5.873 -0.1973  0.3919 -0.3962
19811TIP3    H180848   0.037   6.503   5.911  0.5086  1.8039  0.1560
19811TIP3    H280849   0.183   6.480   5.945  0.5060 -0.0812 -0.9585
19812TIP3   OH280850   5.261   6.715   4.466  0.2875 -0.2611 -0.3359
19812TIP3    H180851   5.179   6.669   4.450  0.2094  0.3476 -1.7674
19812TIP3    H280852   5.321   6.684   4.398  0.4806  1.1181 -0.8235
19813TIP3   OH280853   0.280   0.352   3.484 -0.4438 -0.4131 -0.2086
19813TIP3    H180854   0.210   0.327   3.544 -0.2568 -0.0613  0.1633
19813TIP3    H280855   0.282   0.283   3.418  0.7379 -1.9388  1.3367
19814TIP3   OH280856   3.901   3.823   7.084  0.2832  0.0263  0.0962
19814TIP3    H180857   3.812   3.811   7.052  0.5566 -0.3508 -0.5482
19814TIP3    H280858   3.913   3.918   7.087 -0.1133  0.0781  0.1160
19815TIP3   OH280859   0.378   4.278   5.887  0.0396 -0.1060  0.1155
19815TIP3    H180860   0.435   4.209   5.920  0.4785 -0.3933 -1.1900
19815TIP3    H280861   0.289   4.250   5.912  0.2261 -1.0661 -0.2622
19816TIP3   OH280862   3.356   4.330  16.225 -0.4097 -0.2253  0.1373
19816TIP3    H180863   3.356   4.311  16.318  0.4337  0.9567  0.4019
19816TIP3    H280864   3.329   4.248  16.183 -0.2165 -0.9358  1.3740
19817TIP3   OH280865   3.775   3.340  10.647  0.1538 -0.5128  0.5676
19817TIP3    H180866   3.857   3.359  10.602 -0.8480  0.5560 -0.9318
19817TIP3    H280867   3.775   3.399  10.723  1.2669 -1.3649  1.2582
19818TIP3   OH280868   0.612   4.727  11.481  0.4548 -0.6060 -0.1242
19818TIP3    H180869   0.692   4.771  11.510  1.0005 -0.7496 -1.3416
19818TIP3    H280870   0.643   4.660  11.419 -0.2622 -3.2696  2.2046
19819TIP3   OH280871   3.064   5.460   5.817  0.3815  0.0690 -0.6881
19819TIP3    H180872   3.120   5.410   5.877  1.5065  0.9728 -0.9413
19819TIP3    H280873   2.989   5.485   5.870  1.1551  0.4900  0.2435
19820TIP3   OH280874   5.393   2.219   1.590 -0.4705  0.1478  0.4278
19820TIP3    H180875   5.319   2.165   1.563 -0.0833  0.5622 -1.6065
19820TIP3    H280876   5.358   2.308   1.594 -0.2844  0.2262  0.3306
19821TIP3   OH280877   3.547   1.943   5.979  0.4284 -0.0375  0.3266
19821TIP3    H180878   3.472   1.923   6.035  0.7290 -1.3648  0.2855
19821TIP3    H280879   3.603   1.866   5.985  1.4330  0.6241 -0.2374
19822TIP3   OH280880   3.826   6.146   1.624  0.0950  0.5490  0.2948
19822TIP3    H180881   3.829   6.228   1.576  1.1727  0.3004 -0.0965
19822TIP3    H280882   3.737   6.114   1.611  0.1767  0.8006 -1.0274
19823TIP3   OH280883   5.698   5.000  13.490 -0.4130  0.3405 -0.0121
19823TIP3    H180884   5.653   4.936  13.436 -1.5571 -0.1750  1.4716
19823TIP3    H280885   5.718   5.072  13.431 -2.3031  0.1307 -0.9752
19824TIP3   OH280886   3.606   2.020  11.705 -0.2765 -0.1654  0.7766
19824TIP3    H180887   3.696   2.039  11.678  0.0699 -0.4701  1.6800
19824TIP3    H280888   3.598   2.061  11.791 -1.4657  1.0693  0.1032
19825TIP3   OH280889   1.571   4.674   2.487 -0.1263  0.7164 -0.2910
19825TIP3    H180890   1.583   4.583   2.514  1.6179  0.6033 -1.2951
19825TIP3    H280891   1.496   4.704   2.538 -2.2371 -1.9281 -1.5550
19826TIP3   OH280892   5.953   2.694  13.754  0.8515 -0.1258 -0.2152
19826TIP3    H180893   5.992   2.613  13.723  1.4272  0.2298 -0.4462
19826TIP3    H280894   5.983   2.761  13.692 -0.8449  0.0295 -0.9278
19827TIP3   OH280895   6.518   5.385  13.258 -0.5998 -0.4902 -0.4340
19827TIP3    H180896   6.525   5.382  13.353  1.2508 -0.3014 -0.5247
19827TIP3    H280897   6.549   5.300  13.229  1.1766  0.2890 -0.9337
19828TIP3   OH280898   0.093   5.797  15.901  0.4451  0.3368  0.6298
19828TIP3    H180899   0.057   5.726  15.847  0.4567  0.4138  0.5206
19828TIP3    H280900   0.165   5.756  15.948 -0.7066 -0.2137  1.9876
19829TIP3   OH280901   2.394   5.160   2.468  0.1095 -0.3884  0.0601
19829TIP3    H180902   2.407   5.100   2.395  1.6330 -1.4247  1.1241
19829TIP3    H280903   2.391   5.247   2.427  0.8342 -0.9488 -1.2463
19830TIP3   OH280904   3.620   2.654  16.577  0.1036 -0.3739 -0.1268
19830TIP3    H180905   3.595   2.733  16.529 -1.2327  0.1118  1.2352
19830TIP3    H280906   3.540   2.602  16.579  0.1804 -0.4852  1.2886
19831TIP3   OH280907   5.076   1.019   3.069  0.1024  0.1554 -0.3050
19831TIP3    H180908   5.129   0.949   3.108  0.4980  0.5972 -0.0355
19831TIP3    H280909   5.139   1.087   3.046 -0.1906  0.1284 -1.2384
19832TIP3   OH280910   0.197   3.521  11.161 -0.1133  0.0050  0.0467
19832TIP3    H180911   0.149   3.512  11.243  1.6097 -1.6927  0.9335
19832TIP3    H280912   0.259   3.591  11.177 -0.2185  0.1215 -0.0493
19833TIP3   OH280913   3.691   3.348  13.046 -0.3741 -0.8617 -0.5980
19833TIP3    H180914   3.721   3.428  13.003  0.6881 -0.1852  1.2733
19833TIP3    H280915   3.618   3.377  13.102 -0.9398 -1.4911 -0.9935
19834TIP3   OH280916   0.821   6.702   5.690  0.9474  0.3530  0.2876
19834TIP3    H180917   0.892   6.756   5.724  0.7227  0.5346  0.4749
19834TIP3    H280918   0.755   6.764   5.660  0.4485  0.1916  1.0192
19835TIP3   OH280919   1.938   4.677   2.533  0.7465 -0.0123  0.1957
19835TIP3    H180920   1.982   4.622   2.469  0.3228 -1.4547  1.1000
19835TIP3    H280921   1.959   4.637   2.618 -0.7990  0.3247  0.7689
19836TIP3   OH280922   4.252   0.011   0.318  0.5539  0.1583 -0.2394
19836TIP3    H180923   4.253   0.017   0.222 -1.9720 -0.8939 -0.4124
19836TIP3    H280924   4.164  -0.020   0.339  1.2385 -0.2353  2.4124
19837TIP3   OH280925   0.162   1.559  16.937 -0.4611  0.2961  0.1139
19837TIP3    H180926   0.113   1.570  17.018  0.2468  3.3138  0.2763
19837TIP3    H280927   0.246   1.603  16.954  0.4260 -0.6130 -1.6558
19838TIP3   OH280928   6.730   4.724   5.104 -0.0710 -0.1085  0.4758
19838TIP3    H180929   6.815   4.765   5.124  0.1748  0.3836 -1.4019
19838TIP3    H280930   6.665   4.785   5.138  0.3076 -0.0677  1.1535
19839TIP3   OH280931   4.335   5.222   3.008 -0.0613  0.3047 -0.3209
19839TIP3    H180932   4.371   5.135   3.021 -0.0531  0.2956 -0.4093
19839TIP3    H280933   4.259   5.208   2.952 -0.3755  0.2848  0.0965
19840TIP3   OH280934   3.126   0.929  16.458  0.0463 -0.3847 -0.0814
19840TIP3    H180935   3.082   0.846  16.442 -2.9977  1.2466 -0.9101
19840TIP3    H280936   3.082   0.964  16.536  0.1946  1.1256 -0.6549
19841TIP3   OH280937   6.741   5.419  13.446 -0.2397 -0.1104 -0.0581
19841TIP3    H180938   6.773   5.350  13.504 -0.5235  0.9000  1.3364
19841TIP3    H280939   6.688   5.475  13.502 -1.0542  0.5499 -1.4398
19842TIP3   OH280940   3.502   4.879  12.205  0.4739  0.2214 -0.3651
19842TIP3    H180941   3.477   4.795  12.243 -1.0477  1.1694  0.8687
19842TIP3    H280942   3.479   4.871  12.112  1.9123 -1.2604 -0.6409
19843TIP3   OH280943   6.152   5.186  13.472 -0.2452  0.2953  0.0127
19843TIP3    H180944   6.241   5.220  13.484 -0.3418  0.9001 -0.9134
19843TIP3    H280945   6.160   5.092  13.490  0.2019  0.6329  1.7330
19844TIP3   OH280946   1.958   2.496   0.235 -0.2090  0.0267  0.0852
19844TIP3    H180947   1.979   2.403   0.246  1.0198  0.3149  0.3005
19844TIP3    H280948   1.903   2.499   0.157  1.5733 -0.6712 -1.2859
19845TIP3   OH280949   3.058   2.587   1.417 -0.3044 -0.1572  0.6733
19845TIP3    H180950   3.042   2.579   1.511 -3.7953  0.0759  0.2130
19845TIP3    H280951   3.076   2.497   1.389 -0.6634 -0.4545  1.3581
19846TIP3   OH280952   0.111   1.952   3.691 -0.1418 -0.0929  0.2423
19846TIP3    H180953   0.143   2.004   3.617  0.2684 -1.3952 -0.5281
19846TIP3    H280954   0.016   1.963   3.688 -0.4657 -2.3100 -2.2933
19847TIP3   OH280955   5.468   2.204  13.954 -0.0830  0.1417 -0.4484
19847TIP3    H180956   5.433   2.138  13.895  1.7194 -1.9832  0.7207
19847TIP3    H280957   5.390   2.245  13.992 -1.2616 -0.7632 -1.7630
19848TIP3   OH280958   0.877   3.752   4.856 -0.9985  0.0851  0.3090
19848TIP3    H180959   0.829   3.797   4.787  0.7521 -1.1671 -1.9001
19848TIP3    H280960   0.960   3.800   4.863 -1.5057  0.7693  2.3069
19849TIP3   OH280961   3.465   0.058  15.396 -0.0989 -0.4696 -0.1521
19849TIP3    H180962   3.557   0.075  15.379 -0.1654  1.4316  1.0458
19849TIP3    H280963   3.460   0.043  15.491 -1.1163  0.5413 -0.0178
19850TIP3   OH280964   5.952   0.587  13.861 -0.1285 -0.1553 -0.3232
19850TIP3    H180965   5.930   0.557  13.773  0.2705  0.9770 -0.8302
19850TIP3    H280966   6.048   0.594  13.860  0.0497 -1.9959  0.8350
19851TIP3   OH280967   6.624   3.360  14.111  0.2821  0.1156 -0.2343
19851TIP3    H180968   6.705   3.385  14.065  0.3361 -0.1412 -0.2867
19851TIP3    H280969   6.599   3.277  14.069  1.5074 -1.2811  1.6170
19852TIP3   OH280970   5.737   4.780   1.855 -0.3063 -0.2271 -0.3252
19852TIP3    H180971   5.754   4.694   1.893 -1.9857  0.1529  1.4464
19852TIP3    H280972   5.720   4.762   1.762 -0.3226 -1.7675 -0.0536
19853TIP3   OH280973   0.249   4.059  15.810 -0.0651  0.2869 -0.1019
19853TIP3    H180974   0.254   4.138  15.756  0.6292 -0.1993 -0.7804
19853TIP3    H280975   0.232   3.989  15.747 -1.4953 -0.0167  0.5816
19854TIP3   OH280976   2.949   1.856  14.178  0.6394 -0.5060  0.2340
19854TIP3    H180977   2.862   1.840  14.141  1.1688 -2.1632 -0.3450
19854TIP3    H280978   3.002   1.782  14.150  2.4812  0.8533 -0.0873
19855TIP3   OH280979   4.839   1.627   4.637 -0.0156  0.0910  0.4021
19855TIP3    H180980   4.827   1.576   4.557 -0.5634  0.9748 -0.0956
19855TIP3    H280981   4.784   1.583   4.702  1.6453 -1.5742  0.7662
19856TIP3   OH280982   2.024   2.586   1.415 -0.5635 -0.2377 -0.1237
19856TIP3    H180983   2.096   2.637   1.378 -0.0417 -1.0102 -0.2026
19856TIP3    H280984   2.062   2.500   1.432 -1.1576 -0.3105  0.9369
19857TIP3   OH280985   4.496   5.430  11.234 -0.2726 -0.3118 -0.7804
19857TIP3    H180986   4.409   5.409  11.268  0.7056 -0.9239  1.5471
19857TIP3    H280987   4.481   5.502  11.172 -2.1009  2.0913  2.1862
19858TIP3   OH280988   4.963   4.479  12.837 -0.4338  1.0541 -0.1871
19858TIP3    H180989   5.015   4.401  12.854  0.6030  1.2489 -2.1532
19858TIP3    H280990   4.894   4.478  12.904  0.8746 -0.3210  1.1984
19859TIP3   OH280991   5.946   5.631   3.834 -0.3813 -0.2211 -0.4849
19859TIP3    H180992   6.030   5.585   3.838  0.5235  1.3703 -0.5470
19859TIP3    H280993   5.961   5.703   3.772 -1.4189  0.7959  0.4046
19860TIP3   OH280994   2.468   4.891  12.119 -0.1195  0.3759 -0.0281
19860TIP3    H180995   2.384   4.935  12.131  0.2179  0.8885  0.5031
19860TIP3    H280996   2.533   4.962  12.125  0.2628  0.2558 -2.1039
19861TIP3   OH280997   1.423   5.138   0.282  0.4317  1.0723  0.0427
19861TIP3    H180998   1.396   5.203   0.348 -0.7781  1.1905 -0.5345
19861TIP3    H280999   1.346   5.082   0.271  0.7845  0.7515 -0.9045
19862TIP3   OH281000   2.902   4.245   4.966  0.1467  0.0634  0.4532
19862TIP3    H181001   2.957   4.218   5.040  0.5142 -1.0319 -0.1937
19862TIP3    H281002   2.870   4.163   4.929 -1.7279  0.6634  0.6323
19863TIP3   OH281003   5.322   5.370  11.149 -0.1167 -0.1737 -0.2567
19863TIP3    H181004   5.304   5.277  11.137  0.9858 -0.5722  0.9587
19863TIP3    H281005   5.376   5.375  11.228 -3.2952  1.8269  2.0323
19864TIP3   OH281006   0.539   3.365  12.798 -0.5072 -0.1067 -0.0361
19864TIP3    H181007   0.583   3.442  12.834  2.1759 -1.5527 -0.0364
19864TIP3    H281008   0.568   3.292  12.852 -1.5004 -1.4103 -1.1850
19865TIP3   OH281009   0.731   5.500  12.079 -0.1105 -0.4509  0.8176
19865TIP3    H181010   0.681   5.492  12.161 -1.1654 -3.5277 -0.0188
19865TIP3    H281011   0.789   5.424  12.079  0.9475  0.3151 -0.6459
19866TIP3   OH281012   0.952   6.367   3.126 -0.1551 -0.0086  0.1826
19866TIP3    H181013   1.027   6.412   3.088  0.3202  0.0444  1.1664
19866TIP3    H281014   0.955   6.389   3.219 -0.4565 -1.3040  0.5144
19867TIP3   OH281015   2.457   0.109   3.119 -0.7928 -0.2112  0.7245
19867TIP3    H181016   2.444   0.017   3.144  1.0677 -0.3499  1.3827
19867TIP3    H281017   2.402   0.159   3.179 -0.9290 -0.8519  1.1439
19868TIP3   OH281018   2.047   0.420   6.640 -0.4214  0.6818 -0.0609
19868TIP3    H181019   2.013   0.445   6.554  1.7357 -0.7964 -1.4583
19868TIP3    H281020   2.142   0.418   6.628 -0.1583 -1.3132  1.8452
19869TIP3   OH281021   1.188   0.737  15.169 -0.0542 -0.0515 -0.8150
19869TIP3    H181022   1.206   0.822  15.130  0.3350  0.8808  1.2697
19869TIP3    H281023   1.096   0.720  15.149 -1.1256  2.4416  1.4081
19870TIP3   OH281024   1.108   4.043   2.740  0.6243  0.4977  0.1601
19870TIP3    H181025   1.119   4.122   2.687  0.0936  0.5256  0.0856
19870TIP3    H281026   1.190   4.035   2.788  1.6702 -0.2576 -1.6176
19871TIP3   OH281027   0.873   4.754  16.236 -0.4601 -0.9167  0.2702
19871TIP3    H181028   0.830   4.830  16.276 -0.1800 -1.1225  0.9614
19871TIP3    H281029   0.832   4.747  16.149 -1.9038 -1.1662  0.9449
19872TIP3   OH281030   6.653   5.286  12.707  0.2233 -0.2122 -0.3707
19872TIP3    H181031   6.734   5.275  12.758 -1.0329 -0.4842  1.6989
19872TIP3    H281032   6.676   5.350  12.640  1.7960  0.8465  1.0731
19873TIP3   OH281033   3.381   3.048  11.715 -0.1238 -0.7051 -0.1598
19873TIP3    H181034   3.363   2.972  11.659 -0.0044 -0.4601 -0.5333
19873TIP3    H281035   3.466   3.029  11.754 -0.6085 -1.2913  0.6472
19874TIP3   OH281036   0.805   0.412  13.144  0.1347 -0.5956 -0.2891
19874TIP3    H181037   0.772   0.501  13.131  0.7258 -0.5150 -1.4173
19874TIP3    H281038   0.727   0.357  13.148 -0.2518  0.0164  0.8866
19875TIP3   OH281039   0.316   1.194   2.402  0.6172  0.4480  0.6570
19875TIP3    H181040   0.374   1.175   2.475 -0.1582 -1.8719  0.7376
19875TIP3    H281041   0.228   1.176   2.436 -0.0116  2.0729 -0.0265
19876TIP3   OH281042   4.892   5.108  11.135 -0.0778  0.1980  0.1646
19876TIP3    H181043   4.800   5.124  11.113 -0.6261 -2.5369  0.1196
19876TIP3    H281044   4.937   5.109  11.051  0.2112  2.6926  0.2831
19877TIP3   OH281045   6.755   1.913  11.699  0.4120  0.0831 -0.4053
19877TIP3    H181046   6.782   1.837  11.647  1.9775  0.4803 -0.2191
19877TIP3    H281047   6.724   1.876  11.782 -0.6694 -0.4489 -1.0200
19878TIP3   OH281048   6.638   5.496  10.300 -0.1953  0.1646  0.2634
19878TIP3    H181049   6.733   5.507  10.289 -0.2854  0.7152  0.0314
19878TIP3    H281050   6.628   5.479  10.394  0.1484 -0.0823  0.2602
19879TIP3   OH281051   6.588   3.808   4.271  0.1133 -0.4503 -0.2554
19879TIP3    H181052   6.631   3.733   4.313 -1.9173 -1.3323  0.3529
19879TIP3    H281053   6.571   3.779   4.181  1.0831  0.0400 -0.6107
19880TIP3   OH281054   2.688   4.080  12.395  0.3785 -0.0603  0.2021
19880TIP3    H181055   2.650   4.168  12.393 -0.5583 -0.4430  0.4259
19880TIP3    H281056   2.614   4.023  12.374  0.6428 -0.8957  1.4801
19881TIP3   OH281057   1.678   3.461   3.236 -0.3162  0.4030 -0.0215
19881TIP3    H181058   1.642   3.538   3.192 -2.2953 -0.5194 -0.1281
19881TIP3    H281059   1.621   3.448   3.312  0.0418 -0.8623  0.0598
19882TIP3   OH281060   0.104   4.100   0.358 -0.0348  0.0521  0.5843
19882TIP3    H181061   0.197   4.115   0.340 -0.9702  2.2692 -3.7848
19882TIP3    H281062   0.090   4.008   0.333  0.6086  0.4025 -1.2336
19883TIP3   OH281063   0.590   4.616  13.730 -0.2508 -0.2711  0.4879
19883TIP3    H181064   0.639   4.542  13.768  1.0795  0.5104  0.3835
19883TIP3    H281065   0.654   4.661  13.674 -1.1353  0.7356  0.2470
19884TIP3   OH281066   4.381   2.722   3.334 -0.7510 -0.1222  0.3461
19884TIP3    H181067   4.314   2.711   3.267 -0.3043  0.0347 -0.1272
19884TIP3    H281068   4.464   2.713   3.287 -0.4092  1.3957  0.6204
19885TIP3   OH281069   4.085   5.252   5.179 -0.5324 -0.2416  0.6118
19885TIP3    H181070   3.994   5.244   5.208 -1.1280  0.5098 -0.9356
19885TIP3    H281071   4.119   5.328   5.227 -0.8819 -0.2143  0.8200
19886TIP3   OH281072   2.371   5.688  14.533  0.3362  0.3467 -0.0032
19886TIP3    H181073   2.365   5.668  14.440 -0.1613 -3.2619  0.6649
19886TIP3    H281074   2.464   5.705  14.548  0.4063  1.0608 -1.1364
19887TIP3   OH281075   0.233   2.265   4.095  0.2586 -0.1780  0.0765
19887TIP3    H181076   0.168   2.221   4.041 -0.3192  0.9121 -0.1250
19887TIP3    H281077   0.202   2.251   4.185  0.3750 -0.6437  0.0468
19888TIP3   OH281078   0.005   3.199  12.249  0.2744 -0.0174 -0.4318
19888TIP3    H181079  -0.012   3.201  12.343 -2.8879 -0.7877 -0.9007
19888TIP3    H281080   0.037   3.110  12.232  0.4109 -0.0175 -0.1823
19889TIP3   OH281081   2.367   6.804   5.883  0.6679  0.3287 -0.5235
19889TIP3    H181082   2.304   6.874   5.871  1.6297  1.5811  1.3252
19889TIP3    H281083   2.333   6.752   5.955  0.5070 -0.5122 -1.1823
19890TIP3   OH281084   1.863   4.850  12.116  0.3962  0.6066 -0.2039
19890TIP3    H181085   1.908   4.773  12.149  0.5293  0.8825  0.2651
19890TIP3    H281086   1.840   4.900  12.194  0.0319  0.8878 -0.4863
19891TIP3   OH281087   3.333   0.296   5.609 -0.7432  0.0185  0.0102
19891TIP3    H181088   3.274   0.329   5.677  1.5000  2.4823  0.9206
19891TIP3    H281089   3.326   0.360   5.538  0.8158  0.3660  0.1445
19892TIP3   OH281090   6.754   2.317   1.354  0.0477 -0.1031  0.1037
19892TIP3    H181091   6.736   2.235   1.399 -0.8221  0.9909  1.8904
19892TIP3    H281092   6.766   2.293   1.263 -0.5488 -2.1597  0.5209
19893TIP3   OH281093   6.151   3.903   5.195 -0.0285 -0.3825  0.2985
19893TIP3    H181094   6.114   3.909   5.283  1.1368  1.7140  0.7050
19893TIP3    H281095   6.074   3.898   5.138 -0.8240 -0.6523  1.3541
19894TIP3   OH281096   1.728   5.928  15.402 -0.0893  0.0275 -0.1597
19894TIP3    H181097   1.751   6.012  15.363 -0.3279  0.5222  0.7501
19894TIP3    H281098   1.682   5.881  15.333  0.3555  0.5061 -0.7871
19895TIP3   OH281099   3.699   5.858  11.612 -0.3121  0.1224  0.6812
19895TIP3    H181100   3.741   5.804  11.545 -1.6791 -1.6064  1.1291
19895TIP3    H281101   3.768   5.917  11.643  1.2869 -1.4152  0.1862
19896TIP3   OH281102   3.586   1.661  13.716  0.2012 -0.1997 -0.7495
19896TIP3    H181103   3.646   1.692  13.783 -1.3730 -0.8284  1.0437
19896TIP3    H281104   3.612   1.571  13.699  0.7216  0.0210 -1.1494
19897TIP3   OH281105   4.690   5.942   2.583  0.2051  0.6498 -0.0233
19897TIP3    H181106   4.713   5.966   2.673 -0.1606  0.5055  0.1119
19897TIP3    H281107   4.773   5.919   2.542  0.5834  2.1889 -0.1771
19898TIP3   OH281108   2.099   1.395  15.206  0.0585  0.1372 -0.0671
19898TIP3    H181109   2.166   1.462  15.219 -0.8154  0.6385  2.2360
19898TIP3    H281110   2.016   1.444  15.202 -0.3712 -0.6241 -1.0192
19899TIP3   OH281111   6.676   4.515   3.347  0.4777  0.3536 -0.1142
19899TIP3    H181112   6.644   4.448   3.287 -1.1968  1.7750 -0.8804
19899TIP3    H281113   6.598   4.544   3.395  1.0279  2.1447 -0.2171
19900TIP3   OH281114   2.891   6.211  13.066 -0.0261 -0.2131  0.5339
19900TIP3    H181115   2.829   6.217  12.993 -1.3713  1.2684  1.7206
19900TIP3    H281116   2.977   6.220  13.025 -0.5828 -1.7555 -1.1076
19901TIP3   OH281117   3.449   3.683   0.005 -0.0285 -0.5094 -0.1084
19901TIP3    H181118   3.413   3.771  -0.004  0.3524 -0.4323 -0.9287
19901TIP3    H281119   3.378   3.625  -0.022 -1.1565 -0.6313  2.7131
19902TIP3   OH281120   4.681   0.779   3.188 -0.2345 -0.6103  0.2189
19902TIP3    H181121   4.622   0.709   3.216 -1.6735  1.0747  1.6381
19902TIP3    H281122   4.624   0.854   3.173  1.3260  0.4605 -0.6789
19903TIP3   OH281123   3.336   0.377  14.210 -0.0980 -0.0423 -0.5998
19903TIP3    H181124   3.328   0.287  14.241  0.2851  0.3099  0.5633
19903TIP3    H281125   3.261   0.422  14.248  1.7608  1.0055  2.1428
19904TIP3   OH281126   1.259   3.348  13.565  0.1825  0.3220 -0.0899
19904TIP3    H181127   1.297   3.335  13.652 -1.5895  3.2386  1.2864
19904TIP3    H281128   1.198   3.275  13.554 -0.3732  0.4995  1.6289
19905TIP3   OH281129   1.886   4.964  10.570 -0.0200  0.8087  0.1830
19905TIP3    H181130   1.791   4.965  10.560 -0.0381  0.9182  0.3726
19905TIP3    H281131   1.918   5.032  10.510  0.1578 -1.2163 -2.2212
19906TIP3   OH281132   0.449   6.598  11.856 -0.0364 -0.2392 -0.1967
19906TIP3    H181133   0.453   6.520  11.801 -3.6046 -0.2622 -0.6758
19906TIP3    H281134   0.432   6.565  11.944 -0.5097 -0.0718 -0.2191
19907TIP3   OH281135   2.624   3.944   3.558  0.3383 -0.0231  0.0301
19907TIP3    H181136   2.675   3.983   3.629  3.4520 -0.3551 -1.8139
19907TIP3    H281137   2.637   4.003   3.484 -1.3274 -0.5895 -0.7571
19908TIP3   OH281138   1.454   4.346  15.780  0.7187 -0.6435 -0.5963
19908TIP3    H181139   1.381   4.305  15.732  0.1266 -0.6595  0.3055
19908TIP3    H281140   1.479   4.421  15.726 -0.9737  0.2564 -0.1856
19909TIP3   OH281141   2.936   4.046  11.218  0.3918  0.6707 -0.9035
19909TIP3    H181142   2.896   4.121  11.262 -0.2791 -0.9322  1.3930
19909TIP3    H281143   2.863   3.998  11.180  0.3136 -0.8562  1.0355
19910TIP3   OH281144   4.444   2.692   0.408  0.3109  0.0396  0.2015
19910TIP3    H181145   4.411   2.636   0.478  1.8727 -2.4219 -0.8893
19910TIP3    H281146   4.459   2.777   0.450 -0.2899 -0.8887  2.4370
19911TIP3   OH281147   4.995   5.435  13.506 -0.5268 -0.2718  0.0622
19911TIP3    H181148   5.015   5.342  13.513 -1.1881 -0.5462 -1.4109
19911TIP3    H281149   5.059   5.469  13.443  0.4005  0.5199  1.3786
19912TIP3   OH281150   3.284   2.846  13.171 -0.3160 -0.2557 -0.0431
19912TIP3    H181151   3.237   2.847  13.087  2.1005 -0.7803 -1.5022
19912TIP3    H281152   3.335   2.927  13.170 -0.3436 -0.2210  0.9932
19913TIP3   OH281153   2.300   3.893   1.669  0.1514  0.2051  0.2315
19913TIP3    H181154   2.337   3.910   1.756  0.0864  1.3384  0.0641
19913TIP3    H281155   2.350   3.951   1.611  0.5113 -0.8837 -0.5667
19914TIP3   OH281156   2.531   0.483   5.802 -0.1262  0.6858 -1.0311
19914TIP3    H181157   2.456   0.530   5.837 -1.2485 -1.6379 -0.1060
19914TIP3    H281158   2.538   0.404   5.856  4.2488  1.6617  0.2748
19915TIP3   OH281159   6.763   1.529   1.863  0.0944  0.2917 -0.1160
19915TIP3    H181160   6.748   1.509   1.956  0.3028  1.7820  0.2620
19915TIP3    H281161   6.757   1.444   1.819  0.9858 -0.6067  1.3940
19916TIP3   OH281162   5.396   0.392   0.103 -0.4040  1.5306 -0.8262
19916TIP3    H181163   5.466   0.335   0.134 -0.1578  1.2151 -1.9353
19916TIP3    H281164   5.316   0.342   0.115 -0.2300  1.1069 -1.4049
19917TIP3   OH281165   1.695   4.269   0.036 -0.4637  0.4077 -0.3126
19917TIP3    H181166   1.775   4.303  -0.004  1.3284 -1.7168  1.1741
19917TIP3    H281167   1.674   4.332   0.105 -0.2110  1.0996 -0.8638
19918TIP3   OH281168   2.152   1.884   0.365 -0.1763  0.1123  0.5733
19918TIP3    H181169   2.072   1.845   0.400 -0.1808 -0.1505  0.2816
19918TIP3    H281170   2.187   1.937   0.436  0.4797 -1.3774  1.3962
19919TIP3   OH281171   5.885   3.716   1.794  0.5747  0.2685  0.1376
19919TIP3    H181172   5.931   3.727   1.711 -0.0570  1.4731 -0.0745
19919TIP3    H281173   5.813   3.779   1.790  0.3158  0.0841  1.4501
19920TIP3   OH281174   6.142   2.556   4.630 -0.3564  0.3365 -0.0205
19920TIP3    H181175   6.138   2.532   4.723 -1.3653  1.2548  0.1908
19920TIP3    H281176   6.231   2.587   4.617  0.2174 -1.0994  0.2961
19921TIP3   OH281177   5.761   2.970   4.426 -0.2770 -0.4262 -0.3804
19921TIP3    H181178   5.732   3.048   4.379 -0.6596 -0.5461 -0.3452
19921TIP3    H281179   5.819   3.003   4.494 -1.1183 -0.0802  0.1898
19922TIP3   OH281180   1.848   2.115  11.736 -0.0121  0.1574  0.0348
19922TIP3    H181181   1.910   2.170  11.689  0.7971 -0.3973  0.4414
19922TIP3    H281182   1.842   2.034  11.685  1.8662 -0.9785  1.5113
19923TIP3   OH281183   5.049   3.326   2.044 -0.5121  0.2858  0.1028
19923TIP3    H181184   4.956   3.305   2.058  0.0504 -0.9462  2.5193
19923TIP3    H281185   5.096   3.257   2.090  1.6083  1.6629  0.1200
19924TIP3   OH281186   4.720   5.184  16.981  0.2163  0.0561  0.2734
19924TIP3    H181187   4.626   5.185  16.995  0.5800 -0.9890  3.5391
19924TIP3    H281188   4.740   5.270  16.944 -1.9513  0.3292 -0.4052
19925TIP3   OH281189   3.282   0.863   1.726  0.3106  0.6444 -0.1239
19925TIP3    H181190   3.372   0.887   1.702  0.2535 -0.4576 -1.5705
19925TIP3    H281191   3.266   0.780   1.681 -1.1403  0.3648  0.8304
19926TIP3   OH281192   4.740   5.116   5.286  1.0128 -0.6950  0.2780
19926TIP3    H181193   4.681   5.170   5.339 -0.4775 -1.7715 -0.2321
19926TIP3    H281194   4.823   5.117   5.334  0.2017 -0.2202  1.7160
19927TIP3   OH281195   2.222   5.747   5.545 -0.0069 -0.1594 -0.6900
19927TIP3    H181196   2.284   5.814   5.574 -0.0213  0.3693 -1.8140
19927TIP3    H281197   2.161   5.793   5.488 -1.2883 -0.7322  0.1713
19928TIP3   OH281198   1.469   5.861   0.852 -0.2080 -0.0737  0.4494
19928TIP3    H181199   1.413   5.831   0.923 -0.1561 -1.3062 -0.0058
19928TIP3    H281200   1.412   5.858   0.774 -0.2317  1.1401  0.4025
19929TIP3   OH281201   5.033   3.372  15.311 -0.0088 -0.5306  0.1586
19929TIP3    H181202   5.014   3.426  15.387 -0.2012  0.8313 -0.8086
19929TIP3    H281203   4.953   3.321  15.297 -0.5861  0.4089 -0.0673
19930TIP3   OH281204   0.175   0.035   2.890 -0.2330  0.3764  0.1123
19930TIP3    H181205   0.220   0.082   2.821  0.0994  0.9100  0.6901
19930TIP3    H281206   0.172   0.096   2.964 -1.2470  0.0919  0.3286
19931TIP3   OH281207   3.911   4.159   1.950 -0.0564  0.2976 -0.2747
19931TIP3    H181208   3.856   4.213   2.008  0.5444 -0.2400  0.8350
19931TIP3    H281209   3.894   4.193   1.862  0.2981  2.3173  0.3680
19932TIP3   OH281210   0.472   4.372  10.795  0.6111  0.0385  0.0969
19932TIP3    H181211   0.430   4.455  10.814 -2.0065 -1.4282  1.3069
19932TIP3    H281212   0.457   4.357  10.702 -0.4335  0.1476  0.2451
19933TIP3   OH281213   3.542   2.843   3.719 -0.2433 -0.2211 -0.3444
19933TIP3    H181214   3.466   2.785   3.714 -0.3750 -0.4237  2.4284
19933TIP3    H281215   3.606   2.804   3.660 -0.2297 -3.4400  1.5580
19934TIP3   OH281216   4.531   5.369   1.366  0.1786  0.1378  0.0797
19934TIP3    H181217   4.478   5.311   1.311 -0.3805  0.3401  0.3951
19934TIP3    H281218   4.509   5.457   1.335  0.4990  0.2164  0.0697
19935TIP3   OH281219   6.077   6.370   2.896  0.5884  0.7837  0.0122
19935TIP3    H181220   6.082   6.295   2.955  0.7535  0.7678 -0.0192
19935TIP3    H281221   6.135   6.435   2.936  2.2833  0.0526 -1.1412
19936TIP3   OH281222   6.091   5.885  14.363  0.6556 -0.5255 -0.0830
19936TIP3    H181223   6.161   5.948  14.379  1.0296 -1.1652  0.9025
19936TIP3    H281224   6.117   5.839  14.283  0.0827  0.9279 -1.1622
19937TIP3   OH281225   6.067   5.908  15.107  0.1789  0.0445  0.3908
19937TIP3    H181226   6.118   5.835  15.071 -0.9550 -1.8485  2.3537
19937TIP3    H281227   6.029   5.951  15.031  2.4001 -0.2289 -0.9384
19938TIP3   OH281228   1.731   4.815   2.029  0.2299  0.0455  0.5771
19938TIP3    H181229   1.772   4.840   2.112  0.0505  0.0662  0.6590
19938TIP3    H281230   1.640   4.798   2.051  0.8848 -3.6180  1.1745
19939TIP3   OH281231   0.980   5.692  15.053  0.4072  0.5296  0.0294
19939TIP3    H181232   0.902   5.741  15.080  1.1281  2.3088 -0.9215
19939TIP3    H281233   0.946   5.612  15.014 -0.9765  1.3137 -0.4425
19940TIP3   OH281234   2.751   4.024   5.148  0.1518  0.2301  0.0022
19940TIP3    H181235   2.780   4.002   5.059  0.1737 -0.2175  0.1224
19940TIP3    H281236   2.734   3.940   5.190  1.1906  0.3828  0.7806
19941TIP3   OH281237   4.020   5.966   2.166 -0.1964 -1.1468  0.9999
19941TIP3    H181238   3.952   6.026   2.134 -0.0833 -1.2172  0.6180
19941TIP3    H281239   3.972   5.886   2.189 -0.3118 -1.0091  1.2391
19942TIP3   OH281240   5.093   3.504  13.886  0.2350 -0.0303  0.3079
19942TIP3    H181241   5.003   3.535  13.894  0.3737  0.2555  0.8105
19942TIP3    H281242   5.086   3.426  13.831 -0.1653  0.6293 -0.5969
19943TIP3   OH281243   3.807   0.126  12.288  0.1773  0.8215  0.0621
19943TIP3    H181244   3.824   0.076  12.368 -1.2602 -0.4388 -0.3838
19943TIP3    H281245   3.781   0.061  12.223  1.0735  1.8375 -1.4008
19944TIP3   OH281246   1.327   6.048  11.138 -0.4610  0.1316 -0.3922
19944TIP3    H181247   1.265   5.976  11.149 -0.1419  0.0280  0.8128
19944TIP3    H281248   1.358   6.039  11.047 -1.8397 -0.0920 -0.8578
19945TIP3   OH281249   4.494   3.240   1.722  0.4870  0.5501 -0.0582
19945TIP3    H181250   4.581   3.260   1.758  0.4681  0.5941 -0.0372
19945TIP3    H281251   4.450   3.325   1.719  0.5336  0.5671 -0.2988
19946TIP3   OH281252   1.797   0.598   1.040 -0.3200 -0.2547  0.3277
19946TIP3    H181253   1.799   0.573   0.948 -0.8094  1.4982 -0.1909
19946TIP3    H281254   1.704   0.590   1.065 -0.1352 -1.0889  0.7932
19947TIP3   OH281255   5.460   6.055   0.662 -0.0123  0.0083 -0.1586
19947TIP3    H181256   5.441   6.133   0.609  0.4475 -0.7420 -1.4752
19947TIP3    H281257   5.553   6.064   0.684  0.3897 -0.7664 -1.4116
19948TIP3   OH281258   5.402   6.613  16.463 -0.4576  0.1910 -0.0522
19948TIP3    H181259   5.378   6.691  16.414 -1.6309 -0.5026 -0.6381
19948TIP3    H281260   5.497   6.609  16.459 -0.5192 -0.0344 -2.5975
19949TIP3   OH281261   4.849   4.907  11.382  0.3097  0.6764  0.8017
19949TIP3    H181262   4.936   4.944  11.372  0.7176 -0.7848 -1.8068
19949TIP3    H281263   4.860   4.814  11.364 -1.4350  0.0373  2.7064
19950TIP3   OH281264   0.319   4.518  14.488 -0.0233  0.0129 -0.4711
19950TIP3    H181265   0.300   4.554  14.401  1.6303  1.2139 -0.3995
19950TIP3    H281266   0.375   4.442  14.470  2.4215  1.6886 -0.4808
19951TIP3   OH281267   5.901   0.886  14.491  0.3754  0.6418  0.3140
19951TIP3    H181268   5.848   0.943  14.436  0.3709  1.0277  0.7092
19951TIP3    H281269   5.915   0.937  14.572  1.8246  0.7992 -0.0043
19952TIP3   OH281270   4.033   3.340   5.858 -0.3609  0.4612 -0.2321
19952TIP3    H181271   4.023   3.293   5.941 -0.2473  0.9017  0.0339
19952TIP3    H281272   3.964   3.305   5.803 -0.9150  0.6975  0.2972
19953TIP3   OH281273   1.241   0.162  10.391  0.1021 -0.0541 -0.4323
19953TIP3    H181274   1.273   0.252  10.384 -1.2805  0.4426 -0.6213
19953TIP3    H281275   1.318   0.112  10.419  1.2031  0.9598 -1.5320
19954TIP3   OH281276   6.169   3.622  16.471  0.5963  0.2978 -0.2951
19954TIP3    H181277   6.083   3.645  16.435  0.3094  0.3479  0.4090
19954TIP3    H281278   6.190   3.694  16.530  0.4037 -0.4727  0.7392
19955TIP3   OH281279   2.113   1.472   3.245 -0.5365 -0.2117 -0.2069
19955TIP3    H181280   2.175   1.405   3.219  1.4341  1.3678  0.1134
19955TIP3    H281281   2.096   1.522   3.165 -0.8554 -0.2218 -0.1465
19956TIP3   OH281282   3.388   1.687   4.175  0.1439  0.4756 -0.4590
19956TIP3    H181283   3.483   1.688   4.159  0.3398  1.0799  0.6581
19956TIP3    H281284   3.379   1.713   4.267 -1.0813 -0.0988 -0.4005
19957TIP3   OH281285   5.403   3.069  16.854  0.3102  0.0250 -0.0126
19957TIP3    H181286   5.329   3.125  16.876 -1.2687 -1.6343 -0.9202
19957TIP3    H281287   5.462   3.127  16.804 -0.0989  1.4807  1.1133
19958TIP3   OH281288   5.866   3.964  16.448  0.1813  0.0645 -0.3140
19958TIP3    H181289   5.943   4.020  16.455 -1.7554  2.9464 -0.2082
19958TIP3    H281290   5.848   3.959  16.354  0.1641 -0.1023 -0.3021
19959TIP3   OH281291   1.836   5.404  15.308 -0.6449 -0.0147 -0.0878
19959TIP3    H181292   1.778   5.428  15.381  0.0117  2.5399 -0.3029
19959TIP3    H281293   1.891   5.481  15.295  2.5929 -2.1171 -0.1543
19960TIP3   OH281294   6.484   5.389   5.584 -0.2216 -0.6798 -0.2156
19960TIP3    H181295   6.446   5.467   5.625 -1.5441 -1.9616  1.1269
19960TIP3    H281296   6.523   5.341   5.657  2.8975 -0.1093 -1.3493
19961TIP3   OH281297   1.145   0.579  13.704 -0.1110  0.1364 -0.2237
19961TIP3    H181298   1.100   0.602  13.623 -0.4279 -1.6444 -0.5923
19961TIP3    H281299   1.238   0.578  13.681 -0.2541 -1.2566 -0.8403
19962TIP3   OH281300   2.401   5.505   0.602  0.0275  0.1410 -0.0970
19962TIP3    H181301   2.490   5.529   0.576  0.4035 -0.1336  0.8672
19962TIP3    H281302   2.389   5.417   0.567 -0.9030  1.1630 -2.5779
19963TIP3   OH281303   3.748   4.460   3.433 -0.2585 -0.9350 -0.5634
19963TIP3    H181304   3.728   4.543   3.389 -1.6509 -0.2996  1.1327
19963TIP3    H281305   3.838   4.441   3.407 -0.4654  0.1932 -2.3704
19964TIP3   OH281306   5.714   5.388  15.689  0.5124 -0.1586  0.0673
19964TIP3    H181307   5.788   5.399  15.749  2.3924 -0.4348 -2.0851
19964TIP3    H281308   5.753   5.389  15.602 -2.0123 -0.6449 -1.1599
19965TIP3   OH281309   4.567   4.503  16.906  0.3120 -0.1019  0.3929
19965TIP3    H181310   4.595   4.594  16.893  1.0784 -0.2114  1.1512
19965TIP3    H281311   4.640   4.463  16.954  0.6129 -1.5041 -1.1775
19966TIP3   OH281312   4.483   5.597  14.638  0.7283 -0.0578 -0.1129
19966TIP3    H181313   4.417   5.617  14.705 -1.2010 -0.8680 -1.6735
19966TIP3    H281314   4.436   5.602  14.555  2.2215 -2.2769 -1.1997
19967TIP3   OH281315   5.511   0.884  14.590 -0.4028 -0.1695 -0.2503
19967TIP3    H181316   5.431   0.856  14.634 -0.9656 -0.0148 -1.1579
19967TIP3    H281317   5.577   0.885  14.660 -0.7675 -1.9614  0.1766
19968TIP3   OH281318   2.842   1.519  10.681 -0.6788  0.1426 -0.0400
19968TIP3    H181319   2.856   1.441  10.735 -0.5890  0.3428  0.2308
19968TIP3    H281320   2.824   1.485  10.593  1.0610 -0.1484 -0.3106
19969TIP3   OH281321   6.737   2.381  12.013 -0.5036  0.2190  0.3272
19969TIP3    H181322   6.734   2.311  11.948 -3.1625  0.8788 -0.3849
19969TIP3    H281323   6.723   2.337  12.097  1.3779 -0.4474  0.3465
19970TIP3   OH281324   3.262   1.895   4.045 -0.7692  0.6650  0.3284
19970TIP3    H181325   3.299   1.820   4.092  0.4549  0.3517 -1.0408
19970TIP3    H281326   3.184   1.919   4.094 -1.5249 -1.8815  0.4937
19971TIP3   OH281327   4.319   5.553  10.885  0.2365  0.6557  0.0766
19971TIP3    H181328   4.261   5.622  10.852 -2.7877 -2.3659 -1.5262
19971TIP3    H281329   4.333   5.496  10.809  0.0948 -2.0346  1.9467
19972TIP3   OH281330   1.104   4.961  14.582  0.7363 -0.3070  0.0944
19972TIP3    H181331   1.136   5.011  14.657 -0.8501  0.6536  0.1728
19972TIP3    H281332   1.038   4.902  14.619  1.2593 -1.1713 -0.2983
19973TIP3   OH281333   3.552   3.638  16.178  0.2820  0.1987  0.1722
19973TIP3    H181334   3.531   3.696  16.104 -0.3847  0.3783  0.4866
19973TIP3    H281335   3.645   3.652  16.195 -0.0015  1.7069  0.6663
19974TIP3   OH281336   3.135   2.514   5.056 -0.3923  0.3541  0.4551
19974TIP3    H181337   3.110   2.607   5.050 -0.5939  0.3067  0.5353
19974TIP3    H281338   3.056   2.467   5.032  0.4946  0.1999 -2.5347
19975TIP3   OH281339   1.711   2.373  10.931 -0.3646  0.1359 -0.0181
19975TIP3    H181340   1.763   2.451  10.953 -1.0983  0.6082  0.0954
19975TIP3    H281341   1.679   2.390  10.842 -0.3440 -0.1455 -0.0811
19976TIP3   OH281342   2.248   1.671  15.227  0.4103 -0.2528  0.1522
19976TIP3    H181343   2.311   1.687  15.298  0.3937  0.9125 -0.0829
19976TIP3    H281344   2.173   1.726  15.250  0.6822  0.6889 -1.1226
19977TIP3   OH281345   1.801   6.121   5.986  0.3443  0.4421 -0.6471
19977TIP3    H181346   1.809   6.148   6.078 -0.7564 -2.3147  0.3684
19977TIP3    H281347   1.708   6.099   5.976  1.2637 -4.2630 -0.7656
19978TIP3   OH281348   2.843   6.041   4.798 -0.6576  0.3048  0.0246
19978TIP3    H181349   2.844   6.100   4.723 -0.3066 -0.6862 -0.7731
19978TIP3    H281350   2.844   6.099   4.874 -1.8770  1.3509 -0.7062
19979TIP3   OH281351   0.722   5.789  15.146 -0.2439 -0.0705 -0.2341
19979TIP3    H181352   0.742   5.847  15.220  2.5129  1.4348 -1.9953
19979TIP3    H281353   0.649   5.831  15.101  0.9527  1.4704 -0.8080
19980TIP3   OH281354   5.465   0.601   1.487 -0.0281 -0.0050 -0.2528
19980TIP3    H181355   5.407   0.660   1.536 -0.1735 -0.8821  0.6462
19980TIP3    H281356   5.455   0.629   1.396 -1.0523  0.5405  0.0107
19981TIP3   OH281357   6.601   2.263   0.417 -0.0094  0.4346 -0.0517
19981TIP3    H181358   6.629   2.232   0.503  0.0667  0.5100 -0.0491
19981TIP3    H281359   6.683   2.276   0.368 -0.0211  0.9944  0.0714
19982TIP3   OH281360   1.641   4.652  15.351  0.5677 -0.1122  0.3588
19982TIP3    H181361   1.703   4.602  15.298  0.8505  2.3282 -1.7818
19982TIP3    H281362   1.680   4.739  15.358 -2.1098  1.2237 -0.2389
19983TIP3   OH281363   2.633   5.708  15.554 -0.4236  0.2136  0.1078
19983TIP3    H181364   2.600   5.795  15.532 -0.2704 -0.2532 -2.2295
19983TIP3    H281365   2.575   5.677  15.624 -2.5402  0.9140 -1.2525
19984TIP3   OH281366   5.392   3.714   0.372 -0.1010 -0.1726  0.1279
19984TIP3    H181367   5.468   3.671   0.410  0.8852  2.0809  0.8626
19984TIP3    H281368   5.342   3.746   0.447  0.0452  1.3346 -0.3913
19985TIP3   OH281369   5.359   5.646   3.045  0.1435  0.2278  0.2737
19985TIP3    H181370   5.357   5.569   2.989 -1.1730  1.0020 -0.8055
19985TIP3    H281371   5.392   5.614   3.129 -0.6469 -1.5571 -0.0612
19986TIP3   OH281372   3.183   4.744  13.975  0.3455  0.2780  0.4263
19986TIP3    H181373   3.207   4.651  13.969 -0.9677 -0.2001  1.9005
19986TIP3    H281374   3.216   4.782  13.893  0.3653 -1.6120 -0.5133
19987TIP3   OH281375   1.573   0.885   1.603  0.4336 -0.4410 -0.6211
19987TIP3    H181376   1.658   0.857   1.638  1.3543  1.5087 -1.1327
19987TIP3    H281377   1.545   0.955   1.662  0.0942  0.1838 -1.5051
19988TIP3   OH281378   6.511   6.169   3.211  0.3347 -0.5685  0.7373
19988TIP3    H181379   6.590   6.184   3.159 -0.6368 -0.6614 -0.8297
19988TIP3    H281380   6.492   6.254   3.250  0.8954 -0.4111  0.6875
19989LIG      O81381   3.283   3.287  12.358 -0.7040  0.0642 -0.0115
19989LIG     C181382   3.353   3.288  12.481  1.1274  0.4418 -0.3731
19989LIG     C281383   3.430   3.421  12.500  0.1611  0.0057 -0.2823
19989LIG     C381384   3.240   3.278  12.586 -0.2811 -0.0999 -0.6361
19989LIG     H181385   3.429   3.207  12.472  1.6997  1.1119 -2.1435
19989LIG     H281386   3.489   3.433  12.593 -0.6862 -0.3193  0.3040
19989LIG     H381387   3.357   3.504  12.486  2.0342  1.9075  0.5909
19989LIG     H481388   3.503   3.434  12.417  0.2912 -1.2734 -0.3770
19989LIG     H581389   3.169   3.362  12.579  1.3480  1.4568  0.5806
19989LIG     H681390   3.288   3.288  12.686  0.1216 -1.8969 -0.6127
19989LIG     H781391   3.190   3.179  12.583  0.2985 -0.3759 -1.7957
19989LIG     H881392   3.351   3.276  12.291  0.4745 -0.6053  1.2375
   6.81872   6.81872  17.04613
